----- Optimization -----
      -----------------------------------------------------------      
     |                   =====================                   |     
     |                           x T B                           |     
     |                   =====================                   |     
     |                         S. Grimme                         |     
     |          Mulliken Center for Theoretical Chemistry        |     
     |                    University of Bonn                     |     
      -----------------------------------------------------------      

   * xtb version 6.7.1 (edcfbbe) compiled by 'conda@3ef47c1a292c' on 2024-11-25

   xtb is free software: you can redistribute it and/or modify it under
   the terms of the GNU Lesser General Public License as published by
   the Free Software Foundation, either version 3 of the License, or
   (at your option) any later version.
   
   xtb is distributed in the hope that it will be useful,
   but WITHOUT ANY WARRANTY; without even the implied warranty of
   MERCHANTABILITY or FITNESS FOR A PARTICULAR PURPOSE.  See the
   GNU Lesser General Public License for more details.
   
   Cite this work as:
   * C. Bannwarth, E. Caldeweyher, S. Ehlert, A. Hansen, P. Pracht,
     J. Seibert, S. Spicher, S. Grimme, WIREs Comput. Mol. Sci., 2020, 11,
     e01493. DOI: 10.1002/wcms.1493
   
   for GFN2-xTB:
   * C. Bannwarth, S. Ehlert and S. Grimme., J. Chem. Theory Comput., 2019,
     15, 1652-1671. DOI: 10.1021/acs.jctc.8b01176
   for GFN1-xTB:
   * S. Grimme, C. Bannwarth, P. Shushkov, J. Chem. Theory Comput., 2017,
     13, 1989-2009. DOI: 10.1021/acs.jctc.7b00118
   for GFN0-xTB:
   * P. Pracht, E. Caldeweyher, S. Ehlert, S. Grimme, ChemRxiv, 2019, preprint.
     DOI: 10.26434/chemrxiv.8326202.v1
   for GFN-FF:
   * S. Spicher and S. Grimme, Angew. Chem. Int. Ed., 2020, 59, 15665-15673.
     DOI: 10.1002/anie.202004239
   
   for ALPB and GBSA implicit solvation:
   * S. Ehlert, M. Stahn, S. Spicher, S. Grimme, J. Chem. Theory Comput.,
     2021, 17, 4250-4261. DOI: 10.1021/acs.jctc.1c00471
   
   for ddCOSMO and CPCM-X implicit solvation:
   * M. Stahn, S. Ehlert, S. Grimme, J. Phys. Chem. A,
     2023, XX, XXXX-XXXX. DOI: 10.1021/acs.jpca.3c04382
   
   for DFT-D4:
   * E. Caldeweyher, C. Bannwarth and S. Grimme, J. Chem. Phys., 2017,
     147, 034112. DOI: 10.1063/1.4993215
   * E. Caldeweyher, S. Ehlert, A. Hansen, H. Neugebauer, S. Spicher,
     C. Bannwarth and S. Grimme, J. Chem. Phys., 2019, 150, 154122.
     DOI: 10.1063/1.5090222
   * E. Caldeweyher, J.-M. Mewes, S. Ehlert and S. Grimme, Phys. Chem. Chem. Phys.
     2020, 22, 8499-8512. DOI: 10.1039/D0CP00502A
   
   for sTDA-xTB:
   * S. Grimme and C. Bannwarth, J. Chem. Phys., 2016, 145, 054103.
     DOI: 10.1063/1.4959605
   
   in the mass-spec context:
   * V. Asgeirsson, C. Bauer and S. Grimme, Chem. Sci., 2017, 8, 4879.
     DOI: 10.1039/c7sc00601b
   * J. Koopman and S. Grimme, ACS Omega 2019, 4, 12, 15120-15133.
     DOI: 10.1021/acsomega.9b02011
   
   for metadynamics refer to:
   * S. Grimme, J. Chem. Theory Comput., 2019, 155, 2847-2862
     DOI: 10.1021/acs.jctc.9b00143
   
   for SPH calculations refer to:
   * S. Spicher and S. Grimme, J. Chem. Theory Comput., 2021, 17, 1701-1714
     DOI: 10.1021/acs.jctc.0c01306
   
   for ONIOM refer to:
   * C. Plett, A. Katbashev, S. Ehlert, S. Grimme, M. Bursch,
     Phys. Chem. Chem. Phys., 2023, 25, 17860-17868. DOI: 10.1039/D3CP02178E
   
   for DIPRO refer to:
   * J. Kohn, N. Gildemeister, S. Grimme, D. Fazzi, A. Hansen,
     J. Chem. Phys., 2023, just accepted.
   
   for PTB refer to:
   * S. Grimme, M. Mueller, A. Hansen, J. Chem. Phys., 2023, 158, 124111.
     DOI: 10.1063/5.0137838
   
   with help from (in alphabetical order)
   P. Atkinson, C. Bannwarth, F. Bohle, G. Brandenburg, E. Caldeweyher
   M. Checinski, S. Dohm, S. Ehlert, S. Ehrlich, I. Gerasimov, C. Hölzer
   A. Katbashev, J. Kohn, J. Koopman, C. Lavigne, S. Lehtola, F. März, M. Müller,
   F. Musil, H. Neugebauer, J. Pisarek, C. Plett, P. Pracht, F. Pultar,
   J. Seibert, P. Shushkov, S. Spicher, M. Stahn, M. Steiner, T. Strunk,
   J. Stückrath, T. Rose, and J. Unsleber
   
 * started run on 2025/05/15 at 16:34:54.422     
   ID    Z sym.   atoms
    1    9 F      1
    2    6 C      2-11, 13-16, 18, 20-26
    3    7 N      12, 17, 19
    4    8 O      27-29
    5    1 H      30-51

           -------------------------------------------------
          |                Calculation Setup                |
           -------------------------------------------------

          program call               : xtb /rds/general/user/hgt20/home/callum/QDESCP/Ketanserin_rdkit_conf_14/Ketanserin_rdkit_conf_14.xyz --opt normal --acc 1 --gfn 2 --chrg 0 --uhf 0 -P 1
          hostname                   : login-c
          coordinate file            : /rds/general/user/hgt20/home/callum/QDESCP/Ketanserin_rdkit_conf_14/Ketanserin_rdkit_conf_14.xyz
          omp threads                :                     1


           -------------------------------------------------
          |                 G F N 2 - x T B                 |
           -------------------------------------------------

        Reference                      10.1021/acs.jctc.8b01176
      * Hamiltonian:
        H0-scaling (s, p, d)           1.850000    2.230000    2.230000
        zeta-weighting                 0.500000
      * Dispersion:
        s8                             2.700000
        a1                             0.520000
        a2                             5.000000
        s9                             5.000000
      * Repulsion:
        kExp                           1.500000    1.000000
        rExp                           1.000000
      * Coulomb:
        alpha                          2.000000
        third order                    shell-resolved
        anisotropic                    true
        a3                             3.000000
        a5                             4.000000
        cn-shift                       1.200000
        cn-exp                         4.000000
        max-rad                        5.000000


          ...................................................
          :                      SETUP                      :
          :.................................................:
          :  # basis functions                 138          :
          :  # atomic orbitals                 138          :
          :  # shells                           80          :
          :  # electrons                       150          :
          :  max. iterations                   250          :
          :  Hamiltonian                  GFN2-xTB          :
          :  restarted?                      false          :
          :  GBSA solvation                  false          :
          :  PC potential                    false          :
          :  electronic temp.          300.0000000     K    :
          :  accuracy                    1.0000000          :
          :  -> integral cutoff          0.2500000E+02      :
          :  -> integral neglect         0.1000000E-07      :
          :  -> SCF convergence          0.1000000E-05 Eh   :
          :  -> wf. convergence          0.1000000E-03 e    :
          :  Broyden damping             0.4000000          :
          :  net charge                          0          :
          :  unpaired electrons                  0          :
          ...................................................

 iter      E             dE          RMSdq      gap      omega  full diag
   1    -84.9887827 -0.849888E+02  0.431E+00    2.42       0.0  T
   2    -85.1486260 -0.159843E+00  0.249E+00    1.90       1.0  T
   3    -85.1575929 -0.896688E-02  0.139E+00    1.83       1.0  T
   4    -85.1720687 -0.144758E-01  0.309E-01    1.41       1.0  T
   5    -85.1753652 -0.329648E-02  0.919E-02    1.43       1.0  T
   6    -85.1754785 -0.113332E-03  0.497E-02    1.46       1.0  T
   7    -85.1755315 -0.529707E-04  0.191E-02    1.47       1.0  T
   8    -85.1755328 -0.135386E-05  0.795E-03    1.47       1.8  T
   9    -85.1755339 -0.103781E-05  0.345E-03    1.47       4.1  T
  10    -85.1755340 -0.118756E-06  0.118E-03    1.47      11.9  T
  11    -85.1755340 -0.195949E-07  0.606E-04    1.47      23.1  T
  12    -85.1755340 -0.370250E-08  0.188E-04    1.47      74.4  T

   *** convergence criteria satisfied after 12 iterations ***

         #    Occupation            Energy/Eh            Energy/eV
      -------------------------------------------------------------
         1        2.0000           -0.8287974             -22.5527
       ...           ...                  ...                  ...
        69        2.0000           -0.4277857             -11.6406
        70        2.0000           -0.4224271             -11.4948
        71        2.0000           -0.4213885             -11.4666
        72        2.0000           -0.4113618             -11.1937
        73        2.0000           -0.4084376             -11.1142
        74        2.0000           -0.3921562             -10.6711
        75        2.0000           -0.3446403              -9.3781 (HOMO)
        76                         -0.2905297              -7.9057 (LUMO)
        77                         -0.2835301              -7.7152
        78                         -0.2554449              -6.9510
        79                         -0.2546628              -6.9297
        80                         -0.2251814              -6.1275
       ...                                ...                  ...
       138                          0.6640952              18.0710
      -------------------------------------------------------------
                  HL-Gap            0.0541107 Eh            1.4724 eV
             Fermi-level           -0.3175850 Eh           -8.6419 eV

 SCC (total)                   0 d,  0 h,  0 min,  0.112 sec
 SCC setup                      ...        0 min,  0.001 sec (  0.464%)
 Dispersion                     ...        0 min,  0.001 sec (  0.629%)
 classical contributions        ...        0 min,  0.000 sec (  0.190%)
 integral evaluation            ...        0 min,  0.010 sec (  9.083%)
 iterations                     ...        0 min,  0.063 sec ( 56.716%)
 molecular gradient             ...        0 min,  0.036 sec ( 32.664%)
 printout                       ...        0 min,  0.000 sec (  0.247%)

         :::::::::::::::::::::::::::::::::::::::::::::::::::::
         ::                     SUMMARY                     ::
         :::::::::::::::::::::::::::::::::::::::::::::::::::::
         :: total energy             -84.092682417470 Eh    ::
         :: gradient norm              0.085050411864 Eh/a0 ::
         :: HOMO-LUMO gap              1.472425807761 eV    ::
         ::.................................................::
         :: SCC energy               -85.175577323606 Eh    ::
         :: -> isotropic ES            0.116445130941 Eh    ::
         :: -> anisotropic ES          0.006161065232 Eh    ::
         :: -> anisotropic XC          0.029426963465 Eh    ::
         :: -> dispersion             -0.056677696539 Eh    ::
         :: repulsion energy           1.082894906136 Eh    ::
         :: add. restraining           0.000000000000 Eh    ::
         :: total charge              -0.000000000000 e     ::
         :::::::::::::::::::::::::::::::::::::::::::::::::::::

      ----------------------------------------------------------- 
     |                   =====================                   |
     |                        A N C O P T                        |
     |                   =====================                   |
     |               Approximate Normal Coordinate               |
     |                Rational Function Optimizer                |
      ----------------------------------------------------------- 
      ----------------------------------------------------------- 
     |                   =====================                   |
     |                        A N C O P T                        |
     |                   =====================                   |
     |               Approximate Normal Coordinate               |
     |                Rational Function Optimizer                |
      ----------------------------------------------------------- 

          ...................................................
          :                      SETUP                      :
          :.................................................:
          :   optimization level            normal          :
          :   max. optcycles                   200          :
          :   ANC micro-cycles                  20          :
          :   degrees of freedom               147          :
          :.................................................:
          :   RF solver                   davidson          :
          :   write xtbopt.log                true          :
          :   linear?                        false          :
          :   energy convergence         0.5000000E-05 Eh   :
          :   grad. convergence          0.1000000E-02 Eh/α :
          :   maxmium RF displ.          1.0000000          :
          :   Hlow (freq-cutoff)         0.1000000E-01      :
          :   Hmax (freq-cutoff)         5.0000000          :
          :   S6 in model hess.         20.0000000          :
          ...................................................

generating ANC from exact Hessian ...
Using Lindh-Hessian (1995)
 Shifting diagonal of input Hessian by    9.8463925797214105E-003
 Lowest  eigenvalues of input Hessian
    0.000000    0.000000    0.000000    0.000000    0.000000    0.000000
    0.010000    0.010147    0.010297    0.010527    0.010784    0.010977
    0.012099    0.013149    0.013952    0.015250    0.015880    0.017429
 Highest eigenvalues
    2.031369    2.046071    2.090725    2.103115    2.298794    2.471036


........................................................................
.............................. CYCLE    1 ..............................
........................................................................

 iter      E             dE          RMSdq      gap      omega  full diag
   1    -85.1755340 -0.851755E+02  0.668E-05    1.47       0.0  T
   2    -85.1755340 -0.409131E-10  0.404E-05    1.47     346.5  T
   3    -85.1755340 -0.186162E-10  0.258E-05    1.47     543.4  T
     SCC iter.                  ...        0 min,  0.010 sec
     gradient                   ...        0 min,  0.076 sec
 * total energy  :   -84.0926824 Eh     change       -0.4862812E-09 Eh
   gradient norm :     0.0850505 Eh/α   predicted     0.0000000E+00 (-100.00%)
   displ. norm   :     0.3022481 α      lambda       -0.1195067E-01
   maximum displ.:     0.0798677 α      in ANC's #27, #9, #54, ...

........................................................................
.............................. CYCLE    2 ..............................
........................................................................

 iter      E             dE          RMSdq      gap      omega  full diag
   1    -85.2240416 -0.852240E+02  0.177E-01    1.52       0.0  T
   2    -85.2241815 -0.139863E-03  0.104E-01    1.53       1.0  T
   3    -85.2241651  0.163647E-04  0.393E-02    1.53       1.0  T
   4    -85.2241933 -0.281191E-04  0.101E-02    1.52       1.4  T
   5    -85.2241976 -0.434644E-05  0.314E-03    1.52       4.5  T
   6    -85.2241978 -0.149549E-06  0.156E-03    1.52       9.0  T
   7    -85.2241978 -0.246169E-07  0.593E-04    1.52      23.6  T
   8    -85.2241978 -0.373285E-08  0.231E-04    1.52      60.7  T
     SCC iter.                  ...        0 min,  0.025 sec
     gradient                   ...        0 min,  0.070 sec
 * total energy  :   -84.1006879 Eh     change       -0.8005455E-02 Eh
   gradient norm :     0.0317395 Eh/α   predicted    -0.6529401E-02 ( -18.44%)
   displ. norm   :     0.2558862 α      lambda       -0.2977977E-02
   maximum displ.:     0.1273689 α      in ANC's #9, #27, #15, ...

........................................................................
.............................. CYCLE    3 ..............................
........................................................................

 iter      E             dE          RMSdq      gap      omega  full diag
   1    -85.2454484 -0.852454E+02  0.106E-01    1.50       0.0  T
   2    -85.2454904 -0.420909E-04  0.610E-02    1.51       1.0  T
   3    -85.2454823  0.819048E-05  0.250E-02    1.51       1.0  T
   4    -85.2454956 -0.133510E-04  0.549E-03    1.51       2.6  T
   5    -85.2454969 -0.130842E-05  0.171E-03    1.51       8.2  T
   6    -85.2454970 -0.433592E-07  0.819E-04    1.51      17.1  T
   7    -85.2454970 -0.718055E-08  0.319E-04    1.51      43.9  T
     SCC iter.                  ...        0 min,  0.022 sec
     gradient                   ...        0 min,  0.068 sec
 * total energy  :   -84.1024355 Eh     change       -0.1747641E-02 Eh
   gradient norm :     0.0090734 Eh/α   predicted    -0.1587261E-02 (  -9.18%)
   displ. norm   :     0.1685632 α      lambda       -0.4920163E-03
   maximum displ.:     0.1090776 α      in ANC's #9, #10, #12, ...

........................................................................
.............................. CYCLE    4 ..............................
........................................................................

 iter      E             dE          RMSdq      gap      omega  full diag
   1    -85.2472474 -0.852472E+02  0.411E-02    1.48       0.0  T
   2    -85.2472498 -0.236147E-05  0.239E-02    1.49       1.0  T
   3    -85.2472485  0.127997E-05  0.713E-03    1.49       2.0  T
   4    -85.2472503 -0.177233E-05  0.143E-03    1.49       9.8  T
   5    -85.2472503 -0.616272E-07  0.644E-04    1.49      21.7  T
   6    -85.2472503 -0.316666E-08  0.280E-04    1.49      50.1  T
     SCC iter.                  ...        0 min,  0.019 sec
     gradient                   ...        0 min,  0.070 sec
 * total energy  :   -84.1027756 Eh     change       -0.3400762E-03 Eh
   gradient norm :     0.0053527 Eh/α   predicted    -0.2530022E-03 ( -25.60%)
   displ. norm   :     0.1951256 α      lambda       -0.3030286E-03
   maximum displ.:     0.1234380 α      in ANC's #9, #4, #10, ...

........................................................................
.............................. CYCLE    5 ..............................
........................................................................

 iter      E             dE          RMSdq      gap      omega  full diag
   1    -85.2470648 -0.852471E+02  0.416E-02    1.47       0.0  T
   2    -85.2470665 -0.163309E-05  0.243E-02    1.47       1.0  T
   3    -85.2470662  0.237891E-06  0.398E-03    1.47       3.5  T
   4    -85.2470667 -0.471239E-06  0.116E-03    1.47      12.0  T
   5    -85.2470667 -0.263398E-07  0.572E-04    1.47      24.5  T
   6    -85.2470667 -0.272557E-08  0.208E-04    1.47      67.4  T
     SCC iter.                  ...        0 min,  0.019 sec
     gradient                   ...        0 min,  0.062 sec
 * total energy  :   -84.1029589 Eh     change       -0.1832826E-03 Eh
   gradient norm :     0.0038666 Eh/α   predicted    -0.1572850E-03 ( -14.18%)
   displ. norm   :     0.1127257 α      lambda       -0.9327562E-04
   maximum displ.:     0.0601696 α      in ANC's #9, #4, #2, ...

........................................................................
.............................. CYCLE    6 ..............................
........................................................................

 iter      E             dE          RMSdq      gap      omega  full diag
   1    -85.2468009 -0.852468E+02  0.227E-02    1.47       0.0  T
   2    -85.2468013 -0.328999E-06  0.134E-02    1.47       1.0  T
   3    -85.2468011  0.139707E-06  0.218E-03    1.47       6.4  T
   4    -85.2468013 -0.218323E-06  0.681E-04    1.47      20.6  T
   5    -85.2468014 -0.881781E-08  0.334E-04    1.47      41.9  T
     SCC iter.                  ...        0 min,  0.016 sec
     gradient                   ...        0 min,  0.064 sec
 * total energy  :   -84.1030210 Eh     change       -0.6216119E-04 Eh
   gradient norm :     0.0029799 Eh/α   predicted    -0.4725635E-04 ( -23.98%)
   displ. norm   :     0.1059894 α      lambda       -0.5866829E-04
   maximum displ.:     0.0498985 α      in ANC's #2, #4, #9, ...

........................................................................
.............................. CYCLE    7 ..............................
........................................................................

 iter      E             dE          RMSdq      gap      omega  full diag
   1    -85.2468717 -0.852469E+02  0.195E-02    1.47       0.0  T
   2    -85.2468720 -0.309062E-06  0.115E-02    1.47       1.2  T
   3    -85.2468719  0.116660E-06  0.219E-03    1.47       6.4  T
   4    -85.2468721 -0.178711E-06  0.607E-04    1.47      23.1  T
   5    -85.2468721 -0.745302E-08  0.282E-04    1.47      49.6  T
     SCC iter.                  ...        0 min,  0.016 sec
     gradient                   ...        0 min,  0.066 sec
 * total energy  :   -84.1030632 Eh     change       -0.4213775E-04 Eh
   gradient norm :     0.0021089 Eh/α   predicted    -0.2966481E-04 ( -29.60%)
   displ. norm   :     0.1125759 α      lambda       -0.4626530E-04
   maximum displ.:     0.0594355 α      in ANC's #2, #4, #5, ...

........................................................................
.............................. CYCLE    8 ..............................
........................................................................

 iter      E             dE          RMSdq      gap      omega  full diag
   1    -85.2472933 -0.852473E+02  0.177E-02    1.48       0.0  T
   2    -85.2472937 -0.397139E-06  0.104E-02    1.48       1.3  T
   3    -85.2472937  0.459977E-07  0.196E-03    1.48       7.2  T
   4    -85.2472938 -0.968276E-07  0.579E-04    1.48      24.2  T
   5    -85.2472938 -0.668693E-08  0.275E-04    1.48      51.0  T
     SCC iter.                  ...        0 min,  0.016 sec
     gradient                   ...        0 min,  0.037 sec
 * total energy  :   -84.1030988 Eh     change       -0.3562683E-04 Eh
   gradient norm :     0.0019236 Eh/α   predicted    -0.2342897E-04 ( -34.24%)
   displ. norm   :     0.2350989 α      lambda       -0.5269291E-04
   maximum displ.:     0.1252278 α      in ANC's #2, #4, #7, ...

........................................................................
.............................. CYCLE    9 ..............................
........................................................................

 iter      E             dE          RMSdq      gap      omega  full diag
   1    -85.2477185 -0.852477E+02  0.333E-02    1.49       0.0  T
   2    -85.2477196 -0.107535E-05  0.195E-02    1.48       1.0  T
   3    -85.2477195  0.487642E-07  0.282E-03    1.48       5.0  T
   4    -85.2477197 -0.182074E-06  0.922E-04    1.48      15.2  T
   5    -85.2477197 -0.149154E-07  0.475E-04    1.48      29.5  T
     SCC iter.                  ...        0 min,  0.016 sec
     gradient                   ...        0 min,  0.037 sec
 * total energy  :   -84.1031556 Eh     change       -0.5683529E-04 Eh
   gradient norm :     0.0033034 Eh/α   predicted    -0.2699439E-04 ( -52.50%)
   displ. norm   :     0.1711751 α      lambda       -0.5453066E-04
   maximum displ.:     0.0915599 α      in ANC's #2, #7, #4, ...

........................................................................
.............................. CYCLE   10 ..............................
........................................................................

 iter      E             dE          RMSdq      gap      omega  full diag
   1    -85.2478189 -0.852478E+02  0.232E-02    1.48       0.0  T
   2    -85.2478190 -0.166372E-06  0.136E-02    1.48       1.0  T
   3    -85.2478190  0.175240E-07  0.126E-03    1.48      11.1  T
   4    -85.2478191 -0.612214E-07  0.550E-04    1.48      25.5  T
   5    -85.2478191 -0.586044E-08  0.247E-04    1.48      56.8  T
     SCC iter.                  ...        0 min,  0.016 sec
     gradient                   ...        0 min,  0.037 sec
 * total energy  :   -84.1032044 Eh     change       -0.4878391E-04 Eh
   gradient norm :     0.0031792 Eh/α   predicted    -0.2806729E-04 ( -42.47%)
   displ. norm   :     0.3049439 α      lambda       -0.9786047E-04
   maximum displ.:     0.1649889 α      in ANC's #2, #7, #4, ...

........................................................................
.............................. CYCLE   11 ..............................
........................................................................

 iter      E             dE          RMSdq      gap      omega  full diag
   1    -85.2474372 -0.852474E+02  0.439E-02    1.48       0.0  T
   2    -85.2474377 -0.533952E-06  0.258E-02    1.48       1.0  T
   3    -85.2474375  0.213996E-06  0.277E-03    1.48       5.1  T
   4    -85.2474379 -0.376591E-06  0.982E-04    1.48      14.3  T
   5    -85.2474379 -0.172235E-07  0.448E-04    1.48      31.3  T
     SCC iter.                  ...        0 min,  0.016 sec
     gradient                   ...        0 min,  0.037 sec
 * total energy  :   -84.1032840 Eh     change       -0.7957256E-04 Eh
   gradient norm :     0.0023698 Eh/α   predicted    -0.5348293E-04 ( -32.79%)
   displ. norm   :     0.3687823 α      lambda       -0.8913180E-04
   maximum displ.:     0.2033031 α      in ANC's #2, #7, #4, ...

........................................................................
.............................. CYCLE   12 ..............................
........................................................................

 iter      E             dE          RMSdq      gap      omega  full diag
   1    -85.2465454 -0.852465E+02  0.562E-02    1.47       0.0  T
   2    -85.2465463 -0.906655E-06  0.330E-02    1.47       1.0  T
   3    -85.2465460  0.342351E-06  0.361E-03    1.47       3.9  T
   4    -85.2465466 -0.594391E-06  0.122E-03    1.47      11.5  T
   5    -85.2465466 -0.279129E-07  0.596E-04    1.47      23.5  T
   6    -85.2465466 -0.284862E-08  0.186E-04    1.47      75.3  T
     SCC iter.                  ...        0 min,  0.019 sec
     gradient                   ...        0 min,  0.036 sec
 * total energy  :   -84.1033490 Eh     change       -0.6498908E-04 Eh
   gradient norm :     0.0022141 Eh/α   predicted    -0.5062987E-04 ( -22.09%)
   displ. norm   :     0.2574009 α      lambda       -0.5075603E-04
   maximum displ.:     0.1467378 α      in ANC's #2, #4, #7, ...

........................................................................
.............................. CYCLE   13 ..............................
........................................................................

 iter      E             dE          RMSdq      gap      omega  full diag
   1    -85.2465397 -0.852465E+02  0.440E-02    1.47       0.0  T
   2    -85.2465402 -0.537358E-06  0.259E-02    1.47       1.0  T
   3    -85.2465400  0.154879E-06  0.259E-03    1.47       5.4  T
   4    -85.2465403 -0.291431E-06  0.902E-04    1.47      15.5  T
   5    -85.2465403 -0.167002E-07  0.455E-04    1.47      30.8  T
     SCC iter.                  ...        0 min,  0.016 sec
     gradient                   ...        0 min,  0.037 sec
 * total energy  :   -84.1033888 Eh     change       -0.3985135E-04 Eh
   gradient norm :     0.0021698 Eh/α   predicted    -0.2706316E-04 ( -32.09%)
   displ. norm   :     0.2487321 α      lambda       -0.5530472E-04
   maximum displ.:     0.1467775 α      in ANC's #2, #4, #1, ...

........................................................................
.............................. CYCLE   14 ..............................
........................................................................

 iter      E             dE          RMSdq      gap      omega  full diag
   1    -85.2470402 -0.852470E+02  0.489E-02    1.47       0.0  T
   2    -85.2470408 -0.530171E-06  0.287E-02    1.47       1.0  T
   3    -85.2470407  0.793393E-07  0.238E-03    1.47       5.9  T
   4    -85.2470409 -0.223948E-06  0.879E-04    1.47      15.9  T
   5    -85.2470409 -0.125996E-07  0.470E-04    1.47      29.8  T
     SCC iter.                  ...        0 min,  0.016 sec
     gradient                   ...        0 min,  0.036 sec
 * total energy  :   -84.1034342 Eh     change       -0.4539696E-04 Eh
   gradient norm :     0.0021731 Eh/α   predicted    -0.2936725E-04 ( -35.31%)
   displ. norm   :     0.3096198 α      lambda       -0.6984727E-04
   maximum displ.:     0.1862485 α      in ANC's #2, #4, #1, ...

........................................................................
.............................. CYCLE   15 ..............................
........................................................................

 iter      E             dE          RMSdq      gap      omega  full diag
   1    -85.2471530 -0.852472E+02  0.671E-02    1.48       0.0  T
   2    -85.2471536 -0.672586E-06  0.394E-02    1.48       1.0  T
   3    -85.2471535  0.186699E-06  0.312E-03    1.48       4.5  T
   4    -85.2471539 -0.440042E-06  0.111E-03    1.48      12.7  T
   5    -85.2471539 -0.155873E-07  0.581E-04    1.48      24.1  T
   6    -85.2471539 -0.371682E-08  0.177E-04    1.48      79.1  T
     SCC iter.                  ...        0 min,  0.019 sec
     gradient                   ...        0 min,  0.036 sec
 * total energy  :   -84.1034904 Eh     change       -0.5614496E-04 Eh
   gradient norm :     0.0024849 Eh/α   predicted    -0.3827322E-04 ( -31.83%)
   displ. norm   :     0.2850447 α      lambda       -0.6483918E-04
   maximum displ.:     0.1731504 α      in ANC's #2, #4, #1, ...

........................................................................
.............................. CYCLE   16 ..............................
........................................................................

 iter      E             dE          RMSdq      gap      omega  full diag
   1    -85.2474341 -0.852474E+02  0.684E-02    1.49       0.0  T
   2    -85.2474347 -0.596330E-06  0.402E-02    1.49       1.0  T
   3    -85.2474343  0.411720E-06  0.358E-03    1.49       3.9  T
   4    -85.2474350 -0.684675E-06  0.104E-03    1.49      13.4  T
   5    -85.2474350 -0.113875E-07  0.533E-04    1.49      26.3  T
   6    -85.2474350 -0.186959E-08  0.166E-04    1.49      84.3  T
     SCC iter.                  ...        0 min,  0.019 sec
     gradient                   ...        0 min,  0.037 sec
 * total energy  :   -84.1035429 Eh     change       -0.5250816E-04 Eh
   gradient norm :     0.0025280 Eh/α   predicted    -0.3505801E-04 ( -33.23%)
   displ. norm   :     0.2936403 α      lambda       -0.6300247E-04
   maximum displ.:     0.1807369 α      in ANC's #2, #4, #6, ...

........................................................................
.............................. CYCLE   17 ..............................
........................................................................

 iter      E             dE          RMSdq      gap      omega  full diag
   1    -85.2469811 -0.852470E+02  0.724E-02    1.50       0.0  T
   2    -85.2469818 -0.692755E-06  0.425E-02    1.50       1.0  T
   3    -85.2469810  0.785733E-06  0.442E-03    1.50       3.2  T
   4    -85.2469821 -0.111117E-05  0.105E-03    1.50      13.3  T
   5    -85.2469821 -0.116733E-07  0.550E-04    1.50      25.5  T
   6    -85.2469821 -0.121622E-08  0.154E-04    1.50      90.7  T
     SCC iter.                  ...        0 min,  0.019 sec
     gradient                   ...        0 min,  0.037 sec
 * total energy  :   -84.1035956 Eh     change       -0.5271759E-04 Eh
   gradient norm :     0.0022666 Eh/α   predicted    -0.3421958E-04 ( -35.09%)
   displ. norm   :     0.2998715 α      lambda       -0.7383156E-04
   maximum displ.:     0.1823315 α      in ANC's #2, #6, #4, ...

........................................................................
.............................. CYCLE   18 ..............................
........................................................................

 iter      E             dE          RMSdq      gap      omega  full diag
   1    -85.2475163 -0.852475E+02  0.805E-02    1.52       0.0  T
   2    -85.2475173 -0.103852E-05  0.472E-02    1.51       1.0  T
   3    -85.2475162  0.111074E-05  0.516E-03    1.51       2.7  T
   4    -85.2475177 -0.150962E-05  0.120E-03    1.51      11.7  T
   5    -85.2475177 -0.273873E-07  0.635E-04    1.51      22.0  T
   6    -85.2475177 -0.129246E-08  0.190E-04    1.51      73.6  T
     SCC iter.                  ...        0 min,  0.019 sec
     gradient                   ...        0 min,  0.037 sec
 * total energy  :   -84.1036561 Eh     change       -0.6051969E-04 Eh
   gradient norm :     0.0022091 Eh/α   predicted    -0.4023644E-04 ( -33.52%)
   displ. norm   :     0.4191743 α      lambda       -0.9403383E-04
   maximum displ.:     0.2616907 α      in ANC's #2, #4, #6, ...

........................................................................
.............................. CYCLE   19 ..............................
........................................................................

 iter      E             dE          RMSdq      gap      omega  full diag
   1    -85.2459643 -0.852460E+02  0.110E-01    1.53       0.0  T
   2    -85.2459658 -0.158266E-05  0.644E-02    1.53       1.0  T
   3    -85.2459637  0.211560E-05  0.713E-03    1.53       2.0  T
   4    -85.2459666 -0.285529E-05  0.147E-03    1.53       9.5  T
   5    -85.2459666 -0.230035E-07  0.778E-04    1.53      18.0  T
   6    -85.2459666 -0.167967E-08  0.214E-04    1.53      65.6  T
     SCC iter.                  ...        0 min,  0.019 sec
     gradient                   ...        0 min,  0.037 sec
 * total energy  :   -84.1037286 Eh     change       -0.7244277E-04 Eh
   gradient norm :     0.0031153 Eh/α   predicted    -0.5527914E-04 ( -23.69%)
   displ. norm   :     0.4278317 α      lambda       -0.1046149E-03
   maximum displ.:     0.2628267 α      in ANC's #2, #6, #4, ...

........................................................................
.............................. CYCLE   20 ..............................
........................................................................

 iter      E             dE          RMSdq      gap      omega  full diag
   1    -85.2461877 -0.852462E+02  0.120E-01    1.54       0.0  T
   2    -85.2461894 -0.162862E-05  0.703E-02    1.54       1.0  T
   3    -85.2461875  0.187707E-05  0.689E-03    1.54       2.0  T
   4    -85.2461901 -0.265336E-05  0.148E-03    1.54       9.5  T
   5    -85.2461902 -0.207795E-07  0.777E-04    1.54      18.0  T
   6    -85.2461902 -0.131338E-08  0.214E-04    1.54      65.4  T
     SCC iter.                  ...        0 min,  0.019 sec
     gradient                   ...        0 min,  0.036 sec
 * total energy  :   -84.1038079 Eh     change       -0.7930835E-04 Eh
   gradient norm :     0.0042503 Eh/α   predicted    -0.6188726E-04 ( -21.97%)
   displ. norm   :     0.3732910 α      lambda       -0.1013305E-03
   maximum displ.:     0.2304055 α      in ANC's #2, #6, #3, ...
 * RMSD in coord.:     0.5551900 α      energy gain  -0.1112545E-01 Eh

generating ANC from exact Hessian ...
Using Lindh-Hessian (1995)
 Shifting diagonal of input Hessian by    9.8307356438248721E-003
 Lowest  eigenvalues of input Hessian
    0.000000    0.000000    0.000000    0.000000    0.000000    0.000000
    0.010000    0.010116    0.010293    0.010543    0.010836    0.011106
    0.012520    0.013366    0.014070    0.015621    0.016323    0.018071
 Highest eigenvalues
    2.074252    2.104918    2.141840    2.189316    2.375913    2.549626


........................................................................
.............................. CYCLE   21 ..............................
........................................................................

 iter      E             dE          RMSdq      gap      omega  full diag
   1    -85.2475203 -0.852475E+02  0.106E-01    1.56       0.0  T
   2    -85.2475212 -0.948612E-06  0.624E-02    1.55       1.0  T
   3    -85.2475204  0.760368E-06  0.484E-03    1.56       2.9  T
   4    -85.2475217 -0.126973E-05  0.119E-03    1.55      11.7  T
   5    -85.2475217 -0.715445E-08  0.580E-04    1.55      24.2  T
   6    -85.2475217 -0.161378E-08  0.164E-04    1.55      85.3  T
     SCC iter.                  ...        0 min,  0.019 sec
     gradient                   ...        0 min,  0.064 sec
 * total energy  :   -84.1038866 Eh     change       -0.7873153E-04 Eh
   gradient norm :     0.0042568 Eh/α   predicted     0.0000000E+00 (-100.00%)
   displ. norm   :     0.0380497 α      lambda       -0.2687736E-04
   maximum displ.:     0.0184455 α      in ANC's #2, #10, #12, ...

........................................................................
.............................. CYCLE   22 ..............................
........................................................................

 iter      E             dE          RMSdq      gap      omega  full diag
   1    -85.2485094 -0.852485E+02  0.120E-02    1.55       0.0  T
   2    -85.2485097 -0.318092E-06  0.712E-03    1.55       2.0  T
   3    -85.2485096  0.628849E-07  0.180E-03    1.55       7.8  T
   4    -85.2485097 -0.848166E-07  0.458E-04    1.55      30.6  T
   5    -85.2485097 -0.932212E-08  0.160E-04    1.55      87.3  T
     SCC iter.                  ...        0 min,  0.016 sec
     gradient                   ...        0 min,  0.036 sec
 * total energy  :   -84.1039213 Eh     change       -0.3473838E-04 Eh
   gradient norm :     0.0020290 Eh/α   predicted    -0.2190165E-04 ( -36.95%)
   displ. norm   :     0.0966353 α      lambda       -0.5991486E-04
   maximum displ.:     0.0497521 α      in ANC's #2, #10, #12, ...

........................................................................
.............................. CYCLE   23 ..............................
........................................................................

 iter      E             dE          RMSdq      gap      omega  full diag
   1    -85.2493474 -0.852493E+02  0.269E-02    1.55       0.0  T
   2    -85.2493482 -0.794200E-06  0.158E-02    1.55       1.0  T
   3    -85.2493481  0.859027E-07  0.238E-03    1.55       5.9  T
   4    -85.2493482 -0.150574E-06  0.690E-04    1.55      20.3  T
   5    -85.2493483 -0.155655E-07  0.317E-04    1.55      44.2  T
     SCC iter.                  ...        0 min,  0.016 sec
     gradient                   ...        0 min,  0.037 sec
 * total energy  :   -84.1039607 Eh     change       -0.3936388E-04 Eh
   gradient norm :     0.0019543 Eh/α   predicted    -0.3023767E-04 ( -23.18%)
   displ. norm   :     0.1222228 α      lambda       -0.2563216E-04
   maximum displ.:     0.0694592 α      in ANC's #2, #10, #12, ...

........................................................................
.............................. CYCLE   24 ..............................
........................................................................

 iter      E             dE          RMSdq      gap      omega  full diag
   1    -85.2491485 -0.852491E+02  0.332E-02    1.54       0.0  T
   2    -85.2491489 -0.370467E-06  0.195E-02    1.54       1.0  T
   3    -85.2491489 -0.112907E-07  0.137E-03    1.55      10.2  T
   4    -85.2491489 -0.544623E-07  0.586E-04    1.54      23.9  T
   5    -85.2491489 -0.654657E-08  0.317E-04    1.54      44.2  T
     SCC iter.                  ...        0 min,  0.016 sec
     gradient                   ...        0 min,  0.037 sec
 * total energy  :   -84.1039868 Eh     change       -0.2604906E-04 Eh
   gradient norm :     0.0028661 Eh/α   predicted    -0.1297562E-04 ( -50.19%)
   displ. norm   :     0.0687369 α      lambda       -0.2090675E-04
   maximum displ.:     0.0425770 α      in ANC's #2, #3, #10, ...

........................................................................
.............................. CYCLE   25 ..............................
........................................................................

 iter      E             dE          RMSdq      gap      omega  full diag
   1    -85.2488634 -0.852489E+02  0.192E-02    1.54       0.0  T
   2    -85.2488635 -0.955569E-07  0.113E-02    1.54       1.2  T
   3    -85.2488635  0.220929E-07  0.108E-03    1.54      12.9  T
   4    -85.2488635 -0.473041E-07  0.335E-04    1.54      41.8  T
   5    -85.2488635 -0.174933E-08  0.180E-04    1.54      77.8  T
     SCC iter.                  ...        0 min,  0.043 sec
     gradient                   ...        0 min,  0.036 sec
 * total energy  :   -84.1040044 Eh     change       -0.1765859E-04 Eh
   gradient norm :     0.0019512 Eh/α   predicted    -0.1050348E-04 ( -40.52%)
   displ. norm   :     0.1811773 α      lambda       -0.3067086E-04
   maximum displ.:     0.1129624 α      in ANC's #2, #3, #6, ...

........................................................................
.............................. CYCLE   26 ..............................
........................................................................

 iter      E             dE          RMSdq      gap      omega  full diag
   1    -85.2481383 -0.852481E+02  0.511E-02    1.54       0.0  T
   2    -85.2481390 -0.745584E-06  0.300E-02    1.54       1.0  T
   3    -85.2481389  0.834640E-07  0.254E-03    1.54       5.5  T
   4    -85.2481392 -0.235856E-06  0.849E-04    1.54      16.5  T
   5    -85.2481392 -0.146771E-07  0.454E-04    1.54      30.9  T
     SCC iter.                  ...        0 min,  0.049 sec
     gradient                   ...        0 min,  0.036 sec
 * total energy  :   -84.1040319 Eh     change       -0.2753871E-04 Eh
   gradient norm :     0.0020389 Eh/α   predicted    -0.1556433E-04 ( -43.48%)
   displ. norm   :     0.0580725 α      lambda       -0.1235191E-04
   maximum displ.:     0.0380550 α      in ANC's #2, #3, #6, ...

........................................................................
.............................. CYCLE   27 ..............................
........................................................................

 iter      E             dE          RMSdq      gap      omega  full diag
   1    -85.2483757 -0.852484E+02  0.162E-02    1.54       0.0  T
   2    -85.2483758 -0.387369E-07  0.950E-03    1.54       1.5  T
   3    -85.2483758  0.164695E-08  0.605E-04    1.54      23.1  T
   4    -85.2483758 -0.152705E-07  0.241E-04    1.54      58.0  T
     SCC iter.                  ...        0 min,  0.013 sec
     gradient                   ...        0 min,  0.066 sec
 * total energy  :   -84.1040432 Eh     change       -0.1120548E-04 Eh
   gradient norm :     0.0018670 Eh/α   predicted    -0.6198539E-05 ( -44.68%)
   displ. norm   :     0.1965123 α      lambda       -0.3265288E-04
   maximum displ.:     0.1247010 α      in ANC's #2, #3, #6, ...

........................................................................
.............................. CYCLE   28 ..............................
........................................................................

 iter      E             dE          RMSdq      gap      omega  full diag
   1    -85.2492753 -0.852493E+02  0.536E-02    1.55       0.0  T
   2    -85.2492757 -0.427203E-06  0.314E-02    1.55       1.0  T
   3    -85.2492756  0.131086E-06  0.243E-03    1.55       5.8  T
   4    -85.2492759 -0.284105E-06  0.768E-04    1.55      18.2  T
   5    -85.2492759 -0.981063E-08  0.415E-04    1.55      33.7  T
     SCC iter.                  ...        0 min,  0.055 sec
     gradient                   ...        0 min,  0.037 sec
 * total energy  :   -84.1040795 Eh     change       -0.3634459E-04 Eh
   gradient norm :     0.0015395 Eh/α   predicted    -0.1660689E-04 ( -54.31%)
   displ. norm   :     0.2207494 α      lambda       -0.2451689E-04
   maximum displ.:     0.1423461 α      in ANC's #2, #3, #6, ...

........................................................................
.............................. CYCLE   29 ..............................
........................................................................

 iter      E             dE          RMSdq      gap      omega  full diag
   1    -85.2489187 -0.852489E+02  0.604E-02    1.55       0.0  T
   2    -85.2489191 -0.374820E-06  0.354E-02    1.55       1.0  T
   3    -85.2489191  0.604601E-07  0.233E-03    1.55       6.0  T
   4    -85.2489193 -0.236216E-06  0.771E-04    1.55      18.2  T
   5    -85.2489193 -0.476795E-08  0.401E-04    1.55      34.9  T
     SCC iter.                  ...        0 min,  0.016 sec
     gradient                   ...        0 min,  0.060 sec
 * total energy  :   -84.1041107 Eh     change       -0.3122792E-04 Eh
   gradient norm :     0.0020377 Eh/α   predicted    -0.1252873E-04 ( -59.88%)
   displ. norm   :     0.1623422 α      lambda       -0.2841747E-04
   maximum displ.:     0.1057085 α      in ANC's #2, #3, #6, ...

........................................................................
.............................. CYCLE   30 ..............................
........................................................................

 iter      E             dE          RMSdq      gap      omega  full diag
   1    -85.2489958 -0.852490E+02  0.449E-02    1.56       0.0  T
   2    -85.2489960 -0.183315E-06  0.263E-02    1.56       1.0  T
   3    -85.2489959  0.965163E-07  0.206E-03    1.56       6.8  T
   4    -85.2489961 -0.199975E-06  0.558E-04    1.56      25.1  T
   5    -85.2489961 -0.145350E-08  0.273E-04    1.56      51.3  T
     SCC iter.                  ...        0 min,  0.016 sec
     gradient                   ...        0 min,  0.066 sec
 * total energy  :   -84.1041369 Eh     change       -0.2617563E-04 Eh
   gradient norm :     0.0017823 Eh/α   predicted    -0.1458454E-04 ( -44.28%)
   displ. norm   :     0.3639306 α      lambda       -0.4312172E-04
   maximum displ.:     0.2384033 α      in ANC's #2, #3, #6, ...

........................................................................
.............................. CYCLE   31 ..............................
........................................................................

 iter      E             dE          RMSdq      gap      omega  full diag
   1    -85.2483341 -0.852483E+02  0.101E-01    1.57       0.0  T
   2    -85.2483351 -0.977827E-06  0.593E-02    1.57       1.0  T
   3    -85.2483342  0.893430E-06  0.540E-03    1.57       2.6  T
   4    -85.2483356 -0.146086E-05  0.125E-03    1.57      11.2  T
   5    -85.2483356 -0.638433E-08  0.629E-04    1.57      22.3  T
   6    -85.2483356 -0.363993E-08  0.178E-04    1.57      78.8  T
     SCC iter.                  ...        0 min,  0.019 sec
     gradient                   ...        0 min,  0.063 sec
 * total energy  :   -84.1041882 Eh     change       -0.5133862E-04 Eh
   gradient norm :     0.0016408 Eh/α   predicted    -0.2284291E-04 ( -55.51%)
   displ. norm   :     0.2891631 α      lambda       -0.2970444E-04
   maximum displ.:     0.1968028 α      in ANC's #2, #3, #6, ...

........................................................................
.............................. CYCLE   32 ..............................
........................................................................

 iter      E             dE          RMSdq      gap      omega  full diag
   1    -85.2483275 -0.852483E+02  0.798E-02    1.57       0.0  T
   2    -85.2483282 -0.644682E-06  0.468E-02    1.57       1.0  T
   3    -85.2483276  0.579465E-06  0.430E-03    1.58       3.3  T
   4    -85.2483285 -0.930369E-06  0.101E-03    1.58      13.9  T
   5    -85.2483285 -0.649003E-08  0.522E-04    1.58      26.8  T
   6    -85.2483285 -0.139644E-08  0.151E-04    1.58      92.9  T
     SCC iter.                  ...        0 min,  0.019 sec
     gradient                   ...        0 min,  0.064 sec
 * total energy  :   -84.1042239 Eh     change       -0.3566071E-04 Eh
   gradient norm :     0.0015985 Eh/α   predicted    -0.1540726E-04 ( -56.79%)
   displ. norm   :     0.2469832 α      lambda       -0.2678500E-04
   maximum displ.:     0.1755934 α      in ANC's #2, #3, #6, ...

........................................................................
.............................. CYCLE   33 ..............................
........................................................................

 iter      E             dE          RMSdq      gap      omega  full diag
   1    -85.2489162 -0.852489E+02  0.666E-02    1.58       0.0  T
   2    -85.2489167 -0.447851E-06  0.391E-02    1.58       1.0  T
   3    -85.2489163  0.420637E-06  0.349E-03    1.58       4.0  T
   4    -85.2489169 -0.656811E-06  0.819E-04    1.58      17.1  T
   5    -85.2489169 -0.454052E-08  0.427E-04    1.58      32.8  T
     SCC iter.                  ...        0 min,  0.016 sec
     gradient                   ...        0 min,  0.037 sec
 * total energy  :   -84.1042575 Eh     change       -0.3361496E-04 Eh
   gradient norm :     0.0015780 Eh/α   predicted    -0.1375769E-04 ( -59.07%)
   displ. norm   :     0.3216745 α      lambda       -0.3545177E-04
   maximum displ.:     0.2340702 α      in ANC's #2, #3, #6, ...

........................................................................
.............................. CYCLE   34 ..............................
........................................................................

 iter      E             dE          RMSdq      gap      omega  full diag
   1    -85.2490366 -0.852490E+02  0.836E-02    1.59       0.0  T
   2    -85.2490372 -0.662408E-06  0.491E-02    1.59       1.0  T
   3    -85.2490371  0.133282E-06  0.317E-03    1.59       4.4  T
   4    -85.2490376 -0.449032E-06  0.107E-03    1.59      13.1  T
   5    -85.2490376 -0.981305E-08  0.543E-04    1.59      25.8  T
   6    -85.2490376 -0.165855E-08  0.151E-04    1.59      92.8  T
     SCC iter.                  ...        0 min,  0.019 sec
     gradient                   ...        0 min,  0.036 sec
 * total energy  :   -84.1043030 Eh     change       -0.4552286E-04 Eh
   gradient norm :     0.0018109 Eh/α   predicted    -0.1854347E-04 ( -59.27%)
   displ. norm   :     0.3809308 α      lambda       -0.4516808E-04
   maximum displ.:     0.2807095 α      in ANC's #2, #3, #6, ...

........................................................................
.............................. CYCLE   35 ..............................
........................................................................

 iter      E             dE          RMSdq      gap      omega  full diag
   1    -85.2484039 -0.852484E+02  0.954E-02    1.59       0.0  T
   2    -85.2484049 -0.990384E-06  0.559E-02    1.59       1.0  T
   3    -85.2484048  0.735062E-07  0.317E-03    1.59       4.4  T
   4    -85.2484052 -0.445698E-06  0.124E-03    1.59      11.3  T
   5    -85.2484053 -0.254353E-07  0.645E-04    1.59      21.7  T
   6    -85.2484053 -0.180874E-08  0.196E-04    1.59      71.5  T
     SCC iter.                  ...        0 min,  0.043 sec
     gradient                   ...        0 min,  0.037 sec
 * total energy  :   -84.1043627 Eh     change       -0.5969472E-04 Eh
   gradient norm :     0.0020096 Eh/α   predicted    -0.2404147E-04 ( -59.73%)
   displ. norm   :     0.4552228 α      lambda       -0.8669540E-04
   maximum displ.:     0.3406390 α      in ANC's #2, #3, #6, ...

........................................................................
.............................. CYCLE   36 ..............................
........................................................................

 iter      E             dE          RMSdq      gap      omega  full diag
   1    -85.2482636 -0.852483E+02  0.110E-01    1.59       0.0  T
   2    -85.2482646 -0.100913E-05  0.644E-02    1.59       1.0  T
   3    -85.2482648 -0.181142E-06  0.290E-03    1.59       4.8  T
   4    -85.2482651 -0.287228E-06  0.137E-03    1.59      10.2  T
   5    -85.2482651 -0.196768E-07  0.656E-04    1.59      21.3  T
   6    -85.2482651 -0.366011E-08  0.174E-04    1.59      80.4  T
     SCC iter.                  ...        0 min,  0.052 sec
     gradient                   ...        0 min,  0.037 sec
 * total energy  :   -84.1044366 Eh     change       -0.7383488E-04 Eh
   gradient norm :     0.0019776 Eh/α   predicted    -0.5233220E-04 ( -29.12%)
   displ. norm   :     0.8519936 α      lambda       -0.9612674E-04
   maximum displ.:     0.6425052 α      in ANC's #2, #3, #6, ...

........................................................................
.............................. CYCLE   37 ..............................
........................................................................

 iter      E             dE          RMSdq      gap      omega  full diag
   1    -85.2441810 -0.852442E+02  0.203E-01    1.58       0.0  T
   2    -85.2441852 -0.424381E-05  0.119E-01    1.58       1.0  T
   3    -85.2441855 -0.313308E-06  0.596E-03    1.58       2.3  T
   4    -85.2441869 -0.134013E-05  0.261E-03    1.58       5.4  T
   5    -85.2441869 -0.807971E-07  0.135E-03    1.58      10.4  T
   6    -85.2441870 -0.108519E-07  0.453E-04    1.58      30.9  T
   7    -85.2441870 -0.519340E-08  0.168E-04    1.58      83.1  T
     SCC iter.                  ...        0 min,  0.049 sec
     gradient                   ...        0 min,  0.037 sec
 * total energy  :   -84.1045079 Eh     change       -0.7137812E-04 Eh
   gradient norm :     0.0059210 Eh/α   predicted    -0.6357123E-04 ( -10.94%)
   displ. norm   :     0.1893922 α      lambda       -0.1274800E-03
   maximum displ.:     0.1203819 α      in ANC's #2, #7, #3, ...

........................................................................
.............................. CYCLE   38 ..............................
........................................................................

 iter      E             dE          RMSdq      gap      omega  full diag
   1    -85.2506173 -0.852506E+02  0.397E-02    1.57       0.0  T
   2    -85.2506193 -0.202831E-05  0.236E-02    1.58       1.0  T
   3    -85.2506181  0.115094E-05  0.595E-03    1.58       2.4  T
   4    -85.2506197 -0.154054E-05  0.104E-03    1.58      13.5  T
   5    -85.2506197 -0.195358E-07  0.561E-04    1.58      24.9  T
   6    -85.2506197 -0.374980E-08  0.275E-04    1.58      50.9  T
     SCC iter.                  ...        0 min,  0.052 sec
     gradient                   ...        0 min,  0.036 sec
 * total energy  :   -84.1045533 Eh     change       -0.4536111E-04 Eh
   gradient norm :     0.0038704 Eh/α   predicted    -0.6602808E-04 (  45.56%)
   displ. norm   :     0.1580307 α      lambda       -0.5574157E-04
   maximum displ.:     0.1195163 α      in ANC's #2, #3, #6, ...

........................................................................
.............................. CYCLE   39 ..............................
........................................................................

 iter      E             dE          RMSdq      gap      omega  full diag
   1    -85.2493251 -0.852493E+02  0.409E-02    1.58       0.0  T
   2    -85.2493256 -0.559039E-06  0.240E-02    1.58       1.0  T
   3    -85.2493255  0.167880E-06  0.251E-03    1.58       5.6  T
   4    -85.2493257 -0.272357E-06  0.743E-04    1.58      18.9  T
   5    -85.2493257 -0.159113E-07  0.372E-04    1.58      37.6  T
     SCC iter.                  ...        0 min,  0.055 sec
     gradient                   ...        0 min,  0.036 sec
 * total energy  :   -84.1045917 Eh     change       -0.3838740E-04 Eh
   gradient norm :     0.0020037 Eh/α   predicted    -0.2856770E-04 ( -25.58%)
   displ. norm   :     0.3268657 α      lambda       -0.4517481E-04
   maximum displ.:     0.2524171 α      in ANC's #2, #3, #6, ...

........................................................................
.............................. CYCLE   40 ..............................
........................................................................

 iter      E             dE          RMSdq      gap      omega  full diag
   1    -85.2472542 -0.852473E+02  0.782E-02    1.58       0.0  T
   2    -85.2472552 -0.101467E-05  0.459E-02    1.58       1.0  T
   3    -85.2472546  0.530816E-06  0.424E-03    1.58       3.3  T
   4    -85.2472555 -0.878182E-06  0.112E-03    1.58      12.6  T
   5    -85.2472555 -0.166858E-07  0.632E-04    1.58      22.1  T
   6    -85.2472555 -0.277598E-08  0.237E-04    1.58      59.1  T
     SCC iter.                  ...        0 min,  0.052 sec
     gradient                   ...        0 min,  0.037 sec
 * total energy  :   -84.1046182 Eh     change       -0.2651746E-04 Eh
   gradient norm :     0.0035737 Eh/α   predicted    -0.2500382E-04 (  -5.71%)
   displ. norm   :     0.1460979 α      lambda       -0.3287792E-04
   maximum displ.:     0.1119333 α      in ANC's #2, #3, #10, ...

........................................................................
.............................. CYCLE   41 ..............................
........................................................................

 iter      E             dE          RMSdq      gap      omega  full diag
   1    -85.2484964 -0.852485E+02  0.331E-02    1.58       0.0  T
   2    -85.2484966 -0.237870E-06  0.194E-02    1.58       1.0  T
   3    -85.2484963  0.253744E-06  0.249E-03    1.58       5.6  T
   4    -85.2484967 -0.341699E-06  0.531E-04    1.58      26.4  T
   5    -85.2484967 -0.286647E-08  0.284E-04    1.58      49.4  T
     SCC iter.                  ...        0 min,  0.049 sec
     gradient                   ...        0 min,  0.036 sec
 * total energy  :   -84.1046424 Eh     change       -0.2413657E-04 Eh
   gradient norm :     0.0031727 Eh/α   predicted    -0.1679180E-04 ( -30.43%)
   displ. norm   :     0.2494760 α      lambda       -0.4418099E-04
   maximum displ.:     0.1919031 α      in ANC's #2, #3, #10, ...

........................................................................
.............................. CYCLE   42 ..............................
........................................................................

 iter      E             dE          RMSdq      gap      omega  full diag
   1    -85.2499323 -0.852499E+02  0.544E-02    1.58       0.0  T
   2    -85.2499331 -0.771713E-06  0.320E-02    1.58       1.0  T
   3    -85.2499328  0.302680E-06  0.315E-03    1.58       4.4  T
   4    -85.2499333 -0.481982E-06  0.973E-04    1.58      14.4  T
   5    -85.2499333 -0.204751E-07  0.479E-04    1.58      29.2  T
     SCC iter.                  ...        0 min,  0.043 sec
     gradient                   ...        0 min,  0.036 sec
 * total energy  :   -84.1046690 Eh     change       -0.2662723E-04 Eh
   gradient norm :     0.0020879 Eh/α   predicted    -0.2346608E-04 ( -11.87%)
   displ. norm   :     0.2931409 α      lambda       -0.2757169E-04
   maximum displ.:     0.2331107 α      in ANC's #2, #3, #12, ...
 * RMSD in coord.:     0.6260786 α      energy gain  -0.8611084E-03 Eh

generating ANC from exact Hessian ...
Using Lindh-Hessian (1995)
 Shifting diagonal of input Hessian by    9.8223233735564245E-003
 Lowest  eigenvalues of input Hessian
    0.000000    0.000000    0.000000    0.000000    0.000000    0.000000
    0.010000    0.010095    0.010266    0.010534    0.010820    0.011148
    0.012622    0.013376    0.013981    0.015567    0.016499    0.017852
 Highest eigenvalues
    2.077013    2.103670    2.141091    2.187241    2.374826    2.550820


........................................................................
.............................. CYCLE   43 ..............................
........................................................................

 iter      E             dE          RMSdq      gap      omega  full diag
   1    -85.2487680 -0.852488E+02  0.674E-02    1.58       0.0  T
   2    -85.2487689 -0.917208E-06  0.396E-02    1.58       1.0  T
   3    -85.2487686  0.306534E-06  0.324E-03    1.58       4.3  T
   4    -85.2487691 -0.533772E-06  0.108E-03    1.58      13.0  T
   5    -85.2487692 -0.260262E-07  0.553E-04    1.58      25.3  T
   6    -85.2487692 -0.145296E-08  0.227E-04    1.58      61.6  T
     SCC iter.                  ...        0 min,  0.019 sec
     gradient                   ...        0 min,  0.076 sec
 * total energy  :   -84.1046837 Eh     change       -0.1476652E-04 Eh
   gradient norm :     0.0025256 Eh/α   predicted     0.0000000E+00 (-100.00%)
   displ. norm   :     0.0256478 α      lambda       -0.2083368E-04
   maximum displ.:     0.0121392 α      in ANC's #9, #12, #10, ...

........................................................................
.............................. CYCLE   44 ..............................
........................................................................

 iter      E             dE          RMSdq      gap      omega  full diag
   1    -85.2502451 -0.852502E+02  0.842E-03    1.58       0.0  T
   2    -85.2502452 -0.141444E-06  0.500E-03    1.58       2.8  T
   3    -85.2502452  0.652102E-07  0.141E-03    1.58      10.0  T
   4    -85.2502452 -0.878330E-07  0.270E-04    1.58      51.8  T
   5    -85.2502452 -0.211026E-08  0.134E-04    1.58     104.6  T
     SCC iter.                  ...        0 min,  0.016 sec
     gradient                   ...        0 min,  0.037 sec
 * total energy  :   -84.1046993 Eh     change       -0.1559590E-04 Eh
   gradient norm :     0.0008989 Eh/α   predicted    -0.1062113E-04 ( -31.90%)
   displ. norm   :     0.0718234 α      lambda       -0.1730996E-04
   maximum displ.:     0.0314136 α      in ANC's #9, #12, #7, ...

........................................................................
.............................. CYCLE   45 ..............................
........................................................................

 iter      E             dE          RMSdq      gap      omega  full diag
   1    -85.2515718 -0.852516E+02  0.189E-02    1.59       0.0  T
   2    -85.2515720 -0.247978E-06  0.111E-02    1.59       1.3  T
   3    -85.2515719  0.143213E-06  0.199E-03    1.59       7.0  T
   4    -85.2515721 -0.194544E-06  0.462E-04    1.59      30.3  T
   5    -85.2515721 -0.477222E-08  0.241E-04    1.59      58.1  T
     SCC iter.                  ...        0 min,  0.016 sec
     gradient                   ...        0 min,  0.036 sec
 * total energy  :   -84.1047132 Eh     change       -0.1385565E-04 Eh
   gradient norm :     0.0016244 Eh/α   predicted    -0.8675319E-05 ( -37.39%)
   displ. norm   :     0.0451493 α      lambda       -0.7222236E-05
   maximum displ.:     0.0235295 α      in ANC's #7, #2, #12, ...

........................................................................
.............................. CYCLE   46 ..............................
........................................................................

 iter      E             dE          RMSdq      gap      omega  full diag
   1    -85.2508486 -0.852508E+02  0.114E-02    1.59       0.0  T
   2    -85.2508486 -0.534986E-07  0.669E-03    1.59       2.1  T
   3    -85.2508486  0.195627E-07  0.821E-04    1.59      17.1  T
   4    -85.2508486 -0.322034E-07  0.252E-04    1.59      55.6  T
     SCC iter.                  ...        0 min,  0.040 sec
     gradient                   ...        0 min,  0.036 sec
 * total energy  :   -84.1047223 Eh     change       -0.9126299E-05 Eh
   gradient norm :     0.0010026 Eh/α   predicted    -0.3666894E-05 ( -59.82%)
   displ. norm   :     0.1165470 α      lambda       -0.1408825E-04
   maximum displ.:     0.0676119 α      in ANC's #7, #2, #12, ...

........................................................................
.............................. CYCLE   47 ..............................
........................................................................

 iter      E             dE          RMSdq      gap      omega  full diag
   1    -85.2495789 -0.852496E+02  0.301E-02    1.59       0.0  T
   2    -85.2495792 -0.251231E-06  0.176E-02    1.59       1.0  T
   3    -85.2495791  0.124029E-06  0.199E-03    1.59       7.0  T
   4    -85.2495793 -0.203457E-06  0.600E-04    1.59      23.3  T
   5    -85.2495793 -0.614101E-08  0.327E-04    1.59      42.9  T
     SCC iter.                  ...        0 min,  0.016 sec
     gradient                   ...        0 min,  0.037 sec
 * total energy  :   -84.1047364 Eh     change       -0.1409323E-04 Eh
   gradient norm :     0.0009020 Eh/α   predicted    -0.7090960E-05 ( -49.69%)
   displ. norm   :     0.0753330 α      lambda       -0.6086390E-05
   maximum displ.:     0.0443705 α      in ANC's #7, #2, #3, ...

........................................................................
.............................. CYCLE   48 ..............................
........................................................................

 iter      E             dE          RMSdq      gap      omega  full diag
   1    -85.2493988 -0.852494E+02  0.197E-02    1.60       0.0  T
   2    -85.2493989 -0.720348E-07  0.115E-02    1.60       1.2  T
   3    -85.2493989  0.217179E-07  0.101E-03    1.60      13.9  T
   4    -85.2493989 -0.479220E-07  0.348E-04    1.60      40.3  T
   5    -85.2493989 -0.186424E-08  0.190E-04    1.60      73.6  T
     SCC iter.                  ...        0 min,  0.016 sec
     gradient                   ...        0 min,  0.037 sec
 * total energy  :   -84.1047439 Eh     change       -0.7493964E-05 Eh
   gradient norm :     0.0010435 Eh/α   predicted    -0.3054422E-05 ( -59.24%)
   displ. norm   :     0.1091008 α      lambda       -0.9222595E-05
   maximum displ.:     0.0619831 α      in ANC's #7, #2, #3, ...

........................................................................
.............................. CYCLE   49 ..............................
........................................................................

 iter      E             dE          RMSdq      gap      omega  full diag
   1    -85.2496937 -0.852497E+02  0.282E-02    1.60       0.0  T
   2    -85.2496939 -0.106212E-06  0.165E-02    1.60       1.0  T
   3    -85.2496939 -0.121862E-07  0.951E-04    1.60      14.7  T
   4    -85.2496939 -0.313306E-07  0.442E-04    1.60      31.7  T
     SCC iter.                  ...        0 min,  0.013 sec
     gradient                   ...        0 min,  0.058 sec
 * total energy  :   -84.1047541 Eh     change       -0.1024052E-04 Eh
   gradient norm :     0.0008671 Eh/α   predicted    -0.4638850E-05 ( -54.70%)
   displ. norm   :     0.1226201 α      lambda       -0.7887724E-05
   maximum displ.:     0.0659693 α      in ANC's #7, #2, #3, ...

........................................................................
.............................. CYCLE   50 ..............................
........................................................................

 iter      E             dE          RMSdq      gap      omega  full diag
   1    -85.2502739 -0.852503E+02  0.325E-02    1.60       0.0  T
   2    -85.2502741 -0.120727E-06  0.191E-02    1.60       1.0  T
   3    -85.2502741 -0.113187E-07  0.103E-03    1.60      13.6  T
   4    -85.2502741 -0.403936E-07  0.463E-04    1.60      30.2  T
   5    -85.2502741 -0.192099E-08  0.256E-04    1.60      54.6  T
     SCC iter.                  ...        0 min,  0.016 sec
     gradient                   ...        0 min,  0.072 sec
 * total energy  :   -84.1047614 Eh     change       -0.7265252E-05 Eh
   gradient norm :     0.0006571 Eh/α   predicted    -0.3972466E-05 ( -45.32%)
   displ. norm   :     0.0654858 α      lambda       -0.3147856E-05
   maximum displ.:     0.0389437 α      in ANC's #2, #7, #3, ...

........................................................................
.............................. CYCLE   51 ..............................
........................................................................

 iter      E             dE          RMSdq      gap      omega  full diag
   1    -85.2505508 -0.852506E+02  0.183E-02    1.60       0.0  T
   2    -85.2505508 -0.314267E-07  0.108E-02    1.60       1.3  T
   3    -85.2505508 -0.405041E-08  0.552E-04    1.60      25.4  T
   4    -85.2505509 -0.101054E-07  0.237E-04    1.60      59.1  T
     SCC iter.                  ...        0 min,  0.058 sec
     gradient                   ...        0 min,  0.036 sec
 * total energy  :   -84.1047650 Eh     change       -0.3626343E-05 Eh
   gradient norm :     0.0003911 Eh/α   predicted    -0.1579231E-05 ( -56.45%)
   displ. norm   :     0.0485443 α      lambda       -0.2881966E-05
   maximum displ.:     0.0308049 α      in ANC's #2, #3, #4, ...

   *** GEOMETRY OPTIMIZATION CONVERGED AFTER 51 ITERATIONS ***

------------------------------------------------------------------------
 total energy gain   :        -0.0120826 Eh       -7.5820 kcal/mol
 total RMSD          :         1.1280095 a0        0.5969 Å
 total power (kW/mol):        -0.6220181 (step)   -6.3710 (real)
------------------------------------------------------------------------

 ANCopt (total)                0 d,  0 h,  0 min,  4.979 sec
 optimizer setup                ...        0 min,  0.000 sec (  0.002%)
 model hessian                  ...        0 min,  0.145 sec (  2.914%)
 ANC generation                 ...        0 min,  0.040 sec (  0.794%)
 coordinate transformation      ...        0 min,  0.000 sec (  0.010%)
 single point calculation       ...        0 min,  4.779 sec ( 95.981%)
 optimization log               ...        0 min,  0.009 sec (  0.173%)
 hessian update                 ...        0 min,  0.001 sec (  0.017%)
 rational function              ...        0 min,  0.004 sec (  0.077%)

================
 final structure:
================
51
 xtb: 6.7.1 (edcfbbe)
F            8.03628986927247        0.93982853831796       -2.96659494808183
C            7.06195783780631        0.57749490150161       -2.11072455444440
C            6.95530832416898        1.22970920237932       -0.89487875285327
C            5.95408395638153        0.84303965009941       -0.02669271736767
C            5.05689275864900       -0.16903668025184       -0.36859351081617
C            5.19521916973986       -0.81177404331847       -1.59742560860111
C            6.20014347529678       -0.44379932545808       -2.47178161791030
C            4.01647094916047       -0.52750123536443        0.63760133171398
C            2.70313268963154       -1.07082295848941        0.09877823038059
C            1.72125146947116       -1.38750782474310        1.23106743028023
C            1.15817201854042       -0.10573223819375        1.86073360882647
N            0.57460793081443        0.81299067909900        0.89998153391157
C            1.53326068705369        1.13996992527839       -0.13182348508366
C            2.05662200940000       -0.08863819696149       -0.88881046006498
C           -0.73307589057624        0.41645102525885        0.41898069319892
C           -1.81188136811646        0.89745267179136        1.39979231637699
N           -3.12647254252861        0.40585654839437        1.01521833637643
C           -3.46160698587768       -0.85910746934043        1.45812780747518
N           -4.70315501391162       -1.30942944802682        1.08422498383158
C           -5.60005855076035       -0.60019698849442        0.32276679129491
C           -6.85411401968443       -1.11631101466970        0.00059962411931
C           -7.72373787213368       -0.36873836377055       -0.76611511783912
C           -7.36131922649943        0.89419276141043       -1.22379892001015
C           -6.12099857341937        1.40745031117761       -0.91252298118912
C           -5.22930534075798        0.66714338031267       -0.13666277563055
C           -3.90894062234428        1.21223977270247        0.19633947828123
O           -3.50306262418930        2.28611096468906       -0.19158843663105
O           -2.72441476079056       -1.53980927378605        2.13352665891317
O            4.23416375740713       -0.38464012716072        1.81885798716552
H            7.64951374451060        2.01565206488288       -0.64346723405236
H            5.84763408884019        1.32186286091189        0.93496237417338
H            4.53601389622980       -1.62041085179975       -1.87214507521152
H            6.32534358095543       -0.93742927866835       -3.42262654489834
H            2.94668763735873       -2.00220604097841       -0.42822787200326
H            0.90406748812626       -1.99433051264289        0.83582756042221
H            2.22833820153811       -1.96434869927271        2.00493964293096
H            1.96457452554974        0.42456284597134        2.37225628338857
H            0.40200566045748       -0.37150702630166        2.59993339989526
H            2.37504289044389        1.64554735382261        0.35312174360615
H            1.07269693752463        1.84325300329650       -0.82964767359401
H            2.77141323004153        0.22660591961750       -1.65027683438639
H            1.22228222102167       -0.58579528734747       -1.38906166522689
H           -0.91848873754505        0.88662726238204       -0.54975317210998
H           -0.83686763747861       -0.67254237770912        0.29994978412332
H           -1.59705593157110        0.52623513429835        2.40193831955810
H           -1.84671851646352        1.98677137950364        1.40332204478953
H           -4.95300376366432       -2.23069100762169        1.41828874664443
H           -7.13380879707548       -2.09689583750742        0.35639967382944
H           -8.69517794380500       -0.77039889966552       -1.01192799161309
H           -8.05223599649823        1.46823905929526       -1.82096542924330
H           -5.80759028969624        2.38261379118879       -1.25182300661535

 Bond Distances (Angstroems)
 ---------------------------
F1-C2=1.3465         C2-F1=1.3465         C2-C3=1.3838         C2-C7=1.3842         C3-C2=1.3838         C3-C4=1.3805         
C3-H30=1.0783        C4-C3=1.3805         C4-C5=1.3950         C4-H31=1.0795        C5-C4=1.3950         C5-C6=1.3937         
C5-C8=1.4911         C6-C5=1.3937         C6-C7=1.3819         C6-H32=1.0788        C7-C2=1.3842         C7-C6=1.3819         
C7-H33=1.0786        C8-C5=1.4911         C8-C9=1.5200         C8-O29=1.2096        C9-C8=1.5200         C9-C10=1.5318        
C9-C14=1.5356        C9-H34=1.0975        C10-C9=1.5318        C10-C11=1.5351       C10-H35=1.0919       C10-H36=1.0903       
C11-C10=1.5351       C11-N12=1.4518       C11-H37=1.0923       C11-H38=1.0903       N12-C11=1.4518       N12-C13=1.4459       
N12-C15=1.4487       C13-N12=1.4459       C13-C14=1.5351       C13-H39=1.0952       C13-H40=1.0926       C14-C9=1.5356        
C14-C13=1.5351       C14-H41=1.0909       C14-H42=1.0925       C15-N12=1.4487       C15-C16=1.5353       C15-H43=1.0927       
C15-H44=1.1004       C16-C15=1.5353       C16-N17=1.4552       C16-H45=1.0901       C16-H46=1.0899       N17-C16=1.4552       
N17-C18=1.3815       N17-C26=1.3904       C18-N17=1.3815       C18-N19=1.3726       C18-O28=1.2095       N19-C18=1.3726       
N19-C20=1.3738       N19-H47=1.0113       C20-N19=1.3738       C20-C21=1.3939       C20-C25=1.3981       C21-C20=1.3939       
C21-C22=1.3795       C21-H48=1.0800       C22-C21=1.3795       C22-C23=1.3913       C22-H49=1.0796       C23-C22=1.3913       
C23-C24=1.3779       C23-H50=1.0787       C24-C23=1.3779       C24-C25=1.3947       C24-H51=1.0790       C25-C20=1.3981       
C25-C24=1.3947       C25-C26=1.4668       C26-N17=1.3904       C26-C25=1.4668       C26-O27=1.2118       O27-C26=1.2118       
O28-C18=1.2095       O29-C8=1.2096        H30-C3=1.0783        H31-C4=1.0795        H32-C6=1.0788        H33-C7=1.0786        
H34-C9=1.0975        H35-C10=1.0919       H36-C10=1.0903       H37-C11=1.0923       H38-C11=1.0903       H39-C13=1.0952       
H40-C13=1.0926       H41-C14=1.0909       H42-C14=1.0925       H43-C15=1.0927       H44-C15=1.1004       H45-C16=1.0901       
H46-C16=1.0899       H47-N19=1.0113       H48-C21=1.0800       H49-C22=1.0796       H50-C23=1.0787       H51-C24=1.0790       
 C  H  Rav=1.0876 sigma=0.0071  Rmin=1.0783  Rmax=1.1004    21
 C  C  Rav=1.4403 sigma=0.0662  Rmin=1.3779  Rmax=1.5356    20
 N  H  Rav=1.0113 sigma=0.0000  Rmin=1.0113  Rmax=1.0113     1
 N  C  Rav=1.4150 sigma=0.0359  Rmin=1.3726  Rmax=1.4552     8
 O  C  Rav=1.2103 sigma=0.0010  Rmin=1.2095  Rmax=1.2118     3
 F  C  Rav=1.3465 sigma=0.0000  Rmin=1.3465  Rmax=1.3465     1

 selected bond angles (degree)
 --------------------
C3-C2-F1=119.17                C7-C2-F1=118.90                C7-C2-C3=121.93                C4-C3-C2=118.45                
H30-C3-C2=119.92               H30-C3-C4=121.63               C5-C4-C3=121.03                H31-C4-C3=120.50               
H31-C4-C5=118.47               C6-C5-C4=119.13                C8-C5-C4=117.24                C8-C5-C6=123.60                
C7-C6-C5=120.48                H32-C6-C5=120.63               H32-C6-C7=118.87               C6-C7-C2=118.96                
H33-C7-C2=119.69               H33-C7-C6=121.35               C9-C8-C5=116.72                O29-C8-C5=120.33               
O29-C8-C9=122.95               C10-C9-C8=111.45               C14-C9-C8=111.29               C14-C9-C10=109.74              
H34-C9-C8=106.37               H34-C9-C10=108.77              H34-C9-C14=109.11              C11-C10-C9=111.45              
H35-C10-C9=109.09              H35-C10-C11=109.76             H36-C10-C9=109.63              H36-C10-C11=108.74             
H36-C10-H35=108.12             

 selected dihedral angles (degree)
 ---------------------------------
C4-C3-C2-F1=180.23            C4-C3-C2-C7=359.86            H30-C3-C2-F1=359.87           H30-C3-C2-C7=179.49           
C5-C4-C3-C2=359.18            C5-C4-C3-H30=179.55           H31-C4-C3-C2=179.31           H31-C4-C3-H30=359.68          
C6-C5-C4-C3=  1.19            C6-C5-C4-H31=181.05           C8-C5-C4-C3=179.46            C8-C5-C4-H31=359.32           
C7-C6-C5-C4=359.41            C7-C6-C5-C8=181.26            H32-C6-C5-C4=177.89           H32-C6-C5-C8=359.74           
C6-C7-C2-F1=180.35            C6-C7-C2-C3=  0.72            H33-C7-C2-F1=  0.54           H33-C7-C2-C3=180.91           
C2-C7-C6-C5=359.66            C2-C7-C6-H32=181.15           H33-C7-C6-C5=179.46           H33-C7-C6-H32=  0.96          
C9-C8-C5-C4=151.22            C9-C8-C5-C6=329.41            O29-C8-C5-C4=331.12           O29-C8-C5-C6=149.31           
C10-C9-C8-C5=180.46           C10-C9-C8-O29=  0.57          C14-C9-C8-C5=303.33           C14-C9-C8-O29=123.43          
H34-C9-C8-C5= 62.06           H34-C9-C8-O29=242.17          C11-C10-C9-C8= 72.49          C11-C10-C9-C14=308.74         
C11-C10-C9-H34=189.44         H35-C10-C9-C8=193.84          H35-C10-C9-C14= 70.09         H35-C10-C9-H34=310.79         
H36-C10-C9-C8=312.05          H36-C10-C9-C14=188.31         H36-C10-C9-H34= 69.01         
           -------------------------------------------------
          |                Final Singlepoint                |
           -------------------------------------------------

          ...................................................
          :                      SETUP                      :
          :.................................................:
          :  # basis functions                 138          :
          :  # atomic orbitals                 138          :
          :  # shells                           80          :
          :  # electrons                       150          :
          :  max. iterations                   250          :
          :  Hamiltonian                  GFN2-xTB          :
[...]
     Phys. Chem. Chem. Phys., 2023, 25, 17860-17868. DOI: 10.1039/D3CP02178E
   
   for DIPRO refer to:
   * J. Kohn, N. Gildemeister, S. Grimme, D. Fazzi, A. Hansen,
     J. Chem. Phys., 2023, just accepted.
   
   for PTB refer to:
   * S. Grimme, M. Mueller, A. Hansen, J. Chem. Phys., 2023, 158, 124111.
     DOI: 10.1063/5.0137838
   
   with help from (in alphabetical order)
   P. Atkinson, C. Bannwarth, F. Bohle, G. Brandenburg, E. Caldeweyher
   M. Checinski, S. Dohm, S. Ehlert, S. Ehrlich, I. Gerasimov, C. Hölzer
   A. Katbashev, J. Kohn, J. Koopman, C. Lavigne, S. Lehtola, F. März, M. Müller,
   F. Musil, H. Neugebauer, J. Pisarek, C. Plett, P. Pracht, F. Pultar,
   J. Seibert, P. Shushkov, S. Spicher, M. Stahn, M. Steiner, T. Strunk,
   J. Stückrath, T. Rose, and J. Unsleber
   
 * started run on 2025/05/15 at 16:35:02.498     
   ID    Z sym.   atoms
    1    9 F      1
    2    6 C      2-11, 13-16, 18, 20-26
    3    7 N      12, 17, 19
    4    8 O      27-29
    5    1 H      30-51

           -------------------------------------------------
          |                Calculation Setup                |
           -------------------------------------------------

          program call               : xtb /rds/general/user/hgt20/home/callum/QDESCP/Ketanserin_rdkit_conf_14/Ketanserin_rdkit_conf_14.xyz --acc 1 --gfn 2 --chrg 0 --uhf 2 --etemp 300 --input /rds/general/user/hgt20/home/callum/QDESCP/Ketanserin_rdkit_conf_14/Ketanserin_rdkit_conf_14_xtb.inp -P 1
          hostname                   : login-c
          coordinate file            : /rds/general/user/hgt20/home/callum/QDESCP/Ketanserin_rdkit_conf_14/Ketanserin_rdkit_conf_14.xyz
          omp threads                :                     1


           -------------------------------------------------
          |                 G F N 2 - x T B                 |
           -------------------------------------------------

        Reference                      10.1021/acs.jctc.8b01176
      * Hamiltonian:
        H0-scaling (s, p, d)           1.850000    2.230000    2.230000
        zeta-weighting                 0.500000
      * Dispersion:
        s8                             2.700000
        a1                             0.520000
        a2                             5.000000
        s9                             5.000000
      * Repulsion:
        kExp                           1.500000    1.000000
        rExp                           1.000000
      * Coulomb:
        alpha                          2.000000
        third order                    shell-resolved
        anisotropic                    true
        a3                             3.000000
        a5                             4.000000
        cn-shift                       1.200000
        cn-exp                         4.000000
        max-rad                        5.000000


          ...................................................
          :                      SETUP                      :
          :.................................................:
          :  # basis functions                 138          :
          :  # atomic orbitals                 138          :
          :  # shells                           80          :
          :  # electrons                       150          :
          :  max. iterations                   250          :
          :  Hamiltonian                  GFN2-xTB          :
          :  restarted?                      false          :
          :  GBSA solvation                  false          :
          :  PC potential                    false          :
          :  electronic temp.          300.0000000     K    :
          :  accuracy                    1.0000000          :
          :  -> integral cutoff          0.2500000E+02      :
          :  -> integral neglect         0.1000000E-07      :
          :  -> SCF convergence          0.1000000E-05 Eh   :
          :  -> wf. convergence          0.1000000E-03 e    :
          :  Broyden damping             0.4000000          :
          :  net charge                          0          :
          :  unpaired electrons                  2          :
          ...................................................

 iter      E             dE          RMSdq      gap      omega  full diag
   1    -84.8564084 -0.848564E+02  0.393E+00    0.08       0.0  T
   2    -84.7815208  0.748876E-01  0.293E+00    0.64       1.0  T
   3    -84.7427332  0.387876E-01  0.236E+00    1.83       1.0  T
   4    -84.9424477 -0.199715E+00  0.178E+00    0.68       1.0  T
   5    -84.8664152  0.760325E-01  0.142E+00    0.88       1.0  T
   6    -84.9614221 -0.950068E-01  0.111E+00    0.30       1.0  T
   7    -85.0393228 -0.779008E-01  0.111E+00    0.63       1.0  T
   8    -85.0361226  0.320025E-02  0.875E-01    0.51       1.0  T
   9    -85.0840282 -0.479056E-01  0.831E-01    0.26       1.0  T
  10    -85.0906048 -0.657661E-02  0.548E-01    0.04       1.0  T
  11    -85.0892184  0.138639E-02  0.708E-01    0.35       1.0  T
  12    -85.1392539 -0.500355E-01  0.353E-01    0.13       1.0  T
  13    -85.1383524  0.901430E-03  0.342E-01    0.14       1.0  T
  14    -85.1436615 -0.530911E-02  0.164E-01    0.05       1.0  T
  15    -85.1447892 -0.112770E-02  0.128E-01    0.08       1.0  T
  16    -85.1420386  0.275063E-02  0.146E-01    0.04       1.0  T
  17    -85.1455484 -0.350979E-02  0.326E-02    0.06       1.0  T
  18    -85.1455097  0.387407E-04  0.270E-02    0.06       1.0  T
  19    -85.1455849 -0.751766E-04  0.134E-02    0.05       1.0  T
  20    -85.1455926 -0.778378E-05  0.122E-02    0.06       1.1  T
  21    -85.1456115 -0.188806E-04  0.563E-03    0.06       2.5  T
  22    -85.1456160 -0.445095E-05  0.210E-03    0.06       6.7  T
  23    -85.1456166 -0.619996E-06  0.367E-04    0.06      38.2  T
  24    -85.1456166 -0.155777E-07  0.202E-04    0.06      69.5  T

   *** convergence criteria satisfied after 24 iterations ***

         #    Occupation            Energy/Eh            Energy/eV
      -------------------------------------------------------------
         1        2.0000           -0.8042904             -21.8859
       ...           ...                  ...                  ...
        70        2.0000           -0.4130104             -11.2386
        71        1.9999           -0.4046824             -11.0120
        72        1.9998           -0.4041132             -10.9965
        73        1.9877           -0.4003423             -10.8939
        74        1.9421           -0.3988211             -10.8525
        75        1.0706           -0.3937226             -10.7137
        76        0.7521           -0.2714722              -7.3871 (HOMO)
        77        0.2479           -0.2693632              -7.3297 (LUMO)
        78                         -0.2449586              -6.6657
        79                         -0.2312820              -6.2935
        80                         -0.2120702              -5.7707
        81                         -0.1975250              -5.3749
       ...                                ...                  ...
       138                          0.7094177              19.3042
      -------------------------------------------------------------
                  HL-Gap            0.0021090 Eh            0.0574 eV
             Fermi-level           -0.3332948 Eh           -9.0694 eV

 transition dipole moment (au) for excitation:          75          76
     X       Y       Z   
  -0.1633  -0.0093   0.0159  total (au/Debye):    0.164   0.418
 dE (eV)             :    3.327
 oscillator strength :  0.31123E-02

 SCC (total)                   0 d,  0 h,  0 min,  0.215 sec
 SCC setup                      ...        0 min,  0.000 sec (  0.230%)
 Dispersion                     ...        0 min,  0.001 sec (  0.337%)
 classical contributions        ...        0 min,  0.000 sec (  0.098%)
 integral evaluation            ...        0 min,  0.010 sec (  4.830%)
 iterations                     ...        0 min,  0.113 sec ( 52.582%)
 molecular gradient             ...        0 min,  0.081 sec ( 37.830%)
 printout                       ...        0 min,  0.009 sec (  4.089%)

         :::::::::::::::::::::::::::::::::::::::::::::::::::::
         ::                     SUMMARY                     ::
         :::::::::::::::::::::::::::::::::::::::::::::::::::::
         :: total energy             -83.999830790160 Eh    ::
         :: gradient norm              0.105275979465 Eh/a0 ::
         :: HOMO-LUMO gap              0.057388868153 eV    ::
         ::.................................................::
         :: SCC energy               -85.145609303933 Eh    ::
         :: -> isotropic ES            0.115949211328 Eh    ::
         :: -> anisotropic ES          0.004276269201 Eh    ::
         :: -> anisotropic XC          0.023452811927 Eh    ::
         :: -> dispersion             -0.057163945893 Eh    ::
         :: repulsion energy           1.145778513773 Eh    ::
         :: add. restraining           0.000000000000 Eh    ::
         :: total charge               0.000000000381 e     ::
         :::::::::::::::::::::::::::::::::::::::::::::::::::::

           -------------------------------------------------
          |                Property Printout                |
           -------------------------------------------------

    * Orbital Energies and Occupations

         #    Occupation            Energy/Eh            Energy/eV
      -------------------------------------------------------------
         1        2.0000           -0.8042904             -21.8859
       ...           ...                  ...                  ...
        64        2.0000           -0.4560737             -12.4104
        65        2.0000           -0.4419414             -12.0258
        66        2.0000           -0.4327260             -11.7751
        67        2.0000           -0.4299150             -11.6986
        68        2.0000           -0.4259614             -11.5910
        69        2.0000           -0.4203847             -11.4393
        70        2.0000           -0.4130104             -11.2386
        71        1.9999           -0.4046824             -11.0120
        72        1.9998           -0.4041132             -10.9965
        73        1.9877           -0.4003423             -10.8939
        74        1.9421           -0.3988211             -10.8525
        75        1.0706           -0.3937226             -10.7137
        76        0.7521           -0.2714722              -7.3871 (HOMO)
        77        0.2479           -0.2693632              -7.3297 (LUMO)
        78                         -0.2449586              -6.6657
        79                         -0.2312820              -6.2935
        80                         -0.2120702              -5.7707
        81                         -0.1975250              -5.3749
        82                         -0.1726820              -4.6989
        83                         -0.0921486              -2.5075
        84                         -0.0839109              -2.2833
        85                         -0.0470635              -1.2807
        86                         -0.0012331              -0.0336
        87                          0.0239245               0.6510
       ...                                ...                  ...
       138                          0.7094177              19.3042
      -------------------------------------------------------------
                  HL-Gap            0.0021090 Eh            0.0574 eV
             Fermi-level           -0.3332948 Eh           -9.0694 eV

     #   Z          covCN         q      C6AA      α(0)
     1   9 F        0.787    -0.234    11.597     4.023
     2   6 C        2.788     0.154    24.652     8.133
     3   6 C        2.914    -0.051    29.260     8.870
     4   6 C        2.932    -0.033    28.826     8.805
     5   6 C        2.969    -0.023    28.583     8.770
     6   6 C        2.925    -0.048    29.193     8.861
     7   6 C        2.915    -0.051    29.265     8.871
     8   6 C        2.823     0.177    24.188     8.059
     9   6 C        3.855    -0.020    20.889     6.500
    10   6 C        3.805    -0.057    21.598     6.616
    11   6 C        3.764    -0.010    20.792     6.499
    12   7 N        2.728    -0.081    22.813     7.094
    13   6 C        3.764    -0.005    20.717     6.488
    14   6 C        3.804    -0.066    21.768     6.642
    15   6 C        3.751    -0.004    20.716     6.491
    16   6 C        3.758     0.003    20.582     6.468
    17   7 N        2.744    -0.120    23.603     7.216
    18   6 C        2.706     0.325    21.480     7.586
    19   7 N        2.702    -0.162    24.496     7.351
    20   6 C        2.916     0.071    26.422     8.429
    21   6 C        2.919    -0.056    29.392     8.890
    22   6 C        2.921    -0.030    28.757     8.794
    23   6 C        2.917    -0.032    28.802     8.801
    24   6 C        2.923    -0.025    28.628     8.774
    25   6 C        2.982    -0.044    29.089     8.847
    26   6 C        2.770     0.257    22.676     7.799
    27   8 O        0.859    -0.434    22.378     6.342
    28   8 O        0.860    -0.458    22.871     6.412
    29   8 O        0.858    -0.354    20.779     6.112
    30   1 H        0.926     0.056     2.249     2.345
    31   1 H        0.926     0.049     2.330     2.387
    32   1 H        0.926     0.030     2.580     2.512
    33   1 H        0.926     0.050     2.314     2.379
    34   1 H        0.924     0.063     2.160     2.299
    35   1 H        0.924     0.052     2.299     2.371
    36   1 H        0.924     0.068     2.107     2.270
    37   1 H        0.924     0.084     1.942     2.179
    38   1 H        0.924     0.065     2.146     2.291
    39   1 H        0.924     0.067     2.123     2.279
    40   1 H        0.924     0.058     2.224     2.332
    41   1 H        0.924     0.058     2.226     2.333
    42   1 H        0.924     0.051     2.310     2.377
    43   1 H        0.924     0.064     2.157     2.297
    44   1 H        0.923     0.059     2.209     2.324
    45   1 H        0.925     0.075     2.036     2.231
    46   1 H        0.925     0.088     1.898     2.155
    47   1 H        0.860     0.198     1.115     1.654
    48   1 H        0.926     0.034     2.526     2.485
    49   1 H        0.926     0.040     2.452     2.449
    50   1 H        0.926     0.042     2.416     2.431
    51   1 H        0.926     0.062     2.173     2.305

 Mol. C6AA /au·bohr⁶  :      30402.069640
 Mol. C8AA /au·bohr⁸  :     722234.071674
 Mol. α(0) /au        :        269.225164


Wiberg/Mayer (AO) data.
largest (>0.10) Wiberg bond orders for each atom

 ---------------------------------------------------------------------------
     #   Z sym  total        # sym  WBO       # sym  WBO       # sym  WBO
 ---------------------------------------------------------------------------
     1   9 F    1.065 --     2 C    0.950
     2   6 C    3.821 --     7 C    1.361     3 C    1.354     1 F    0.950
     3   6 C    3.977 --     4 C    1.484     2 C    1.354    30 H    0.963
     4   6 C    3.943 --     3 C    1.484     5 C    1.301    31 H    0.968
     5   6 C    3.914 --     6 C    1.310     4 C    1.301     8 C    1.053
     6   6 C    3.940 --     7 C    1.472     5 C    1.310    32 H    0.962
     7   6 C    3.979 --     6 C    1.472     2 C    1.361    33 H    0.967
     8   6 C    3.741 --    29 O    1.619     5 C    1.053     9 C    0.893
     9   6 C    3.970 --    10 C    1.009    14 C    0.997    34 H    0.927
                             8 C    0.893
    10   6 C    3.985 --     9 C    1.009    11 C    0.970    36 H    0.970
                            35 H    0.958
    11   6 C    3.967 --    12 N    1.015    10 C    0.970    38 H    0.968
                            37 H    0.950
    12   7 N    3.337 --    13 C    1.017    11 C    1.015    15 C    1.013
                            29 O    0.105
    13   6 C    3.972 --    12 N    1.017    40 H    0.968    14 C    0.968
                            39 H    0.962
    14   6 C    3.983 --     9 C    0.997    41 H    0.970    13 C    0.968
                            42 H    0.965
    15   6 C    3.971 --    12 N    1.013    16 C    0.975    43 H    0.970
                            44 H    0.944
    16   6 C    3.947 --    17 N    0.981    15 C    0.975    46 H    0.964
                            45 H    0.963
    17   7 N    3.518 --    18 C    1.119    26 C    1.071    16 C    0.981
                            28 O    0.129    27 O    0.126
    18   6 C    3.956 --    28 O    1.621    19 N    1.138    17 N    1.119
    19   7 N    3.466 --    18 C    1.138    20 C    1.117    47 H    0.927
                            28 O    0.133
    20   6 C    3.925 --    21 C    1.362    25 C    1.288    19 N    1.117
    21   6 C    3.945 --    22 C    1.436    20 C    1.362    48 H    0.968
    22   6 C    3.915 --    21 C    1.436    23 C    1.392    49 H    0.971
    23   6 C    3.959 --    24 C    1.469    22 C    1.392    50 H    0.970
    24   6 C    3.920 --    23 C    1.469    25 C    1.337    51 H    0.966
    25   6 C    3.939 --    24 C    1.337    20 C    1.288    26 C    1.069
    26   6 C    3.875 --    27 O    1.653    17 N    1.071    25 C    1.069
    27   8 O    1.944 --    26 C    1.653    17 N    0.126
    28   8 O    1.959 --    18 C    1.621    19 N    0.133    17 N    0.129
    29   8 O    2.022 --     8 C    1.619    12 N    0.105
    30   1 H    0.993 --     3 C    0.963
    31   1 H    0.997 --     4 C    0.968
    32   1 H    0.997 --     6 C    0.962
    33   1 H    0.996 --     7 C    0.967
    34   1 H    0.988 --     9 C    0.927
    35   1 H    0.995 --    10 C    0.958
    36   1 H    0.995 --    10 C    0.970
    37   1 H    0.991 --    11 C    0.950
    38   1 H    0.995 --    11 C    0.968
    39   1 H    0.994 --    13 C    0.962
    40   1 H    0.996 --    13 C    0.968
    41   1 H    0.996 --    14 C    0.970
    42   1 H    0.995 --    14 C    0.965
    43   1 H    0.996 --    15 C    0.970
    44   1 H    0.980 --    15 C    0.944
    45   1 H    0.993 --    16 C    0.963
    46   1 H    0.990 --    16 C    0.964
    47   1 H    0.960 --    19 N    0.927
    48   1 H    0.998 --    21 C    0.968
    49   1 H    0.998 --    22 C    0.971
    50   1 H    0.998 --    23 C    0.970
    51   1 H    0.996 --    24 C    0.966
 ---------------------------------------------------------------------------

Topologies differ in total number of bonds
Writing topology from bond orders to xtbtopo.mol

molecular dipole:
                 x           y           z       tot (Debye)
 q only:       -1.947      -0.770      -0.120
   full:       -2.187      -1.241      -0.310       6.441
molecular quadrupole (traceless):
                xx          xy          yy          xz          yz          zz
 q only:      -18.784       7.129      12.965      10.352       8.140       5.819
  q+dip:      -17.406      13.038      14.174       8.070       9.350       3.232
   full:      -17.609      10.389      13.362       6.905       9.870       4.247


           -------------------------------------------------
          | TOTAL ENERGY              -83.999830790160 Eh   |
          | GRADIENT NORM               0.105275979465 Eh/α |
          | HOMO-LUMO GAP               0.057388868153 eV   |
           -------------------------------------------------

------------------------------------------------------------------------
 * finished run on 2025/05/15 at 16:35:02.730     
------------------------------------------------------------------------
 total:
 * wall-time:     0 d,  0 h,  0 min,  0.231 sec
 *  cpu-time:     0 d,  0 h,  0 min,  0.148 sec
 * ratio c/w:     0.641 speedup
 SCF:
 * wall-time:     0 d,  0 h,  0 min,  0.216 sec
 *  cpu-time:     0 d,  0 h,  0 min,  0.134 sec
 * ratio c/w:     0.621 speedup


