51
 energy: -84.104765041521 gnorm: 0.000393887281 xtb: 6.7.1 (edcfbbe)
F            8.03628986927247        0.93982853831796       -2.96659494808183
C            7.06195783780631        0.57749490150161       -2.11072455444440
C            6.95530832416898        1.22970920237932       -0.89487875285327
C            5.95408395638153        0.84303965009941       -0.02669271736767
C            5.05689275864900       -0.16903668025184       -0.36859351081617
C            5.19521916973986       -0.81177404331847       -1.59742560860111
C            6.20014347529678       -0.44379932545808       -2.47178161791030
C            4.01647094916047       -0.52750123536443        0.63760133171398
C            2.70313268963154       -1.07082295848941        0.09877823038059
C            1.72125146947116       -1.38750782474310        1.23106743028023
C            1.15817201854042       -0.10573223819375        1.86073360882647
N            0.57460793081443        0.81299067909900        0.89998153391157
C            1.53326068705369        1.13996992527839       -0.13182348508366
C            2.05662200940000       -0.08863819696149       -0.88881046006498
C           -0.73307589057624        0.41645102525885        0.41898069319892
C           -1.81188136811646        0.89745267179136        1.39979231637699
N           -3.12647254252861        0.40585654839437        1.01521833637643
C           -3.46160698587768       -0.85910746934043        1.45812780747518
N           -4.70315501391162       -1.30942944802682        1.08422498383158
C           -5.60005855076035       -0.60019698849442        0.32276679129491
C           -6.85411401968443       -1.11631101466970        0.00059962411931
C           -7.72373787213368       -0.36873836377055       -0.76611511783912
C           -7.36131922649943        0.89419276141043       -1.22379892001015
C           -6.12099857341937        1.40745031117761       -0.91252298118912
C           -5.22930534075798        0.66714338031267       -0.13666277563055
C           -3.90894062234428        1.21223977270247        0.19633947828123
O           -3.50306262418930        2.28611096468906       -0.19158843663105
O           -2.72441476079056       -1.53980927378605        2.13352665891317
O            4.23416375740713       -0.38464012716072        1.81885798716552
H            7.64951374451060        2.01565206488288       -0.64346723405236
H            5.84763408884019        1.32186286091189        0.93496237417338
H            4.53601389622980       -1.62041085179975       -1.87214507521152
H            6.32534358095543       -0.93742927866835       -3.42262654489834
H            2.94668763735873       -2.00220604097841       -0.42822787200326
H            0.90406748812626       -1.99433051264289        0.83582756042221
H            2.22833820153811       -1.96434869927271        2.00493964293096
H            1.96457452554974        0.42456284597134        2.37225628338857
H            0.40200566045748       -0.37150702630166        2.59993339989526
H            2.37504289044389        1.64554735382261        0.35312174360615
H            1.07269693752463        1.84325300329650       -0.82964767359401
H            2.77141323004153        0.22660591961750       -1.65027683438639
H            1.22228222102167       -0.58579528734747       -1.38906166522689
H           -0.91848873754505        0.88662726238204       -0.54975317210998
H           -0.83686763747861       -0.67254237770912        0.29994978412332
H           -1.59705593157110        0.52623513429835        2.40193831955810
H           -1.84671851646352        1.98677137950364        1.40332204478953
H           -4.95300376366432       -2.23069100762169        1.41828874664443
H           -7.13380879707548       -2.09689583750742        0.35639967382944
H           -8.69517794380500       -0.77039889966552       -1.01192799161309
H           -8.05223599649823        1.46823905929526       -1.82096542924330
H           -5.80759028969624        2.38261379118879       -1.25182300661535
