41
 energy: -74.030474394353 gnorm: 0.000468002933 xtb: 6.7.1 (edcfbbe)
O           -0.42217143262049        2.14316394289651       -0.96951095127535
C           -0.28621512991763        1.00655258973078       -0.59230346499378
C            0.90980636775411        0.27303824636942       -0.23156157737122
C            2.26182940380950        0.64849342051476       -0.20184809016632
O            2.55744253186287        1.89944656993074       -0.57733674800891
C            3.89839649804406        2.33111473295389       -0.55993244309321
C            3.18961690214888       -0.30428968723776        0.21050564363137
C            0.51957574470716       -1.01845366632272        0.14554689136937
C            1.44488100509451       -1.95859278425383        0.55414743141731
Cl           0.96182268123013       -3.54658078436089        1.01646296351885
C            2.79938696735643       -1.59214075747908        0.58460039187442
O            3.65102349902264       -2.55407491389304        0.98912354292906
C            5.03267547603104       -2.28443231537587        1.03993458133476
O           -0.80077685812858       -1.22493846914645        0.05977012189863
C           -1.43323901502500       -0.01448326921494       -0.39688675146233
C           -2.20213131622708       -0.32647088380159       -1.69557832369327
C           -2.76687073148832        0.92082953537658       -2.36801276857734
C           -3.32135662912022       -1.30941087622584       -1.35327329056206
C           -2.37472136798065        0.44273116103829        0.69909664226391
O           -1.72410250605082        1.15464506565973        1.63187752905512
C           -2.44246071306803        1.61545437907410        2.75679942633052
C           -3.67318593305544        0.10281462053892        0.70057741827913
C           -4.27602990789848       -0.74686028794375       -0.32134233741886
O           -5.45861494967713       -1.01554202894371       -0.31823985224744
H            4.31954922558811        2.29183040543397        0.44935878179683
H            3.87421266039111        3.36465905059328       -0.90000273973793
H            4.51927350507127        1.74059750736134       -1.24072775349271
H            4.23419512905934       -0.04744331977203        0.24514749040588
H            5.26034398953138       -1.48438441497500        1.75076192073248
H            5.42783936767583       -2.02504961901181        0.05315056965558
H            5.49514444330510       -3.20928607842795        1.38012246643851
H           -1.49153144508761       -0.81029335550855       -2.37596555684250
H           -3.53404064088749        1.37672839650373       -1.74734299720407
H           -1.98877321419484        1.65678940716305       -2.54835785890990
H           -3.21286499304554        0.64439805706565       -3.32013817220610
H           -2.89145860289742       -2.22035513410827       -0.92819388616605
H           -3.88481621356338       -1.58322871785742       -2.24610754917643
H           -1.71633066797988        2.14027978258227        3.37426559995600
H           -2.87166760573907        0.78044377620461        3.31727001838832
H           -3.23739914235774        2.30393084009534        2.45931973543180
H           -4.34615638167292        0.43816987677302        1.47502394589819
