51
 energy: -84.107549221663 gnorm: 0.000254573726 xtb: 6.7.1 (edcfbbe)
F            7.97914586763684       -1.39355894980751        1.62562221549868
C            6.71975932703290       -0.92993755991790        1.52362913897907
C            6.17527328778425       -0.74121859192584        0.26514813556250
C            4.88280359068476       -0.26406213569918        0.15733584948477
C            4.13374241440980        0.02125989057164        1.29879885306629
C            4.71634095937233       -0.17940116073954        2.55264812337159
C            6.00586472950850       -0.65343911774859        2.67686608702867
C            2.73508948193621        0.53943538442576        1.27758158203050
C            2.04734392815855        0.64684875523101       -0.06841811846198
C            0.81583764918788        1.54731373538567       -0.01352813675095
C            0.12994897700500        1.57639384917483       -1.37416579621533
N           -0.27773053420028        0.23809907953093       -1.77132642336587
C            0.87191146862201       -0.64292658865481       -1.85864278963658
C            1.58069201603456       -0.74545869050457       -0.51224006777621
C           -1.03690933657401        0.22426044863212       -3.00735464836416
C           -2.44554950379467        0.80594006045353       -2.84808945398589
N           -3.12501952691809        0.23396718262029       -1.69606218824721
C           -3.51821835381705       -1.08386483259597       -1.81113812751688
N           -4.10966428114238       -1.62787567106617       -0.69923693003830
C           -4.31715991609967       -0.96289511587450        0.48451319936150
C           -4.91708610554593       -1.58466461224183        1.57816067966142
C           -5.11177520603209       -0.87495464299737        2.74515824151211
C           -4.71462441195312        0.45476051174742        2.84270394336878
C           -4.12151773339963        1.07490149306473        1.76449418352731
C           -3.91859407583334        0.37400825103433        0.57593066078026
C           -3.29490107894983        1.03422449696985       -0.57357915314462
O           -2.95937620647432        2.20033346448262       -0.57782651049559
O           -3.37651139536776       -1.72914009920733       -2.82506414167531
O            2.17070652504926        0.83209649807340        2.30827890845149
H            6.76467305880841       -0.96509617009702       -0.61017063306788
H            4.47363707521057       -0.11514652474189       -0.82874427309229
H            4.12752538873362        0.04826583862250        3.42844999446479
H            6.46152158071367       -0.80956119208958        3.64175633212827
H            2.74698287939339        1.04932150889028       -0.80746700665323
H            0.12178781788207        1.16585877416234        0.73561383671134
H            1.10006160461654        2.56031624974581        0.27450453470892
H           -0.75645714729653        2.20601848539564       -1.30245431879849
H            0.81271151183298        2.01984743707877       -2.12478523980914
H            0.52166229553180       -1.63469085906205       -2.15788848205866
H            1.59151579876915       -0.29100281084114       -2.62346452962083
H            0.88232590877226       -1.13474681902467        0.23026793681198
H            2.42128398380932       -1.43741941959287       -0.59175195656763
H           -1.14118090167663       -0.81705301582896       -3.32076524511411
H           -0.52726739230294        0.77803213707340       -3.81670220775392
H           -2.42377888991845        1.88518910449285       -2.69776456387698
H           -3.02190419121920        0.56922719508646       -3.74550355120366
H           -4.39761337968528       -2.59349325535123       -0.78507653908426
H           -5.22522692276446       -2.61697685153751        1.50151903359873
H           -5.57797325217644       -1.35921965843250        3.59001270816334
H           -4.87232728198557        0.99701935148772        3.76171698243369
H           -3.80208210135354        2.10466516215879        1.80619987167462
