43
 energy: -70.315932557804 gnorm: 0.000180980244 xtb: 6.7.1 (edcfbbe)
C           -2.77533394222104        1.01351133364133       -2.66260746076799
C           -2.45590663181650        0.73601272162033       -1.22714934444636
C           -3.31533672507830       -0.01233914665447       -0.41783689136976
O           -4.49766414789249       -0.50504720408020       -0.94053890886260
C           -4.37727021715001       -1.80963886674232       -1.47199223055740
C           -2.99773883820243       -0.24544235453644        0.92252396335591
C           -3.92991118947592       -1.01233903677195        1.80728721104470
C           -1.28971954933331        1.20521883199920       -0.63618282100252
N           -0.95417141597695        0.96366600050734        0.61443250090755
C           -1.78122337342638        0.26789878931858        1.38392212656132
C           -1.26789524110944       -0.05232135366992        2.73842030568516
S           -0.34425132440353       -1.68350022819641        2.59872420873854
C            1.01665047325063       -0.95244225255728        1.68856356360092
N            1.95783201805905       -0.20949647828764        2.18761328351638
C            2.76718257052362        0.09853395468467        1.12202945511246
C            2.25801749590956       -0.51710183515286       -0.05083418132028
N            1.13956103382214       -1.19648962498509        0.35917959763944
C            2.88694556206550       -0.36587233764464       -1.27197981908254
C            4.03615170173557        0.40062076826989       -1.31160883356781
C            4.55378737341873        1.00817516159724       -0.15800459309733
O            5.68887331700776        1.76800952568915       -0.14289722495512
C            6.40762588601620        1.94735768456423       -1.33728396396322
C            3.92071218410143        0.86438573986081        1.06994573475733
O           -1.04523369136294       -2.47490294796352        1.57538595645873
H           -3.84935486901432        0.95851120956383       -2.82355078145747
H           -2.29072134946776        0.28079498311911       -3.30933900680728
H           -2.41782027996335        2.00060589287798       -2.94618732632722
H           -5.38399123950871       -2.11874613667846       -1.74786121080184
H           -3.96684894188194       -2.50584715041548       -0.73383829009382
H           -3.73716866849402       -1.81888875035308       -2.36101658391944
H           -4.87150221705762       -1.18379324582278        1.29239787392817
H           -4.13389102077338       -0.45742713872945        2.72208111148874
H           -3.48709816983267       -1.97085853925729        2.07461119293957
H           -0.57786908489551        1.79112953152362       -1.20350115978464
H           -2.04891949445162       -0.19715207377423        3.47898103171569
H           -0.52610229237425        0.66579393066705        3.07508107476919
H            0.48557195924202       -1.74088207079241       -0.17977362482976
H            2.50150555426600       -0.82839463221434       -2.16789611153315
H            4.53601606386850        0.52512091274332       -2.25882875216340
H            7.26529272764572        2.56403654265102       -1.07229854057665
H            5.81221931955529        2.46751222563359       -2.09512477210701
H            6.76259295117634        0.99429496519095       -1.74362877599642
H            4.32630572348108        1.33773269956018        1.94728101715503
