38
 energy: -65.473614802118 gnorm: 0.000714283014 xtb: 6.7.1 (edcfbbe)
O            2.65974793820167        1.72131300385502       -1.41299315439151
C            2.12123751632793        2.18297147016652       -0.20672793634231
C            1.66968386350556        1.04040000576950        0.72156742780834
O            0.51831241809722        0.47480225661025        0.13046345645726
C           -0.08585938068990       -0.62503098913570        0.78947355187824
C            0.91032490777437       -1.72727846974799        1.16976286218967
C            2.18830634380799       -1.14180304422496        1.78047518381044
C            2.74977252888866       -0.04092028271575        0.87896007518722
O            3.92518218951588        0.44535199741479        1.48240812178269
O            3.10061055724335       -2.19854413777827        1.94504673980580
O            0.26418856475320       -2.56901322781660        2.08363550019866
O           -0.97303663634475       -1.16366182933316       -0.12527060592811
C           -2.13999615694528       -0.44578011808601       -0.37368340609854
C           -3.06108007695370       -0.20338065857457        0.63428358617307
C           -4.24077322390627        0.45985612532037        0.34658033521356
C           -4.50306650303329        0.87639543726670       -0.94655703118947
C           -3.58434664755519        0.62783333331146       -1.95163467048575
C           -2.39457741509961       -0.03342713326360       -1.68503957420728
C           -1.37069591670196       -0.28954294069722       -2.76486662909299
O           -0.19797390669370        0.47695726828273       -2.59114266775439
H            1.94631266095425        1.37511779478720       -1.96649022275548
H            1.26213562328862        2.84215551891886       -0.37688289230979
H            2.90893031884427        2.75499496097677        0.29102774973037
H            1.42271522876174        1.45390332041199        1.71206798123007
H           -0.58606279545903       -0.26940771823164        1.70792504909777
H            1.17796682184563       -2.27608332785377        0.25397066345378
H            1.94765410551579       -0.69949049535455        2.76213919761842
H            2.97014785995074       -0.46456830850486       -0.11204768809582
H            4.36801931441818        1.02753673951884        0.85464586825454
H            3.95687671375968       -1.80324818519298        2.15221940089243
H            0.90892915051181       -3.23131033243745        2.36394757322782
H           -2.85682855457708       -0.55190255450925        1.63553959021446
H           -4.95645187163452        0.64372557826793        1.13368621848614
H           -5.42331081931356        1.39347354057017       -1.17273884333242
H           -3.78805678413463        0.95425744103563       -2.96086542280155
H           -1.12058242911349       -1.36143466545434       -2.77201639598211
H           -1.77135400564836       -0.01368830914611       -3.74304890078463
H            0.07679849783781        0.35847093557315       -1.66762009116134
