51
 energy: -84.104881428588 gnorm: 0.000684665385 xtb: 6.7.1 (edcfbbe)
F            7.56229624719917        0.65030264275294       -3.69652325184012
C            6.71935772371953        0.33348576147898       -2.69536964682962
C            6.38846274126016       -0.99556401136979       -2.49361258468135
C            5.51450294470507       -1.32049945359220       -1.47344334302998
C            4.98192208729007       -0.32556155741269       -0.65578175433802
C            5.35474161951336        1.00137785249914       -0.86963654913312
C            6.21574402483047        1.34262733478098       -1.89362056723881
C            4.04820496356463       -0.60046546531671        0.47439175481931
C            3.11314614733230       -1.78741483920916        0.31075012664744
C            2.16277365235266       -1.92928318610141        1.50179755402329
C            1.09949417162710       -0.83477836057891        1.49691154023978
N            0.36302461193046       -0.85461323613061        0.24424123423613
C            1.25531652251399       -0.56487418299440       -0.85871778700928
C            2.28693847509296       -1.68356880293007       -0.97687619871343
C           -0.82113883324085       -0.02178915633421        0.28319581291957
C           -1.99626705574202       -0.81668389108395        0.86727402984140
N           -3.19837982411579       -0.00084587180620        0.94692169693102
C           -3.40712956479111        0.68297343664126        2.12990865662775
N           -4.54498795896437        1.44927201742787        2.17808257701705
C           -5.45485945923617        1.57338143888564        1.15639028201253
C           -6.59779686368690        2.36047777737130        1.28603438577724
C           -7.48634086277731        2.45286664516642        0.23447134672847
C           -7.25325528791097        1.76969292772838       -0.95497891232867
C           -6.12295471786659        0.99303604267976       -1.09024736352804
C           -5.21399044192358        0.88692061077579       -0.03780344071427
C           -4.00913011527083        0.06260819884216       -0.18010893224765
O           -3.71719978176603       -0.53921651060313       -1.19120735025037
O           -2.65470421676891        0.61717591279599        3.07387208670522
O            4.05767354177400        0.10127665464280        1.45938457494469
H            6.81549361783006       -1.75487901609830       -3.12964661636120
H            5.27091978755547       -2.35802478065231       -1.30497206246251
H            4.95160366196203        1.76170929145579       -0.21781666408908
H            6.50287704928265        2.36651138556837       -2.07344930587434
H            3.74980739038721       -2.67876556610049        0.25689741476519
H            2.72752231383703       -1.87216499501992        2.43305474998457
H            1.67050432705435       -2.90114584946330        1.44559969611983
H            1.57969202659245        0.14395561371783        1.66024230822036
H            0.40242385011877       -1.00765896620931        2.31796112644427
H            0.66929896515457       -0.51774954817269       -1.77972004364001
H            1.77554960331818        0.40366776756947       -0.72894295070263
H            2.92696197033903       -1.50170677540847       -1.84133346051197
H            1.75510565773023       -2.62421916124047       -1.12692608172709
H           -0.66853791704315        0.89295101407147        0.87993942159457
H           -1.08676078946017        0.27282372293080       -0.73503474652573
H           -1.76198306397708       -1.15852872860846        1.87520262666840
H           -2.20816479740309       -1.66819315017115        0.21959874501090
H           -4.69923480222635        1.94604635486431        3.04532846950043
H           -6.77814419008676        2.89006858974341        2.20981546345643
H           -8.37128615525832        3.06238177242076        0.33873937808481
H           -7.95763771385432        1.84942365216477       -1.76803177388450
H           -5.91127528249426        0.45108064367154       -1.99910567169855
