----- Optimization -----
      -----------------------------------------------------------      
     |                   =====================                   |     
     |                           x T B                           |     
     |                   =====================                   |     
     |                         S. Grimme                         |     
     |          Mulliken Center for Theoretical Chemistry        |     
     |                    University of Bonn                     |     
      -----------------------------------------------------------      

   * xtb version 6.7.1 (edcfbbe) compiled by 'conda@3ef47c1a292c' on 2024-11-25

   xtb is free software: you can redistribute it and/or modify it under
   the terms of the GNU Lesser General Public License as published by
   the Free Software Foundation, either version 3 of the License, or
   (at your option) any later version.
   
   xtb is distributed in the hope that it will be useful,
   but WITHOUT ANY WARRANTY; without even the implied warranty of
   MERCHANTABILITY or FITNESS FOR A PARTICULAR PURPOSE.  See the
   GNU Lesser General Public License for more details.
   
   Cite this work as:
   * C. Bannwarth, E. Caldeweyher, S. Ehlert, A. Hansen, P. Pracht,
     J. Seibert, S. Spicher, S. Grimme, WIREs Comput. Mol. Sci., 2020, 11,
     e01493. DOI: 10.1002/wcms.1493
   
   for GFN2-xTB:
   * C. Bannwarth, S. Ehlert and S. Grimme., J. Chem. Theory Comput., 2019,
     15, 1652-1671. DOI: 10.1021/acs.jctc.8b01176
   for GFN1-xTB:
   * S. Grimme, C. Bannwarth, P. Shushkov, J. Chem. Theory Comput., 2017,
     13, 1989-2009. DOI: 10.1021/acs.jctc.7b00118
   for GFN0-xTB:
   * P. Pracht, E. Caldeweyher, S. Ehlert, S. Grimme, ChemRxiv, 2019, preprint.
     DOI: 10.26434/chemrxiv.8326202.v1
   for GFN-FF:
   * S. Spicher and S. Grimme, Angew. Chem. Int. Ed., 2020, 59, 15665-15673.
     DOI: 10.1002/anie.202004239
   
   for ALPB and GBSA implicit solvation:
   * S. Ehlert, M. Stahn, S. Spicher, S. Grimme, J. Chem. Theory Comput.,
     2021, 17, 4250-4261. DOI: 10.1021/acs.jctc.1c00471
   
   for ddCOSMO and CPCM-X implicit solvation:
   * M. Stahn, S. Ehlert, S. Grimme, J. Phys. Chem. A,
     2023, XX, XXXX-XXXX. DOI: 10.1021/acs.jpca.3c04382
   
   for DFT-D4:
   * E. Caldeweyher, C. Bannwarth and S. Grimme, J. Chem. Phys., 2017,
     147, 034112. DOI: 10.1063/1.4993215
   * E. Caldeweyher, S. Ehlert, A. Hansen, H. Neugebauer, S. Spicher,
     C. Bannwarth and S. Grimme, J. Chem. Phys., 2019, 150, 154122.
     DOI: 10.1063/1.5090222
   * E. Caldeweyher, J.-M. Mewes, S. Ehlert and S. Grimme, Phys. Chem. Chem. Phys.
     2020, 22, 8499-8512. DOI: 10.1039/D0CP00502A
   
   for sTDA-xTB:
   * S. Grimme and C. Bannwarth, J. Chem. Phys., 2016, 145, 054103.
     DOI: 10.1063/1.4959605
   
   in the mass-spec context:
   * V. Asgeirsson, C. Bauer and S. Grimme, Chem. Sci., 2017, 8, 4879.
     DOI: 10.1039/c7sc00601b
   * J. Koopman and S. Grimme, ACS Omega 2019, 4, 12, 15120-15133.
     DOI: 10.1021/acsomega.9b02011
   
   for metadynamics refer to:
   * S. Grimme, J. Chem. Theory Comput., 2019, 155, 2847-2862
     DOI: 10.1021/acs.jctc.9b00143
   
   for SPH calculations refer to:
   * S. Spicher and S. Grimme, J. Chem. Theory Comput., 2021, 17, 1701-1714
     DOI: 10.1021/acs.jctc.0c01306
   
   for ONIOM refer to:
   * C. Plett, A. Katbashev, S. Ehlert, S. Grimme, M. Bursch,
     Phys. Chem. Chem. Phys., 2023, 25, 17860-17868. DOI: 10.1039/D3CP02178E
   
   for DIPRO refer to:
   * J. Kohn, N. Gildemeister, S. Grimme, D. Fazzi, A. Hansen,
     J. Chem. Phys., 2023, just accepted.
   
   for PTB refer to:
   * S. Grimme, M. Mueller, A. Hansen, J. Chem. Phys., 2023, 158, 124111.
     DOI: 10.1063/5.0137838
   
   with help from (in alphabetical order)
   P. Atkinson, C. Bannwarth, F. Bohle, G. Brandenburg, E. Caldeweyher
   M. Checinski, S. Dohm, S. Ehlert, S. Ehrlich, I. Gerasimov, C. Hölzer
   A. Katbashev, J. Kohn, J. Koopman, C. Lavigne, S. Lehtola, F. März, M. Müller,
   F. Musil, H. Neugebauer, J. Pisarek, C. Plett, P. Pracht, F. Pultar,
   J. Seibert, P. Shushkov, S. Spicher, M. Stahn, M. Steiner, T. Strunk,
   J. Stückrath, T. Rose, and J. Unsleber
   
 * started run on 2025/05/15 at 16:35:36.339     
   ID    Z sym.   atoms
    1    9 F      1
    2    6 C      2-11, 13-16, 18, 20-26
    3    7 N      12, 17, 19
    4    8 O      27-29
    5    1 H      30-51

           -------------------------------------------------
          |                Calculation Setup                |
           -------------------------------------------------

          program call               : xtb /rds/general/user/hgt20/home/callum/QDESCP/Ketanserin_rdkit_conf_3/Ketanserin_rdkit_conf_3.xyz --opt normal --acc 1 --gfn 2 --chrg 0 --uhf 0 -P 1
          hostname                   : login-c
          coordinate file            : /rds/general/user/hgt20/home/callum/QDESCP/Ketanserin_rdkit_conf_3/Ketanserin_rdkit_conf_3.xyz
          omp threads                :                     1


           -------------------------------------------------
          |                 G F N 2 - x T B                 |
           -------------------------------------------------

        Reference                      10.1021/acs.jctc.8b01176
      * Hamiltonian:
        H0-scaling (s, p, d)           1.850000    2.230000    2.230000
        zeta-weighting                 0.500000
      * Dispersion:
        s8                             2.700000
        a1                             0.520000
        a2                             5.000000
        s9                             5.000000
      * Repulsion:
        kExp                           1.500000    1.000000
        rExp                           1.000000
      * Coulomb:
        alpha                          2.000000
        third order                    shell-resolved
        anisotropic                    true
        a3                             3.000000
        a5                             4.000000
        cn-shift                       1.200000
        cn-exp                         4.000000
        max-rad                        5.000000


          ...................................................
          :                      SETUP                      :
          :.................................................:
          :  # basis functions                 138          :
          :  # atomic orbitals                 138          :
          :  # shells                           80          :
          :  # electrons                       150          :
          :  max. iterations                   250          :
          :  Hamiltonian                  GFN2-xTB          :
          :  restarted?                      false          :
          :  GBSA solvation                  false          :
          :  PC potential                    false          :
          :  electronic temp.          300.0000000     K    :
          :  accuracy                    1.0000000          :
          :  -> integral cutoff          0.2500000E+02      :
          :  -> integral neglect         0.1000000E-07      :
          :  -> SCF convergence          0.1000000E-05 Eh   :
          :  -> wf. convergence          0.1000000E-03 e    :
          :  Broyden damping             0.4000000          :
          :  net charge                          0          :
          :  unpaired electrons                  0          :
          ...................................................

 iter      E             dE          RMSdq      gap      omega  full diag
   1    -84.9864644 -0.849865E+02  0.406E+00    2.62       0.0  T
   2    -85.1480683 -0.161604E+00  0.231E+00    2.03       1.0  T
   3    -85.1593330 -0.112647E-01  0.131E+00    1.97       1.0  T
   4    -85.1715251 -0.121921E-01  0.308E-01    1.55       1.0  T
   5    -85.1747298 -0.320471E-02  0.905E-02    1.56       1.0  T
   6    -85.1748416 -0.111751E-03  0.477E-02    1.60       1.0  T
   7    -85.1748937 -0.520934E-04  0.188E-02    1.60       1.0  T
   8    -85.1748950 -0.137052E-05  0.774E-03    1.61       1.8  T
   9    -85.1748960 -0.101668E-05  0.337E-03    1.60       4.2  T
  10    -85.1748962 -0.128250E-06  0.113E-03    1.60      12.3  T
  11    -85.1748962 -0.192536E-07  0.586E-04    1.60      23.9  T
  12    -85.1748962 -0.388602E-08  0.184E-04    1.60      76.1  T

   *** convergence criteria satisfied after 12 iterations ***

         #    Occupation            Energy/Eh            Energy/eV
      -------------------------------------------------------------
         1        2.0000           -0.8289975             -22.5582
       ...           ...                  ...                  ...
        69        2.0000           -0.4243580             -11.5474
        70        2.0000           -0.4221383             -11.4870
        71        2.0000           -0.4177892             -11.3686
        72        2.0000           -0.4092589             -11.1365
        73        2.0000           -0.4058540             -11.0439
        74        2.0000           -0.3933083             -10.7025
        75        2.0000           -0.3501748              -9.5287 (HOMO)
        76                         -0.2912602              -7.9256 (LUMO)
        77                         -0.2813977              -7.6572
        78                         -0.2548237              -6.9341
        79                         -0.2528488              -6.8804
        80                         -0.2224919              -6.0543
       ...                                ...                  ...
       138                          0.6662606              18.1299
      -------------------------------------------------------------
                  HL-Gap            0.0589147 Eh            1.6031 eV
             Fermi-level           -0.3207175 Eh           -8.7272 eV

 SCC (total)                   0 d,  0 h,  0 min,  0.128 sec
 SCC setup                      ...        0 min,  0.001 sec (  0.403%)
 Dispersion                     ...        0 min,  0.001 sec (  0.533%)
 classical contributions        ...        0 min,  0.000 sec (  0.166%)
 integral evaluation            ...        0 min,  0.010 sec (  7.852%)
 iterations                     ...        0 min,  0.039 sec ( 30.246%)
 molecular gradient             ...        0 min,  0.078 sec ( 60.601%)
 printout                       ...        0 min,  0.000 sec (  0.194%)

         :::::::::::::::::::::::::::::::::::::::::::::::::::::
         ::                     SUMMARY                     ::
         :::::::::::::::::::::::::::::::::::::::::::::::::::::
         :: total energy             -84.092670440357 Eh    ::
         :: gradient norm              0.086300180261 Eh/a0 ::
         :: HOMO-LUMO gap              1.603149263556 eV    ::
         ::.................................................::
         :: SCC energy               -85.175064176248 Eh    ::
         :: -> isotropic ES            0.117009972220 Eh    ::
         :: -> anisotropic ES          0.005146506366 Eh    ::
         :: -> anisotropic XC          0.030050613451 Eh    ::
         :: -> dispersion             -0.055756285979 Eh    ::
         :: repulsion energy           1.082393735891 Eh    ::
         :: add. restraining           0.000000000000 Eh    ::
         :: total charge               0.000000000000 e     ::
         :::::::::::::::::::::::::::::::::::::::::::::::::::::

      ----------------------------------------------------------- 
     |                   =====================                   |
     |                        A N C O P T                        |
     |                   =====================                   |
     |               Approximate Normal Coordinate               |
     |                Rational Function Optimizer                |
      ----------------------------------------------------------- 
      ----------------------------------------------------------- 
     |                   =====================                   |
     |                        A N C O P T                        |
     |                   =====================                   |
     |               Approximate Normal Coordinate               |
     |                Rational Function Optimizer                |
      ----------------------------------------------------------- 

          ...................................................
          :                      SETUP                      :
          :.................................................:
          :   optimization level            normal          :
          :   max. optcycles                   200          :
          :   ANC micro-cycles                  20          :
          :   degrees of freedom               147          :
          :.................................................:
          :   RF solver                   davidson          :
          :   write xtbopt.log                true          :
          :   linear?                        false          :
          :   energy convergence         0.5000000E-05 Eh   :
          :   grad. convergence          0.1000000E-02 Eh/α :
          :   maxmium RF displ.          1.0000000          :
          :   Hlow (freq-cutoff)         0.1000000E-01      :
          :   Hmax (freq-cutoff)         5.0000000          :
          :   S6 in model hess.         20.0000000          :
          ...................................................

generating ANC from exact Hessian ...
Using Lindh-Hessian (1995)
 Shifting diagonal of input Hessian by    9.8688928675500984E-003
 Lowest  eigenvalues of input Hessian
    0.000000    0.000000    0.000000    0.000000    0.000000    0.010000
    0.000000    0.010197    0.010312    0.010499    0.010866    0.011198
    0.012253    0.013120    0.013751    0.015097    0.015869    0.017141
 Highest eigenvalues
    2.031839    2.046714    2.091164    2.103686    2.298274    2.472961


........................................................................
.............................. CYCLE    1 ..............................
........................................................................

 iter      E             dE          RMSdq      gap      omega  full diag
   1    -85.1748962 -0.851749E+02  0.676E-05    1.60       0.0  T
   2    -85.1748962 -0.427178E-10  0.411E-05    1.60     341.1  T
   3    -85.1748962 -0.199378E-10  0.264E-05    1.60     529.6  T
     SCC iter.                  ...        0 min,  0.010 sec
     gradient                   ...        0 min,  0.033 sec
 * total energy  :   -84.0926704 Eh     change       -0.4830127E-09 Eh
   gradient norm :     0.0863001 Eh/α   predicted     0.0000000E+00 (-100.00%)
   displ. norm   :     0.2845556 α      lambda       -0.1136826E-01
   maximum displ.:     0.1009004 α      in ANC's #45, #28, #9, ...

........................................................................
.............................. CYCLE    2 ..............................
........................................................................

 iter      E             dE          RMSdq      gap      omega  full diag
   1    -85.2229327 -0.852229E+02  0.172E-01    1.65       0.0  T
   2    -85.2230697 -0.136969E-03  0.100E-01    1.66       1.0  T
   3    -85.2230536  0.160994E-04  0.391E-02    1.66       1.0  T
   4    -85.2230816 -0.280685E-04  0.975E-03    1.65       1.4  T
   5    -85.2230858 -0.415002E-05  0.300E-03    1.65       4.7  T
   6    -85.2230859 -0.141713E-06  0.149E-03    1.65       9.4  T
   7    -85.2230859 -0.253938E-07  0.570E-04    1.65      24.6  T
   8    -85.2230860 -0.354055E-08  0.229E-04    1.65      61.2  T
     SCC iter.                  ...        0 min,  0.025 sec
     gradient                   ...        0 min,  0.033 sec
 * total energy  :   -84.1002324 Eh     change       -0.7561914E-02 Eh
   gradient norm :     0.0320058 Eh/α   predicted    -0.6151917E-02 ( -18.65%)
   displ. norm   :     0.2613596 α      lambda       -0.2832995E-02
   maximum displ.:     0.1339827 α      in ANC's #9, #7, #8, ...

........................................................................
.............................. CYCLE    3 ..............................
........................................................................

 iter      E             dE          RMSdq      gap      omega  full diag
   1    -85.2434955 -0.852435E+02  0.981E-02    1.64       0.0  T
   2    -85.2435390 -0.434819E-04  0.562E-02    1.65       1.0  T
   3    -85.2435325  0.648798E-05  0.247E-02    1.65       1.0  T
   4    -85.2435442 -0.116684E-04  0.550E-03    1.65       2.5  T
   5    -85.2435456 -0.139520E-05  0.158E-03    1.65       8.9  T
   6    -85.2435456 -0.398508E-07  0.767E-04    1.65      18.3  T
   7    -85.2435456 -0.680387E-08  0.308E-04    1.65      45.4  T
     SCC iter.                  ...        0 min,  0.022 sec
     gradient                   ...        0 min,  0.072 sec
 * total energy  :   -84.1019327 Eh     change       -0.1700362E-02 Eh
   gradient norm :     0.0089845 Eh/α   predicted    -0.1514463E-02 ( -10.93%)
   displ. norm   :     0.2167893 α      lambda       -0.6510316E-03
   maximum displ.:     0.1314147 α      in ANC's #9, #7, #8, ...

........................................................................
.............................. CYCLE    4 ..............................
........................................................................

 iter      E             dE          RMSdq      gap      omega  full diag
   1    -85.2455511 -0.852456E+02  0.467E-02    1.63       0.0  T
   2    -85.2455543 -0.316489E-05  0.269E-02    1.63       1.0  T
   3    -85.2455524  0.188248E-05  0.856E-03    1.63       1.6  T
   4    -85.2455550 -0.254827E-05  0.159E-03    1.63       8.8  T
   5    -85.2455551 -0.882462E-07  0.680E-04    1.63      20.6  T
   6    -85.2455551 -0.426384E-08  0.312E-04    1.63      44.8  T
     SCC iter.                  ...        0 min,  0.019 sec
     gradient                   ...        0 min,  0.078 sec
 * total energy  :   -84.1024069 Eh     change       -0.4742133E-03 Eh
   gradient norm :     0.0064113 Eh/α   predicted    -0.3408261E-03 ( -28.13%)
   displ. norm   :     0.3089407 α      lambda       -0.5636169E-03
   maximum displ.:     0.1969479 α      in ANC's #7, #9, #4, ...

........................................................................
.............................. CYCLE    5 ..............................
........................................................................

 iter      E             dE          RMSdq      gap      omega  full diag
   1    -85.2451920 -0.852452E+02  0.547E-02    1.60       0.0  T
   2    -85.2451944 -0.242160E-05  0.318E-02    1.61       1.0  T
   3    -85.2451937  0.712527E-06  0.559E-03    1.61       2.5  T
   4    -85.2451949 -0.113595E-05  0.155E-03    1.61       9.1  T
   5    -85.2451949 -0.572090E-07  0.748E-04    1.61      18.7  T
   6    -85.2451949 -0.405453E-08  0.275E-04    1.61      51.0  T
     SCC iter.                  ...        0 min,  0.019 sec
     gradient                   ...        0 min,  0.084 sec
 * total energy  :   -84.1027724 Eh     change       -0.3654570E-03 Eh
   gradient norm :     0.0062758 Eh/α   predicted    -0.3087132E-03 ( -15.53%)
   displ. norm   :     0.1916808 α      lambda       -0.2104186E-03
   maximum displ.:     0.1168952 α      in ANC's #9, #7, #4, ...

........................................................................
.............................. CYCLE    6 ..............................
........................................................................

 iter      E             dE          RMSdq      gap      omega  full diag
   1    -85.2448789 -0.852449E+02  0.322E-02    1.60       0.0  T
   2    -85.2448796 -0.752205E-06  0.189E-02    1.60       1.0  T
   3    -85.2448793  0.350912E-06  0.336E-03    1.60       4.2  T
   4    -85.2448798 -0.507866E-06  0.988E-04    1.60      14.2  T
   5    -85.2448798 -0.232774E-07  0.454E-04    1.60      30.9  T
     SCC iter.                  ...        0 min,  0.016 sec
     gradient                   ...        0 min,  0.072 sec
 * total energy  :   -84.1029149 Eh     change       -0.1425124E-03 Eh
   gradient norm :     0.0047660 Eh/α   predicted    -0.1090777E-03 ( -23.46%)
   displ. norm   :     0.1540237 α      lambda       -0.1160078E-03
   maximum displ.:     0.0847597 α      in ANC's #9, #7, #4, ...

........................................................................
.............................. CYCLE    7 ..............................
........................................................................

 iter      E             dE          RMSdq      gap      omega  full diag
   1    -85.2453654 -0.852454E+02  0.284E-02    1.59       0.0  T
   2    -85.2453661 -0.728964E-06  0.166E-02    1.59       1.0  T
   3    -85.2453658  0.311233E-06  0.339E-03    1.59       4.1  T
   4    -85.2453662 -0.433825E-06  0.856E-04    1.59      16.4  T
   5    -85.2453663 -0.212750E-07  0.370E-04    1.59      37.9  T
     SCC iter.                  ...        0 min,  0.016 sec
     gradient                   ...        0 min,  0.060 sec
 * total energy  :   -84.1029945 Eh     change       -0.7959611E-04 Eh
   gradient norm :     0.0027828 Eh/α   predicted    -0.5938071E-04 ( -25.40%)
   displ. norm   :     0.1233172 α      lambda       -0.6560479E-04
   maximum displ.:     0.0665296 α      in ANC's #4, #9, #7, ...

........................................................................
.............................. CYCLE    8 ..............................
........................................................................

 iter      E             dE          RMSdq      gap      omega  full diag
   1    -85.2462452 -0.852462E+02  0.267E-02    1.59       0.0  T
   2    -85.2462458 -0.616133E-06  0.156E-02    1.59       1.0  T
   3    -85.2462457  0.150465E-06  0.268E-03    1.59       5.2  T
   4    -85.2462459 -0.227194E-06  0.692E-04    1.59      20.2  T
   5    -85.2462459 -0.140372E-07  0.309E-04    1.59      45.3  T
     SCC iter.                  ...        0 min,  0.016 sec
     gradient                   ...        0 min,  0.078 sec
 * total energy  :   -84.1030433 Eh     change       -0.4878111E-04 Eh
   gradient norm :     0.0020424 Eh/α   predicted    -0.3330212E-04 ( -31.73%)
   displ. norm   :     0.1441562 α      lambda       -0.6182903E-04
   maximum displ.:     0.0826984 α      in ANC's #4, #2, #8, ...

........................................................................
.............................. CYCLE    9 ..............................
........................................................................

 iter      E             dE          RMSdq      gap      omega  full diag
   1    -85.2468598 -0.852469E+02  0.359E-02    1.59       0.0  T
   2    -85.2468604 -0.553645E-06  0.211E-02    1.59       1.0  T
   3    -85.2468603  0.491397E-07  0.212E-03    1.59       6.6  T
   4    -85.2468605 -0.139509E-06  0.706E-04    1.59      19.8  T
   5    -85.2468605 -0.912091E-08  0.391E-04    1.59      35.9  T
     SCC iter.                  ...        0 min,  0.016 sec
     gradient                   ...        0 min,  0.070 sec
 * total energy  :   -84.1030931 Eh     change       -0.4983353E-04 Eh
   gradient norm :     0.0026951 Eh/α   predicted    -0.3155863E-04 ( -36.67%)
   displ. norm   :     0.2150617 α      lambda       -0.8309409E-04
   maximum displ.:     0.1236282 α      in ANC's #4, #2, #8, ...

........................................................................
.............................. CYCLE   10 ..............................
........................................................................

 iter      E             dE          RMSdq      gap      omega  full diag
   1    -85.2469843 -0.852470E+02  0.571E-02    1.59       0.0  T
   2    -85.2469850 -0.631935E-06  0.335E-02    1.59       1.0  T
   3    -85.2469850 -0.491113E-08  0.227E-03    1.59       6.2  T
   4    -85.2469851 -0.180132E-06  0.994E-04    1.59      14.1  T
   5    -85.2469852 -0.136255E-07  0.566E-04    1.59      24.7  T
     SCC iter.                  ...        0 min,  0.016 sec
     gradient                   ...        0 min,  0.066 sec
 * total energy  :   -84.1031632 Eh     change       -0.7012616E-04 Eh
   gradient norm :     0.0035311 Eh/α   predicted    -0.4346895E-04 ( -38.01%)
   displ. norm   :     0.3262379 α      lambda       -0.1196387E-03
   maximum displ.:     0.1898028 α      in ANC's #4, #2, #8, ...

........................................................................
.............................. CYCLE   11 ..............................
........................................................................

 iter      E             dE          RMSdq      gap      omega  full diag
   1    -85.2460955 -0.852461E+02  0.886E-02    1.59       0.0  T
   2    -85.2460968 -0.123967E-05  0.521E-02    1.59       1.0  T
   3    -85.2460966  0.170696E-06  0.382E-03    1.59       3.7  T
   4    -85.2460972 -0.633546E-06  0.156E-03    1.59       9.0  T
   5    -85.2460973 -0.288176E-07  0.826E-04    1.59      16.9  T
   6    -85.2460973 -0.749701E-08  0.308E-04    1.59      45.4  T
     SCC iter.                  ...        0 min,  0.019 sec
     gradient                   ...        0 min,  0.078 sec
 * total energy  :   -84.1032643 Eh     change       -0.1010669E-03 Eh
   gradient norm :     0.0043469 Eh/α   predicted    -0.6618850E-04 ( -34.51%)
   displ. norm   :     0.3934883 α      lambda       -0.1433118E-03
   maximum displ.:     0.2346010 α      in ANC's #4, #2, #8, ...

........................................................................
.............................. CYCLE   12 ..............................
........................................................................

 iter      E             dE          RMSdq      gap      omega  full diag
   1    -85.2445791 -0.852446E+02  0.108E-01    1.59       0.0  T
   2    -85.2445811 -0.206293E-05  0.632E-02    1.59       1.0  T
   3    -85.2445803  0.866804E-06  0.571E-03    1.59       2.5  T
   4    -85.2445819 -0.160183E-05  0.196E-03    1.59       7.1  T
   5    -85.2445819 -0.537411E-07  0.105E-03    1.59      13.4  T
   6    -85.2445819 -0.971596E-08  0.397E-04    1.59      35.3  T
   7    -85.2445819 -0.240573E-08  0.163E-04    1.59      86.0  T
     SCC iter.                  ...        0 min,  0.022 sec
     gradient                   ...        0 min,  0.072 sec
 * total energy  :   -84.1033810 Eh     change       -0.1167149E-03 Eh
   gradient norm :     0.0055580 Eh/α   predicted    -0.8275218E-04 ( -29.10%)
   displ. norm   :     0.3665123 α      lambda       -0.1514776E-03
   maximum displ.:     0.2267332 α      in ANC's #4, #2, #6, ...

........................................................................
.............................. CYCLE   13 ..............................
........................................................................

 iter      E             dE          RMSdq      gap      omega  full diag
   1    -85.2440344 -0.852440E+02  0.995E-02    1.60       0.0  T
   2    -85.2440362 -0.187544E-05  0.585E-02    1.60       1.0  T
   3    -85.2440352  0.105309E-05  0.594E-03    1.60       2.4  T
   4    -85.2440369 -0.168245E-05  0.186E-03    1.60       7.5  T
   5    -85.2440369 -0.603821E-07  0.995E-04    1.60      14.1  T
   6    -85.2440369 -0.613552E-08  0.315E-04    1.60      44.4  T
     SCC iter.                  ...        0 min,  0.019 sec
     gradient                   ...        0 min,  0.072 sec
 * total energy  :   -84.1035040 Eh     change       -0.1230040E-03 Eh
   gradient norm :     0.0054714 Eh/α   predicted    -0.8591412E-04 ( -30.15%)
   displ. norm   :     0.3575399 α      lambda       -0.1650772E-03
   maximum displ.:     0.2299245 α      in ANC's #4, #2, #6, ...

........................................................................
.............................. CYCLE   14 ..............................
........................................................................

 iter      E             dE          RMSdq      gap      omega  full diag
   1    -85.2446925 -0.852447E+02  0.961E-02    1.61       0.0  T
   2    -85.2446942 -0.168120E-05  0.564E-02    1.61       1.0  T
   3    -85.2446935  0.685797E-06  0.519E-03    1.61       2.7  T
   4    -85.2446947 -0.119520E-05  0.174E-03    1.61       8.1  T
   5    -85.2446948 -0.579133E-07  0.922E-04    1.61      15.2  T
   6    -85.2446948 -0.499872E-08  0.266E-04    1.61      52.6  T
     SCC iter.                  ...        0 min,  0.019 sec
     gradient                   ...        0 min,  0.072 sec
 * total energy  :   -84.1036359 Eh     change       -0.1318790E-03 Eh
   gradient norm :     0.0044484 Eh/α   predicted    -0.9309268E-04 ( -29.41%)
   displ. norm   :     0.4144122 α      lambda       -0.1517590E-03
   maximum displ.:     0.2706097 α      in ANC's #4, #2, #6, ...

........................................................................
.............................. CYCLE   15 ..............................
........................................................................

 iter      E             dE          RMSdq      gap      omega  full diag
   1    -85.2440869 -0.852441E+02  0.111E-01    1.62       0.0  T
   2    -85.2440886 -0.168786E-05  0.652E-02    1.62       1.0  T
   3    -85.2440880  0.652530E-06  0.511E-03    1.62       2.7  T
   4    -85.2440893 -0.128184E-05  0.184E-03    1.62       7.6  T
   5    -85.2440893 -0.524863E-07  0.942E-04    1.62      14.9  T
   6    -85.2440893 -0.788198E-08  0.302E-04    1.62      46.4  T
     SCC iter.                  ...        0 min,  0.019 sec
     gradient                   ...        0 min,  0.081 sec
 * total energy  :   -84.1037555 Eh     change       -0.1195512E-03 Eh
   gradient norm :     0.0049560 Eh/α   predicted    -0.8891299E-04 ( -25.63%)
   displ. norm   :     0.3473736 α      lambda       -0.1499154E-03
   maximum displ.:     0.2355670 α      in ANC's #4, #2, #6, ...

........................................................................
.............................. CYCLE   16 ..............................
........................................................................

 iter      E             dE          RMSdq      gap      omega  full diag
   1    -85.2472459 -0.852472E+02  0.930E-02    1.65       0.0  T
   2    -85.2472484 -0.249354E-05  0.545E-02    1.65       1.0  T
   3    -85.2472474  0.105239E-05  0.581E-03    1.65       2.4  T
   4    -85.2472489 -0.156144E-05  0.155E-03    1.65       9.0  T
   5    -85.2472490 -0.501847E-07  0.814E-04    1.65      17.2  T
   6    -85.2472490 -0.450817E-08  0.393E-04    1.65      35.7  T
     SCC iter.                  ...        0 min,  0.019 sec
     gradient                   ...        0 min,  0.066 sec
 * total energy  :   -84.1038478 Eh     change       -0.9232740E-04 Eh
   gradient norm :     0.0053929 Eh/α   predicted    -0.8400305E-04 (  -9.02%)
   displ. norm   :     0.4222183 α      lambda       -0.1270920E-03
   maximum displ.:     0.2815392 α      in ANC's #4, #2, #6, ...

........................................................................
.............................. CYCLE   17 ..............................
........................................................................

 iter      E             dE          RMSdq      gap      omega  full diag
   1    -85.2444483 -0.852444E+02  0.115E-01    1.64       0.0  T
   2    -85.2444513 -0.306130E-05  0.678E-02    1.65       1.0  T
   3    -85.2444488  0.252547E-05  0.776E-03    1.65       1.8  T
   4    -85.2444522 -0.343840E-05  0.205E-03    1.65       6.8  T
   5    -85.2444523 -0.898114E-07  0.106E-03    1.65      13.2  T
   6    -85.2444523 -0.114333E-07  0.471E-04    1.65      29.7  T
   7    -85.2444523 -0.198544E-08  0.165E-04    1.65      85.1  T
     SCC iter.                  ...        0 min,  0.067 sec
     gradient                   ...        0 min,  0.033 sec
 * total energy  :   -84.1039295 Eh     change       -0.8170679E-04 Eh
   gradient norm :     0.0055546 Eh/α   predicted    -0.7487929E-04 (  -8.36%)
   displ. norm   :     0.2080445 α      lambda       -0.8040239E-04
   maximum displ.:     0.1449449 α      in ANC's #4, #2, #1, ...

........................................................................
.............................. CYCLE   18 ..............................
........................................................................

 iter      E             dE          RMSdq      gap      omega  full diag
   1    -85.2456562 -0.852457E+02  0.569E-02    1.66       0.0  T
   2    -85.2456569 -0.643496E-06  0.333E-02    1.66       1.0  T
   3    -85.2456563  0.525515E-06  0.356E-03    1.66       3.9  T
   4    -85.2456570 -0.715161E-06  0.947E-04    1.66      14.8  T
   5    -85.2456571 -0.248939E-07  0.490E-04    1.66      28.6  T
     SCC iter.                  ...        0 min,  0.062 sec
     gradient                   ...        0 min,  0.033 sec
 * total energy  :   -84.1039983 Eh     change       -0.6884415E-04 Eh
   gradient norm :     0.0040299 Eh/α   predicted    -0.4194374E-04 ( -39.07%)
   displ. norm   :     0.3543927 α      lambda       -0.1446899E-03
   maximum displ.:     0.2479047 α      in ANC's #4, #2, #5, ...

........................................................................
.............................. CYCLE   19 ..............................
........................................................................

 iter      E             dE          RMSdq      gap      omega  full diag
   1    -85.2482429 -0.852482E+02  0.101E-01    1.67       0.0  T
   2    -85.2482450 -0.213114E-05  0.593E-02    1.66       1.0  T
   3    -85.2482438  0.121560E-05  0.577E-03    1.67       2.4  T
   4    -85.2482456 -0.175686E-05  0.166E-03    1.67       8.4  T
   5    -85.2482456 -0.790542E-07  0.856E-04    1.67      16.4  T
   6    -85.2482456 -0.323395E-08  0.308E-04    1.67      45.5  T
     SCC iter.                  ...        0 min,  0.063 sec
     gradient                   ...        0 min,  0.033 sec
 * total energy  :   -84.1041033 Eh     change       -0.1049809E-03 Eh
   gradient norm :     0.0025377 Eh/α   predicted    -0.8143655E-04 ( -22.43%)
   displ. norm   :     0.4545714 α      lambda       -0.1007372E-03
   maximum displ.:     0.3155825 α      in ANC's #4, #2, #1, ...

........................................................................
.............................. CYCLE   20 ..............................
........................................................................

 iter      E             dE          RMSdq      gap      omega  full diag
   1    -85.2461611 -0.852462E+02  0.126E-01    1.67       0.0  T
   2    -85.2461632 -0.209865E-05  0.740E-02    1.67       1.0  T
   3    -85.2461603  0.296463E-05  0.832E-03    1.68       1.7  T
   4    -85.2461642 -0.397640E-05  0.179E-03    1.67       7.8  T
   5    -85.2461643 -0.320864E-07  0.962E-04    1.67      14.6  T
   6    -85.2461643 -0.381672E-08  0.260E-04    1.67      53.8  T
     SCC iter.                  ...        0 min,  0.052 sec
     gradient                   ...        0 min,  0.033 sec
 * total energy  :   -84.1041744 Eh     change       -0.7112449E-04 Eh
   gradient norm :     0.0044085 Eh/α   predicted    -0.6077689E-04 ( -14.55%)
   displ. norm   :     0.3675759 α      lambda       -0.1027859E-03
   maximum displ.:     0.2534780 α      in ANC's #4, #5, #2, ...
 * RMSD in coord.:     0.6590756 α      energy gain  -0.1150400E-01 Eh

generating ANC from exact Hessian ...
Using Lindh-Hessian (1995)
 Shifting diagonal of input Hessian by    9.8606188964083033E-003
 Lowest  eigenvalues of input Hessian
    0.000000    0.000000    0.000000    0.000000    0.000000    0.010000
    0.000000    0.010195    0.010319    0.010511    0.010988    0.011405
    0.012173    0.013545    0.013879    0.015704    0.016251    0.017769
 Highest eigenvalues
    2.075379    2.104546    2.141207    2.186427    2.374134    2.550135


........................................................................
.............................. CYCLE   21 ..............................
........................................................................

 iter      E             dE          RMSdq      gap      omega  full diag
   1    -85.2479754 -0.852480E+02  0.105E-01    1.68       0.0  T
   2    -85.2479767 -0.130966E-05  0.616E-02    1.68       1.0  T
   3    -85.2479756  0.111336E-05  0.534E-03    1.68       2.6  T
   4    -85.2479773 -0.168622E-05  0.148E-03    1.68       9.5  T
   5    -85.2479773 -0.276943E-07  0.754E-04    1.68      18.6  T
   6    -85.2479773 -0.311707E-08  0.242E-04    1.68      57.8  T
     SCC iter.                  ...        0 min,  0.019 sec
     gradient                   ...        0 min,  0.069 sec
 * total energy  :   -84.1042490 Eh     change       -0.7458573E-04 Eh
   gradient norm :     0.0046684 Eh/α   predicted     0.0000000E+00 (-100.00%)
   displ. norm   :     0.0406822 α      lambda       -0.3163952E-04
   maximum displ.:     0.0218832 α      in ANC's #6, #5, #4, ...

........................................................................
.............................. CYCLE   22 ..............................
........................................................................

 iter      E             dE          RMSdq      gap      omega  full diag
   1    -85.2487319 -0.852487E+02  0.130E-02    1.68       0.0  T
   2    -85.2487322 -0.324006E-06  0.768E-03    1.68       1.8  T
   3    -85.2487322  0.566667E-07  0.167E-03    1.68       8.4  T
   4    -85.2487322 -0.729737E-07  0.487E-04    1.68      28.8  T
   5    -85.2487322 -0.127790E-07  0.161E-04    1.68      87.0  T
     SCC iter.                  ...        0 min,  0.016 sec
     gradient                   ...        0 min,  0.072 sec
 * total energy  :   -84.1042883 Eh     change       -0.3929987E-04 Eh
   gradient norm :     0.0023413 Eh/α   predicted    -0.2514685E-04 ( -36.01%)
   displ. norm   :     0.0998627 α      lambda       -0.6318488E-04
   maximum displ.:     0.0581857 α      in ANC's #6, #5, #4, ...

........................................................................
.............................. CYCLE   23 ..............................
........................................................................

 iter      E             dE          RMSdq      gap      omega  full diag
   1    -85.2492234 -0.852492E+02  0.269E-02    1.68       0.0  T
   2    -85.2492241 -0.701316E-06  0.158E-02    1.68       1.0  T
   3    -85.2492241  0.282661E-07  0.191E-03    1.68       7.3  T
   4    -85.2492241 -0.809104E-07  0.575E-04    1.68      24.3  T
   5    -85.2492241 -0.970799E-08  0.285E-04    1.68      49.2  T
     SCC iter.                  ...        0 min,  0.016 sec
     gradient                   ...        0 min,  0.060 sec
 * total energy  :   -84.1043286 Eh     change       -0.4025336E-04 Eh
   gradient norm :     0.0016978 Eh/α   predicted    -0.3190784E-04 ( -20.73%)
   displ. norm   :     0.1146208 α      lambda       -0.2328341E-04
   maximum displ.:     0.0668775 α      in ANC's #6, #5, #4, ...

........................................................................
.............................. CYCLE   24 ..............................
........................................................................

 iter      E             dE          RMSdq      gap      omega  full diag
   1    -85.2488960 -0.852489E+02  0.291E-02    1.68       0.0  T
   2    -85.2488963 -0.265225E-06  0.171E-02    1.68       1.0  T
   3    -85.2488962  0.612436E-07  0.164E-03    1.68       8.5  T
   4    -85.2488963 -0.115302E-06  0.514E-04    1.68      27.3  T
   5    -85.2488963 -0.584185E-08  0.281E-04    1.68      49.9  T
     SCC iter.                  ...        0 min,  0.016 sec
     gradient                   ...        0 min,  0.072 sec
 * total energy  :   -84.1043540 Eh     change       -0.2544141E-04 Eh
   gradient norm :     0.0024132 Eh/α   predicted    -0.1171035E-04 ( -53.97%)
   displ. norm   :     0.0855093 α      lambda       -0.2617587E-04
   maximum displ.:     0.0473158 α      in ANC's #6, #5, #4, ...

........................................................................
.............................. CYCLE   25 ..............................
........................................................................

 iter      E             dE          RMSdq      gap      omega  full diag
   1    -85.2486065 -0.852486E+02  0.223E-02    1.68       0.0  T
   2    -85.2486065 -0.764583E-07  0.131E-02    1.68       1.1  T
   3    -85.2486065  0.784246E-07  0.141E-03    1.68       9.9  T
   4    -85.2486066 -0.112951E-06  0.337E-04    1.68      41.6  T
   5    -85.2486066 -0.995527E-09  0.189E-04    1.68      74.1  T
     SCC iter.                  ...        0 min,  0.016 sec
     gradient                   ...        0 min,  0.033 sec
 * total energy  :   -84.1043771 Eh     change       -0.2305136E-04 Eh
   gradient norm :     0.0019393 Eh/α   predicted    -0.1318482E-04 ( -42.80%)
   displ. norm   :     0.3114471 α      lambda       -0.5572322E-04
   maximum displ.:     0.1654680 α      in ANC's #6, #5, #4, ...

........................................................................
.............................. CYCLE   26 ..............................
........................................................................

 iter      E             dE          RMSdq      gap      omega  full diag
   1    -85.2473162 -0.852473E+02  0.836E-02    1.69       0.0  T
   2    -85.2473172 -0.926602E-06  0.491E-02    1.69       1.0  T
   3    -85.2473164  0.811228E-06  0.464E-03    1.69       3.0  T
   4    -85.2473176 -0.122508E-05  0.118E-03    1.69      11.8  T
   5    -85.2473176 -0.138293E-07  0.637E-04    1.69      22.0  T
   6    -85.2473176 -0.287315E-08  0.235E-04    1.69      59.7  T
     SCC iter.                  ...        0 min,  0.019 sec
     gradient                   ...        0 min,  0.033 sec
 * total energy  :   -84.1044302 Eh     change       -0.5317363E-04 Eh
   gradient norm :     0.0029019 Eh/α   predicted    -0.2912195E-04 ( -45.23%)
   displ. norm   :     0.1389128 α      lambda       -0.2744469E-04
   maximum displ.:     0.0700653 α      in ANC's #6, #5, #1, ...

........................................................................
.............................. CYCLE   27 ..............................
........................................................................

 iter      E             dE          RMSdq      gap      omega  full diag
   1    -85.2474566 -0.852475E+02  0.385E-02    1.69       0.0  T
   2    -85.2474567 -0.141913E-06  0.226E-02    1.69       1.0  T
   3    -85.2474567  0.925256E-07  0.171E-03    1.69       8.2  T
   4    -85.2474568 -0.164397E-06  0.501E-04    1.69      28.0  T
   5    -85.2474568 -0.187008E-08  0.251E-04    1.69      55.7  T
     SCC iter.                  ...        0 min,  0.031 sec
     gradient                   ...        0 min,  0.033 sec
 * total energy  :   -84.1044537 Eh     change       -0.2347701E-04 Eh
   gradient norm :     0.0025517 Eh/α   predicted    -0.1398748E-04 ( -40.42%)
   displ. norm   :     0.2770793 α      lambda       -0.5480796E-04
   maximum displ.:     0.1323282 α      in ANC's #5, #6, #1, ...

........................................................................
.............................. CYCLE   28 ..............................
........................................................................

 iter      E             dE          RMSdq      gap      omega  full diag
   1    -85.2478501 -0.852479E+02  0.790E-02    1.70       0.0  T
   2    -85.2478507 -0.590113E-06  0.463E-02    1.70       1.0  T
   3    -85.2478504  0.314271E-06  0.331E-03    1.70       4.2  T
   4    -85.2478510 -0.590406E-06  0.980E-04    1.70      14.3  T
   5    -85.2478510 -0.848476E-08  0.520E-04    1.70      26.9  T
     SCC iter.                  ...        0 min,  0.015 sec
     gradient                   ...        0 min,  0.058 sec
 * total energy  :   -84.1044941 Eh     change       -0.4035350E-04 Eh
   gradient norm :     0.0014803 Eh/α   predicted    -0.2951511E-04 ( -26.86%)
   displ. norm   :     0.3249157 α      lambda       -0.3035465E-04
   maximum displ.:     0.1551500 α      in ANC's #1, #5, #4, ...

........................................................................
.............................. CYCLE   29 ..............................
........................................................................

 iter      E             dE          RMSdq      gap      omega  full diag
   1    -85.2481422 -0.852481E+02  0.940E-02    1.71       0.0  T
   2    -85.2481430 -0.769658E-06  0.552E-02    1.71       1.0  T
   3    -85.2481425  0.420301E-06  0.386E-03    1.71       3.6  T
   4    -85.2481433 -0.785921E-06  0.111E-03    1.71      12.6  T
   5    -85.2481433 -0.964813E-08  0.583E-04    1.71      24.0  T
   6    -85.2481433 -0.288060E-08  0.176E-04    1.71      79.7  T
     SCC iter.                  ...        0 min,  0.019 sec
     gradient                   ...        0 min,  0.066 sec
 * total energy  :   -84.1045224 Eh     change       -0.2829248E-04 Eh
   gradient norm :     0.0012479 Eh/α   predicted    -0.1588962E-04 ( -43.84%)
   displ. norm   :     0.1052287 α      lambda       -0.1276152E-04
   maximum displ.:     0.0597263 α      in ANC's #1, #3, #4, ...

........................................................................
.............................. CYCLE   30 ..............................
........................................................................

 iter      E             dE          RMSdq      gap      omega  full diag
   1    -85.2493783 -0.852494E+02  0.289E-02    1.71       0.0  T
   2    -85.2493784 -0.102715E-06  0.170E-02    1.71       1.0  T
   3    -85.2493783  0.104229E-06  0.161E-03    1.71       8.7  T
   4    -85.2493784 -0.144782E-06  0.352E-04    1.71      39.8  T
   5    -85.2493784 -0.158050E-08  0.192E-04    1.71      72.9  T
     SCC iter.                  ...        0 min,  0.016 sec
     gradient                   ...        0 min,  0.033 sec
 * total energy  :   -84.1045375 Eh     change       -0.1512829E-04 Eh
   gradient norm :     0.0011285 Eh/α   predicted    -0.6412460E-05 ( -57.61%)
   displ. norm   :     0.1702700 α      lambda       -0.1883619E-04
   maximum displ.:     0.0942183 α      in ANC's #1, #3, #4, ...

........................................................................
.............................. CYCLE   31 ..............................
........................................................................

 iter      E             dE          RMSdq      gap      omega  full diag
   1    -85.2493645 -0.852494E+02  0.465E-02    1.71       0.0  T
   2    -85.2493647 -0.194542E-06  0.273E-02    1.71       1.0  T
   3    -85.2493644  0.269705E-06  0.256E-03    1.71       5.5  T
   4    -85.2493648 -0.373912E-06  0.534E-04    1.71      26.2  T
   5    -85.2493648 -0.133431E-08  0.267E-04    1.71      52.4  T
     SCC iter.                  ...        0 min,  0.016 sec
     gradient                   ...        0 min,  0.033 sec
 * total energy  :   -84.1045598 Eh     change       -0.2228092E-04 Eh
   gradient norm :     0.0008919 Eh/α   predicted    -0.9541537E-05 ( -57.18%)
   displ. norm   :     0.1737711 α      lambda       -0.1731921E-04
   maximum displ.:     0.0999369 α      in ANC's #1, #3, #4, ...

........................................................................
.............................. CYCLE   32 ..............................
........................................................................

 iter      E             dE          RMSdq      gap      omega  full diag
   1    -85.2494304 -0.852494E+02  0.446E-02    1.72       0.0  T
   2    -85.2494306 -0.253634E-06  0.262E-02    1.72       1.0  T
   3    -85.2494304  0.206391E-06  0.239E-03    1.72       5.9  T
   4    -85.2494307 -0.299855E-06  0.598E-04    1.72      23.4  T
   5    -85.2494307 -0.591001E-08  0.314E-04    1.72      44.6  T
     SCC iter.                  ...        0 min,  0.037 sec
     gradient                   ...        0 min,  0.033 sec
 * total energy  :   -84.1045803 Eh     change       -0.2052702E-04 Eh
   gradient norm :     0.0011431 Eh/α   predicted    -0.8776502E-05 ( -57.24%)
   displ. norm   :     0.1900240 α      lambda       -0.1830637E-04
   maximum displ.:     0.1107821 α      in ANC's #1, #3, #2, ...

........................................................................
.............................. CYCLE   33 ..............................
........................................................................

 iter      E             dE          RMSdq      gap      omega  full diag
   1    -85.2493896 -0.852494E+02  0.473E-02    1.72       0.0  T
   2    -85.2493899 -0.267890E-06  0.278E-02    1.72       1.0  T
   3    -85.2493896  0.290437E-06  0.262E-03    1.72       5.3  T
   4    -85.2493900 -0.403979E-06  0.617E-04    1.72      22.7  T
   5    -85.2493900 -0.526251E-08  0.333E-04    1.72      42.0  T
     SCC iter.                  ...        0 min,  0.060 sec
     gradient                   ...        0 min,  0.033 sec
 * total energy  :   -84.1046026 Eh     change       -0.2233146E-04 Eh
   gradient norm :     0.0012493 Eh/α   predicted    -0.9300685E-05 ( -58.35%)
   displ. norm   :     0.2323102 α      lambda       -0.2269704E-04
   maximum displ.:     0.1365945 α      in ANC's #1, #3, #2, ...

........................................................................
.............................. CYCLE   34 ..............................
........................................................................

 iter      E             dE          RMSdq      gap      omega  full diag
   1    -85.2490484 -0.852490E+02  0.563E-02    1.73       0.0  T
   2    -85.2490487 -0.278081E-06  0.331E-02    1.73       1.0  T
   3    -85.2490484  0.269451E-06  0.276E-03    1.73       5.1  T
   4    -85.2490488 -0.427716E-06  0.734E-04    1.73      19.1  T
   5    -85.2490488 -0.199101E-08  0.315E-04    1.73      44.5  T
     SCC iter.                  ...        0 min,  0.055 sec
     gradient                   ...        0 min,  0.033 sec
 * total energy  :   -84.1046308 Eh     change       -0.2815886E-04 Eh
   gradient norm :     0.0013160 Eh/α   predicted    -0.1162390E-04 ( -58.72%)
   displ. norm   :     0.3002823 α      lambda       -0.2811401E-04
   maximum displ.:     0.1790289 α      in ANC's #1, #3, #2, ...

........................................................................
.............................. CYCLE   35 ..............................
........................................................................

 iter      E             dE          RMSdq      gap      omega  full diag
   1    -85.2486664 -0.852487E+02  0.718E-02    1.73       0.0  T
   2    -85.2486668 -0.463918E-06  0.421E-02    1.73       1.0  T
   3    -85.2486663  0.491711E-06  0.365E-03    1.73       3.8  T
   4    -85.2486671 -0.759101E-06  0.933E-04    1.73      15.0  T
   5    -85.2486671 -0.317755E-08  0.432E-04    1.73      32.4  T
     SCC iter.                  ...        0 min,  0.016 sec
     gradient                   ...        0 min,  0.065 sec
 * total energy  :   -84.1046641 Eh     change       -0.3332480E-04 Eh
   gradient norm :     0.0012686 Eh/α   predicted    -0.1462297E-04 ( -56.12%)
   displ. norm   :     0.3159047 α      lambda       -0.2715350E-04
   maximum displ.:     0.1935079 α      in ANC's #1, #3, #2, ...

........................................................................
.............................. CYCLE   36 ..............................
........................................................................

 iter      E             dE          RMSdq      gap      omega  full diag
   1    -85.2482114 -0.852482E+02  0.748E-02    1.74       0.0  T
   2    -85.2482120 -0.579449E-06  0.439E-02    1.74       1.0  T
   3    -85.2482115  0.471646E-06  0.370E-03    1.74       3.8  T
   4    -85.2482123 -0.767911E-06  0.104E-03    1.74      13.5  T
   5    -85.2482123 -0.926470E-08  0.553E-04    1.74      25.3  T
   6    -85.2482123 -0.152203E-08  0.134E-04    1.74     104.2  T
     SCC iter.                  ...        0 min,  0.019 sec
     gradient                   ...        0 min,  0.066 sec
 * total energy  :   -84.1046949 Eh     change       -0.3078637E-04 Eh
   gradient norm :     0.0018556 Eh/α   predicted    -0.1417960E-04 ( -53.94%)
   displ. norm   :     0.3039321 α      lambda       -0.2598041E-04
   maximum displ.:     0.1932869 α      in ANC's #1, #3, #2, ...

........................................................................
.............................. CYCLE   37 ..............................
........................................................................

 iter      E             dE          RMSdq      gap      omega  full diag
   1    -85.2484427 -0.852484E+02  0.688E-02    1.75       0.0  T
   2    -85.2484432 -0.481859E-06  0.404E-02    1.75       1.0  T
   3    -85.2484427  0.468457E-06  0.361E-03    1.75       3.9  T
   4    -85.2484435 -0.744919E-06  0.944E-04    1.75      14.8  T
   5    -85.2484435 -0.350049E-08  0.457E-04    1.75      30.7  T
     SCC iter.                  ...        0 min,  0.016 sec
     gradient                   ...        0 min,  0.066 sec
 * total energy  :   -84.1047239 Eh     change       -0.2901210E-04 Eh
   gradient norm :     0.0015784 Eh/α   predicted    -0.1352461E-04 ( -53.38%)
   displ. norm   :     0.2814946 α      lambda       -0.2506700E-04
   maximum displ.:     0.1868829 α      in ANC's #1, #3, #2, ...

........................................................................
.............................. CYCLE   38 ..............................
........................................................................

 iter      E             dE          RMSdq      gap      omega  full diag
   1    -85.2487039 -0.852487E+02  0.624E-02    1.76       0.0  T
   2    -85.2487044 -0.496490E-06  0.367E-02    1.76       1.0  T
   3    -85.2487040  0.400435E-06  0.344E-03    1.76       4.1  T
   4    -85.2487047 -0.646628E-06  0.917E-04    1.76      15.3  T
   5    -85.2487047 -0.616085E-08  0.497E-04    1.76      28.2  T
     SCC iter.                  ...        0 min,  0.016 sec
     gradient                   ...        0 min,  0.076 sec
 * total energy  :   -84.1047527 Eh     change       -0.2882442E-04 Eh
   gradient norm :     0.0016165 Eh/α   predicted    -0.1297884E-04 ( -54.97%)
   displ. norm   :     0.2948521 α      lambda       -0.2662196E-04
   maximum displ.:     0.2009481 α      in ANC's #1, #3, #2, ...

........................................................................
.............................. CYCLE   39 ..............................
........................................................................

 iter      E             dE          RMSdq      gap      omega  full diag
   1    -85.2490115 -0.852490E+02  0.626E-02    1.76       0.0  T
   2    -85.2490121 -0.532064E-06  0.368E-02    1.76       1.0  T
   3    -85.2490117  0.337342E-06  0.327E-03    1.76       4.3  T
   4    -85.2490123 -0.579338E-06  0.930E-04    1.76      15.1  T
   5    -85.2490123 -0.870375E-08  0.479E-04    1.76      29.2  T
     SCC iter.                  ...        0 min,  0.016 sec
     gradient                   ...        0 min,  0.060 sec
 * total energy  :   -84.1047823 Eh     change       -0.2951666E-04 Eh
   gradient norm :     0.0018560 Eh/α   predicted    -0.1382936E-04 ( -53.15%)
   displ. norm   :     0.2697680 α      lambda       -0.2438552E-04
   maximum displ.:     0.1884822 α      in ANC's #1, #3, #2, ...

........................................................................
.............................. CYCLE   40 ..............................
........................................................................

 iter      E             dE          RMSdq      gap      omega  full diag
   1    -85.2497552 -0.852498E+02  0.571E-02    1.76       0.0  T
   2    -85.2497559 -0.774868E-06  0.335E-02    1.76       1.0  T
   3    -85.2497554  0.505289E-06  0.371E-03    1.76       3.8  T
   4    -85.2497561 -0.715551E-06  0.965E-04    1.76      14.5  T
   5    -85.2497562 -0.216427E-07  0.491E-04    1.76      28.5  T
     SCC iter.                  ...        0 min,  0.016 sec
     gradient                   ...        0 min,  0.033 sec
 * total energy  :   -84.1048066 Eh     change       -0.2430580E-04 Eh
   gradient norm :     0.0019100 Eh/α   predicted    -0.1259168E-04 ( -48.19%)
   displ. norm   :     0.2717636 α      lambda       -0.1806218E-04
   maximum displ.:     0.1869532 α      in ANC's #1, #3, #4, ...

........................................................................
.............................. CYCLE   41 ..............................
........................................................................

 iter      E             dE          RMSdq      gap      omega  full diag
   1    -85.2484966 -0.852485E+02  0.601E-02    1.76       0.0  T
   2    -85.2484973 -0.676864E-06  0.353E-02    1.76       1.0  T
   3    -85.2484969  0.453899E-06  0.368E-03    1.76       3.8  T
   4    -85.2484975 -0.672076E-06  0.931E-04    1.76      15.0  T
   5    -85.2484975 -0.148572E-07  0.493E-04    1.76      28.4  T
     SCC iter.                  ...        0 min,  0.025 sec
     gradient                   ...        0 min,  0.033 sec
 * total energy  :   -84.1048230 Eh     change       -0.1642235E-04 Eh
   gradient norm :     0.0019671 Eh/α   predicted    -0.9328473E-05 ( -43.20%)
   displ. norm   :     0.1829676 α      lambda       -0.1667392E-04
   maximum displ.:     0.1343175 α      in ANC's #1, #3, #6, ...

........................................................................
.............................. CYCLE   42 ..............................
........................................................................

 iter      E             dE          RMSdq      gap      omega  full diag
   1    -85.2503472 -0.852503E+02  0.379E-02    1.75       0.0  T
   2    -85.2503475 -0.340935E-06  0.223E-02    1.75       1.0  T
   3    -85.2503473  0.223581E-06  0.251E-03    1.76       5.6  T
   4    -85.2503476 -0.325713E-06  0.571E-04    1.76      24.5  T
   5    -85.2503476 -0.435490E-08  0.329E-04    1.76      42.6  T
     SCC iter.                  ...        0 min,  0.016 sec
     gradient                   ...        0 min,  0.036 sec
 * total energy  :   -84.1048362 Eh     change       -0.1317176E-04 Eh
   gradient norm :     0.0015985 Eh/α   predicted    -0.8463059E-05 ( -35.75%)
   displ. norm   :     0.2921106 α      lambda       -0.1684493E-04
   maximum displ.:     0.2062105 α      in ANC's #1, #3, #4, ...
 * RMSD in coord.:     0.5510294 α      energy gain  -0.6617192E-03 Eh

generating ANC from exact Hessian ...
Using Lindh-Hessian (1995)
 Shifting diagonal of input Hessian by    9.8598694892354528E-003
 Lowest  eigenvalues of input Hessian
    0.000000    0.000000    0.000000    0.000000    0.000000    0.000000
    0.010000    0.010218    0.010300    0.010508    0.010970    0.011393
    0.012269    0.013419    0.013896    0.015819    0.016199    0.017581
 Highest eigenvalues
    2.075806    2.103105    2.141360    2.186201    2.374555    2.552201


........................................................................
.............................. CYCLE   43 ..............................
........................................................................

 iter      E             dE          RMSdq      gap      omega  full diag
   1    -85.2488834 -0.852489E+02  0.667E-02    1.75       0.0  T
   2    -85.2488843 -0.822532E-06  0.392E-02    1.75       1.0  T
   3    -85.2488839  0.353435E-06  0.318E-03    1.75       4.4  T
   4    -85.2488845 -0.555463E-06  0.942E-04    1.75      14.9  T
   5    -85.2488845 -0.232185E-07  0.494E-04    1.75      28.3  T
     SCC iter.                  ...        0 min,  0.016 sec
     gradient                   ...        0 min,  0.061 sec
 * total energy  :   -84.1048492 Eh     change       -0.1301427E-04 Eh
   gradient norm :     0.0024411 Eh/α   predicted     0.0000000E+00 (-100.00%)
   displ. norm   :     0.0182246 α      lambda       -0.1300830E-04
   maximum displ.:     0.0110241 α      in ANC's #9, #15, #8, ...

........................................................................
.............................. CYCLE   44 ..............................
........................................................................

 iter      E             dE          RMSdq      gap      omega  full diag
   1    -85.2498154 -0.852498E+02  0.703E-03    1.75       0.0  T
   2    -85.2498155 -0.106357E-06  0.422E-03    1.75       3.3  T
   3    -85.2498155  0.753657E-07  0.146E-03    1.75       9.6  T
   4    -85.2498156 -0.995995E-07  0.252E-04    1.75      55.5  T
   5    -85.2498156 -0.195419E-08  0.126E-04    1.75     111.1  T
     SCC iter.                  ...        0 min,  0.016 sec
     gradient                   ...        0 min,  0.065 sec
 * total energy  :   -84.1048593 Eh     change       -0.1014972E-04 Eh
   gradient norm :     0.0008593 Eh/α   predicted    -0.7275289E-05 ( -28.32%)
   displ. norm   :     0.0454149 α      lambda       -0.8988613E-05
   maximum displ.:     0.0285616 α      in ANC's #9, #8, #15, ...

........................................................................
.............................. CYCLE   45 ..............................
........................................................................

 iter      E             dE          RMSdq      gap      omega  full diag
   1    -85.2505772 -0.852506E+02  0.136E-02    1.76       0.0  T
   2    -85.2505773 -0.147760E-06  0.800E-03    1.76       1.8  T
   3    -85.2505772  0.160701E-06  0.203E-03    1.76       6.9  T
   4    -85.2505774 -0.203846E-06  0.377E-04    1.76      37.2  T
   5    -85.2505774 -0.348346E-08  0.195E-04    1.76      71.9  T
     SCC iter.                  ...        0 min,  0.016 sec
     gradient                   ...        0 min,  0.033 sec
 * total energy  :   -84.1048670 Eh     change       -0.7685788E-05 Eh
   gradient norm :     0.0013479 Eh/α   predicted    -0.4500625E-05 ( -41.44%)
   displ. norm   :     0.0383261 α      lambda       -0.4764450E-05
   maximum displ.:     0.0214378 α      in ANC's #9, #8, #3, ...

........................................................................
.............................. CYCLE   46 ..............................
........................................................................

 iter      E             dE          RMSdq      gap      omega  full diag
   1    -85.2501767 -0.852502E+02  0.101E-02    1.76       0.0  T
   2    -85.2501767 -0.353180E-07  0.597E-03    1.76       2.3  T
   3    -85.2501767  0.537072E-08  0.592E-04    1.76      23.6  T
   4    -85.2501767 -0.129994E-07  0.221E-04    1.76      63.4  T
     SCC iter.                  ...        0 min,  0.028 sec
     gradient                   ...        0 min,  0.033 sec
 * total energy  :   -84.1048727 Eh     change       -0.5658133E-05 Eh
   gradient norm :     0.0009157 Eh/α   predicted    -0.2411116E-05 ( -57.39%)
   displ. norm   :     0.0688042 α      lambda       -0.6042876E-05
   maximum displ.:     0.0328304 α      in ANC's #8, #9, #3, ...

........................................................................
.............................. CYCLE   47 ..............................
........................................................................

 iter      E             dE          RMSdq      gap      omega  full diag
   1    -85.2495936 -0.852496E+02  0.159E-02    1.76       0.0  T
   2    -85.2495937 -0.727505E-07  0.938E-03    1.76       1.5  T
   3    -85.2495937  0.371991E-07  0.112E-03    1.76      12.5  T
   4    -85.2495937 -0.589378E-07  0.329E-04    1.76      42.5  T
   5    -85.2495937 -0.123491E-08  0.162E-04    1.76      86.6  T
     SCC iter.                  ...        0 min,  0.016 sec
     gradient                   ...        0 min,  0.036 sec
 * total energy  :   -84.1048783 Eh     change       -0.5648699E-05 Eh
   gradient norm :     0.0006134 Eh/α   predicted    -0.3028217E-05 ( -46.39%)
   displ. norm   :     0.0512210 α      lambda       -0.2975726E-05
   maximum displ.:     0.0269778 α      in ANC's #8, #3, #1, ...

........................................................................
.............................. CYCLE   48 ..............................
........................................................................

 iter      E             dE          RMSdq      gap      omega  full diag
   1    -85.2494275 -0.852494E+02  0.109E-02    1.76       0.0  T
   2    -85.2494276 -0.276360E-07  0.640E-03    1.76       2.2  T
   3    -85.2494275  0.349650E-08  0.573E-04    1.76      24.4  T
   4    -85.2494276 -0.122469E-07  0.227E-04    1.76      61.6  T
     SCC iter.                  ...        0 min,  0.013 sec
     gradient                   ...        0 min,  0.033 sec
 * total energy  :   -84.1048814 Eh     change       -0.3116000E-05 Eh
   gradient norm :     0.0006840 Eh/α   predicted    -0.1492784E-05 ( -52.09%)
   displ. norm   :     0.0772258 α      lambda       -0.4191136E-05
   maximum displ.:     0.0394083 α      in ANC's #8, #1, #3, ...

   *** GEOMETRY OPTIMIZATION CONVERGED AFTER 48 ITERATIONS ***

------------------------------------------------------------------------
 total energy gain   :        -0.0122110 Eh       -7.6625 kcal/mol
 total RMSD          :         1.0927215 a0        0.5782 Å
 total power (kW/mol):        -0.6679155 (step)   -7.0831 (real)
------------------------------------------------------------------------

 ANCopt (total)                0 d,  0 h,  0 min,  4.526 sec
 optimizer setup                ...        0 min,  0.000 sec (  0.002%)
 model hessian                  ...        0 min,  0.112 sec (  2.474%)
 ANC generation                 ...        0 min,  0.006 sec (  0.143%)
 coordinate transformation      ...        0 min,  0.000 sec (  0.011%)
 single point calculation       ...        0 min,  4.394 sec ( 97.080%)
 optimization log               ...        0 min,  0.007 sec (  0.158%)
 hessian update                 ...        0 min,  0.001 sec (  0.018%)
 rational function              ...        0 min,  0.004 sec (  0.080%)

================
 final structure:
================
51
 xtb: 6.7.1 (edcfbbe)
F            7.56229624719917        0.65030264275294       -3.69652325184012
C            6.71935772371953        0.33348576147898       -2.69536964682962
C            6.38846274126016       -0.99556401136979       -2.49361258468135
C            5.51450294470507       -1.32049945359220       -1.47344334302998
C            4.98192208729007       -0.32556155741269       -0.65578175433802
C            5.35474161951336        1.00137785249914       -0.86963654913312
C            6.21574402483047        1.34262733478098       -1.89362056723881
C            4.04820496356463       -0.60046546531671        0.47439175481931
C            3.11314614733230       -1.78741483920916        0.31075012664744
C            2.16277365235266       -1.92928318610141        1.50179755402329
C            1.09949417162710       -0.83477836057891        1.49691154023978
N            0.36302461193046       -0.85461323613061        0.24424123423613
C            1.25531652251399       -0.56487418299440       -0.85871778700928
C            2.28693847509296       -1.68356880293007       -0.97687619871343
C           -0.82113883324085       -0.02178915633421        0.28319581291957
C           -1.99626705574202       -0.81668389108395        0.86727402984140
N           -3.19837982411579       -0.00084587180620        0.94692169693102
C           -3.40712956479111        0.68297343664126        2.12990865662775
N           -4.54498795896437        1.44927201742787        2.17808257701705
C           -5.45485945923617        1.57338143888564        1.15639028201253
C           -6.59779686368690        2.36047777737130        1.28603438577724
C           -7.48634086277731        2.45286664516642        0.23447134672847
C           -7.25325528791097        1.76969292772838       -0.95497891232867
C           -6.12295471786659        0.99303604267976       -1.09024736352804
C           -5.21399044192358        0.88692061077579       -0.03780344071427
C           -4.00913011527083        0.06260819884216       -0.18010893224765
O           -3.71719978176603       -0.53921651060313       -1.19120735025037
O           -2.65470421676891        0.61717591279599        3.07387208670522
O            4.05767354177400        0.10127665464280        1.45938457494469
H            6.81549361783006       -1.75487901609830       -3.12964661636120
H            5.27091978755547       -2.35802478065231       -1.30497206246251
H            4.95160366196203        1.76170929145579       -0.21781666408908
H            6.50287704928265        2.36651138556837       -2.07344930587434
H            3.74980739038721       -2.67876556610049        0.25689741476519
H            2.72752231383703       -1.87216499501992        2.43305474998457
H            1.67050432705435       -2.90114584946330        1.44559969611983
H            1.57969202659245        0.14395561371783        1.66024230822036
H            0.40242385011877       -1.00765896620931        2.31796112644427
H            0.66929896515457       -0.51774954817269       -1.77972004364001
H            1.77554960331818        0.40366776756947       -0.72894295070263
H            2.92696197033903       -1.50170677540847       -1.84133346051197
H            1.75510565773023       -2.62421916124047       -1.12692608172709
H           -0.66853791704315        0.89295101407147        0.87993942159457
H           -1.08676078946017        0.27282372293080       -0.73503474652573
H           -1.76198306397708       -1.15852872860846        1.87520262666840
H           -2.20816479740309       -1.66819315017115        0.21959874501090
H           -4.69923480222635        1.94604635486431        3.04532846950043
H           -6.77814419008676        2.89006858974341        2.20981546345643
H           -8.37128615525832        3.06238177242076        0.33873937808481
H           -7.95763771385432        1.84942365216477       -1.76803177388450
H           -5.91127528249426        0.45108064367154       -1.99910567169855

 Bond Distances (Angstroems)
 ---------------------------
F1-C2=1.3466         C2-F1=1.3466         C2-C3=1.3844         C2-C7=1.3838         C3-C2=1.3844         C3-C4=1.3821         
C3-H30=1.0786        C4-C3=1.3821         C4-C5=1.3936         C4-H31=1.0790        C5-C4=1.3936         C5-C6=1.3948         
C5-C8=1.4915         C6-C5=1.3948         C6-C7=1.3807         C6-H32=1.0796        C7-C2=1.3838         C7-C6=1.3807         
C7-H33=1.0785        C8-C5=1.4915         C8-C9=1.5199         C8-O29=1.2094        C9-C8=1.5199         C9-C10=1.5303        
C9-C14=1.5334        C9-H34=1.0967        C10-C9=1.5303        C10-C11=1.5260       C10-H35=1.0906       C10-H36=1.0909       
C11-C10=1.5260       C11-N12=1.4533       C11-H37=1.1024       C11-H38=1.0908       N12-C11=1.4533       N12-C13=1.4480       
N12-C15=1.4482       C13-N12=1.4480       C13-C14=1.5263       C13-H39=1.0926       C13-H40=1.1070       C14-C9=1.5334        
C14-C13=1.5263       C14-H41=1.0909       C14-H42=1.0910       C15-N12=1.4482       C15-C16=1.5343       C15-H43=1.1028       
C15-H44=1.0928       C16-C15=1.5343       C16-N17=1.4550       C16-H45=1.0898       C16-H46=1.0906       N17-C16=1.4550       
N17-C18=1.3823       N17-C26=1.3898       C18-N17=1.3823       C18-N19=1.3727       C18-O28=1.2089       N19-C18=1.3727       
N19-C20=1.3737       N19-H47=1.0113       C20-N19=1.3737       C20-C21=1.3938       C20-C25=1.3983       C21-C20=1.3938       
C21-C22=1.3798       C21-H48=1.0800       C22-C21=1.3798       C22-C23=1.3913       C22-H49=1.0796       C23-C22=1.3913       
C23-C24=1.3781       C23-H50=1.0787       C24-C23=1.3781       C24-C25=1.3947       C24-H51=1.0791       C25-C20=1.3983       
C25-C24=1.3947       C25-C26=1.4668       C26-N17=1.3898       C26-C25=1.4668       C26-O27=1.2123       O27-C26=1.2123       
O28-C18=1.2089       O29-C8=1.2094        H30-C3=1.0786        H31-C4=1.0790        H32-C6=1.0796        H33-C7=1.0785        
H34-C9=1.0967        H35-C10=1.0906       H36-C10=1.0909       H37-C11=1.1024       H38-C11=1.0908       H39-C13=1.0926       
H40-C13=1.1070       H41-C14=1.0909       H42-C14=1.0910       H43-C15=1.1028       H44-C15=1.0928       H45-C16=1.0898       
H46-C16=1.0906       H47-N19=1.0113       H48-C21=1.0800       H49-C22=1.0796       H50-C23=1.0787       H51-C24=1.0791       
 C  H  Rav=1.0887 sigma=0.0087  Rmin=1.0785  Rmax=1.1070    21
 C  C  Rav=1.4392 sigma=0.0646  Rmin=1.3781  Rmax=1.5343    20
 N  H  Rav=1.0113 sigma=0.0000  Rmin=1.0113  Rmax=1.0113     1
 N  C  Rav=1.4154 sigma=0.0362  Rmin=1.3727  Rmax=1.4550     8
 O  C  Rav=1.2102 sigma=0.0015  Rmin=1.2089  Rmax=1.2123     3
 F  C  Rav=1.3466 sigma=0.0000  Rmin=1.3466  Rmax=1.3466     1

 selected bond angles (degree)
 --------------------
C3-C2-F1=118.94                C7-C2-F1=119.14                C7-C2-C3=121.92                C4-C3-C2=118.97                
H30-C3-C2=119.69               H30-C3-C4=121.34               C5-C4-C3=120.46                H31-C4-C3=118.95               
H31-C4-C5=120.57               C6-C5-C4=119.15                C8-C5-C4=123.52                C8-C5-C6=117.31                
C7-C6-C5=121.03                H32-C6-C5=118.53               H32-C6-C7=120.44               C6-C7-C2=118.45                
H33-C7-C2=119.92               H33-C7-C6=121.62               C9-C8-C5=116.58                O29-C8-C5=120.35               
O29-C8-C9=123.07               C10-C9-C8=111.76               C14-C9-C8=111.65               C14-C9-C10=108.98              
H34-C9-C8=106.43               H34-C9-C10=108.87              H34-C9-C14=109.06              C11-C10-C9=111.33              
H35-C10-C9=109.76              H35-C10-C11=109.03             H36-C10-C9=108.83              H36-C10-C11=108.93             
H36-C10-H35=108.92             

 selected dihedral angles (degree)
 ---------------------------------
C4-C3-C2-F1=180.54            C4-C3-C2-C7=  0.95            H30-C3-C2-F1=  0.65           H30-C3-C2-C7=181.06           
C5-C4-C3-C2=359.59            C5-C4-C3-H30=179.48           H31-C4-C3-C2=181.11           H31-C4-C3-H30=  1.00          
C6-C5-C4-C3=359.23            C6-C5-C4-H31=177.69           C8-C5-C4-C3=180.82            C8-C5-C4-H31=359.28           
C7-C6-C5-C4=  1.46            C7-C6-C5-C8=179.97            H32-C6-C5-C4=181.21           H32-C6-C5-C8=359.72           
C6-C7-C2-F1=180.13            C6-C7-C2-C3=359.72            H33-C7-C2-F1=359.79           H33-C7-C2-C3=179.38           
C2-C7-C6-C5=359.06            C2-C7-C6-H32=179.31           H33-C7-C6-C5=179.41           H33-C7-C6-H32=359.66          
C9-C8-C5-C4=328.07            C9-C8-C5-C6=149.63            O29-C8-C5-C4=147.99           O29-C8-C5-C6=329.56           
C10-C9-C8-C5=182.63           C10-C9-C8-O29=  2.71          C14-C9-C8-C5=304.99           C14-C9-C8-O29=125.06          
H34-C9-C8-C5= 63.90           H34-C9-C8-O29=243.97          C11-C10-C9-C8= 72.10          C11-C10-C9-C14=308.22         
C11-C10-C9-H34=189.37         H35-C10-C9-C8=311.29          H35-C10-C9-C14=187.41         H35-C10-C9-H34= 68.56         
H36-C10-C9-C8=192.17          H36-C10-C9-C14= 68.29         H36-C10-C9-H34=309.44         
           -------------------------------------------------
          |                Final Singlepoint                |
           -------------------------------------------------

          ...................................................
          :                      SETUP                      :
          :.................................................:
          :  # basis functions                 138          :
          :  # atomic orbitals                 138          :
          :  # shells                           80          :
          :  # electrons                       150          :
          :  max. iterations                   250          :
          :  Hamiltonian                  GFN2-xTB          :
          :  restarted?                      false          :
          :  GBSA solvation                  false          :
          :  PC potential                    false          :
          :  electronic temp.          300.0000000     K    :
          :  accuracy                    1.0000000          :
          :  -> integral cutoff          0.2500000E+02      :
          :  -> integral neglect         0.1000000E-07      :
          :  -> SCF convergence          0.1000000E-05 Eh   :
          :  -> wf. convergence          0.1000000E-03 e    :
          :  Broyden damping             0.4000000          :
          :  net charge                          0          :
          :  unpaired electrons                  0          :
          ...................................................

 iter      E             dE          RMSdq      gap      omega  full diag
   1    -85.2494276 -0.852494E+02  0.105E-04    1.76       0.0  T
   2    -85.2494276 -0.927969E-10  0.667E-05    1.76     209.9  T
   3    -85.2494276 -0.520117E-10  0.418E-05    1.76     335.0  T

   *** convergence criteria satisfied after 3 iterations ***

         #    Occupation            Energy/Eh            Energy/eV
      -------------------------------------------------------------
         1        2.0000           -0.8255234             -22.4636
       ...           ...                  ...                  ...
        69        2.0000           -0.4250249             -11.5655
        70        2.0000           -0.4221672             -11.4878
        71        2.0000           -0.4180891             -11.3768
        72        2.0000           -0.4111190             -11.1871
        73        2.0000           -0.4059079             -11.0453
        74        2.0000           -0.3941592             -10.7256
        75        2.0000           -0.3480879              -9.4720 (HOMO)
        76                         -0.2834358              -7.7127 (LUMO)
        77                         -0.2793015              -7.6002
        78                         -0.2513005              -6.8382
        79                         -0.2511199              -6.8333
        80                         -0.2179816              -5.9316
       ...                                ...                  ...
       138                          0.7029063              19.1271
      -------------------------------------------------------------
                  HL-Gap            0.0646521 Eh            1.7593 eV
             Fermi-level           -0.3157619 Eh           -8.5923 eV

 SCC (total)                   0 d,  0 h,  0 min,  0.067 sec
 SCC setup                      ...        0 min,  0.000 sec (  0.638%)
 Dispersion                     ...        0 min,  0.000 sec (  0.653%)
 classical contributions        ...        0 min,  0.000 sec (  0.303%)
 integral evaluation            ...        0 min,  0.010 sec ( 14.388%)
 iterations                     ...        0 min,  0.009 sec ( 14.026%)
 molecular gradient             ...        0 min,  0.047 sec ( 69.654%)
 printout                       ...        0 min,  0.000 sec (  0.328%)

         :::::::::::::::::::::::::::::::::::::::::::::::::::::
[...]
     Phys. Chem. Chem. Phys., 2023, 25, 17860-17868. DOI: 10.1039/D3CP02178E
   
   for DIPRO refer to:
   * J. Kohn, N. Gildemeister, S. Grimme, D. Fazzi, A. Hansen,
     J. Chem. Phys., 2023, just accepted.
   
   for PTB refer to:
   * S. Grimme, M. Mueller, A. Hansen, J. Chem. Phys., 2023, 158, 124111.
     DOI: 10.1063/5.0137838
   
   with help from (in alphabetical order)
   P. Atkinson, C. Bannwarth, F. Bohle, G. Brandenburg, E. Caldeweyher
   M. Checinski, S. Dohm, S. Ehlert, S. Ehrlich, I. Gerasimov, C. Hölzer
   A. Katbashev, J. Kohn, J. Koopman, C. Lavigne, S. Lehtola, F. März, M. Müller,
   F. Musil, H. Neugebauer, J. Pisarek, C. Plett, P. Pracht, F. Pultar,
   J. Seibert, P. Shushkov, S. Spicher, M. Stahn, M. Steiner, T. Strunk,
   J. Stückrath, T. Rose, and J. Unsleber
   
 * started run on 2025/05/15 at 16:35:43.456     
   ID    Z sym.   atoms
    1    9 F      1
    2    6 C      2-11, 13-16, 18, 20-26
    3    7 N      12, 17, 19
    4    8 O      27-29
    5    1 H      30-51

           -------------------------------------------------
          |                Calculation Setup                |
           -------------------------------------------------

          program call               : xtb /rds/general/user/hgt20/home/callum/QDESCP/Ketanserin_rdkit_conf_3/Ketanserin_rdkit_conf_3.xyz --acc 1 --gfn 2 --chrg 0 --uhf 2 --etemp 300 --input /rds/general/user/hgt20/home/callum/QDESCP/Ketanserin_rdkit_conf_3/Ketanserin_rdkit_conf_3_xtb.inp -P 1
          hostname                   : login-c
          coordinate file            : /rds/general/user/hgt20/home/callum/QDESCP/Ketanserin_rdkit_conf_3/Ketanserin_rdkit_conf_3.xyz
          omp threads                :                     1


           -------------------------------------------------
          |                 G F N 2 - x T B                 |
           -------------------------------------------------

        Reference                      10.1021/acs.jctc.8b01176
      * Hamiltonian:
        H0-scaling (s, p, d)           1.850000    2.230000    2.230000
        zeta-weighting                 0.500000
      * Dispersion:
        s8                             2.700000
        a1                             0.520000
        a2                             5.000000
        s9                             5.000000
      * Repulsion:
        kExp                           1.500000    1.000000
        rExp                           1.000000
      * Coulomb:
        alpha                          2.000000
        third order                    shell-resolved
        anisotropic                    true
        a3                             3.000000
        a5                             4.000000
        cn-shift                       1.200000
        cn-exp                         4.000000
        max-rad                        5.000000


          ...................................................
          :                      SETUP                      :
          :.................................................:
          :  # basis functions                 138          :
          :  # atomic orbitals                 138          :
          :  # shells                           80          :
          :  # electrons                       150          :
          :  max. iterations                   250          :
          :  Hamiltonian                  GFN2-xTB          :
          :  restarted?                      false          :
          :  GBSA solvation                  false          :
          :  PC potential                    false          :
          :  electronic temp.          300.0000000     K    :
          :  accuracy                    1.0000000          :
          :  -> integral cutoff          0.2500000E+02      :
          :  -> integral neglect         0.1000000E-07      :
          :  -> SCF convergence          0.1000000E-05 Eh   :
          :  -> wf. convergence          0.1000000E-03 e    :
          :  Broyden damping             0.4000000          :
          :  net charge                          0          :
          :  unpaired electrons                  2          :
          ...................................................

 iter      E             dE          RMSdq      gap      omega  full diag
   1    -84.8466578 -0.848467E+02  0.395E+00    0.07       0.0  T
   2    -84.7821319  0.645258E-01  0.294E+00    0.65       1.0  T
   3    -84.7395181  0.426139E-01  0.237E+00    1.82       1.0  T
   4    -84.9352598 -0.195742E+00  0.175E+00    0.69       1.0  T
   5    -84.8662834  0.689764E-01  0.144E+00    0.87       1.0  T
   6    -84.9233092 -0.570257E-01  0.122E+00    0.24       1.0  T
   7    -85.0270732 -0.103764E+00  0.109E+00    0.72       1.0  T
   8    -84.9112360  0.115837E+00  0.118E+00    0.58       1.0  T
   9    -85.0597796 -0.148544E+00  0.936E-01    0.34       1.0  T
  10    -85.1301653 -0.703857E-01  0.278E-01    0.02       1.0  T
  11    -85.0864203  0.437450E-01  0.730E-01    0.23       1.0  T
  12    -85.0445974  0.418229E-01  0.749E-01    0.07       1.0  T
  13    -85.1377908 -0.931934E-01  0.289E-01    0.11       1.0  T
  14    -85.1389334 -0.114261E-02  0.217E-01    0.09       1.0  T
  15    -85.1406130 -0.167961E-02  0.133E-01    0.07       1.0  T
  16    -85.1406550 -0.420216E-04  0.106E-01    0.07       1.0  T
  17    -85.1412679 -0.612893E-03  0.515E-02    0.06       1.0  T
  18    -85.1413975 -0.129579E-03  0.197E-02    0.06       1.0  T
  19    -85.1414420 -0.445380E-04  0.608E-03    0.06       2.3  T
  20    -85.1414462 -0.420528E-05  0.355E-03    0.06       3.9  T
  21    -85.1414459  0.332690E-06  0.326E-03    0.06       4.3  T
  22    -85.1414476 -0.167843E-05  0.778E-04    0.06      18.0  T
  23    -85.1414476 -0.488429E-07  0.343E-04    0.06      40.8  T
  24    -85.1414476  0.204568E-07  0.474E-04    0.06      29.6  T

   *** convergence criteria satisfied after 24 iterations ***

         #    Occupation            Energy/Eh            Energy/eV
      -------------------------------------------------------------
         1        2.0000           -0.8043547             -21.8876
       ...           ...                  ...                  ...
        70        2.0000           -0.4133420             -11.2476
        71        1.9996           -0.4043294             -11.0024
        72        1.9992           -0.4036074             -10.9827
        73        1.9968           -0.4023224             -10.9477
        74        1.9192           -0.3991801             -10.8622
        75        1.0852           -0.3946146             -10.7380
        76        0.7510           -0.2716810              -7.3928 (HOMO)
        77        0.2490           -0.2695829              -7.3357 (LUMO)
        78                         -0.2448876              -6.6637
        79                         -0.2317316              -6.3057
        80                         -0.2118505              -5.7647
        81                         -0.1986262              -5.4049
       ...                                ...                  ...
       138                          0.7092653              19.3001
      -------------------------------------------------------------
                  HL-Gap            0.0020981 Eh            0.0571 eV
             Fermi-level           -0.3337508 Eh           -9.0818 eV

 transition dipole moment (au) for excitation:          75          76
     X       Y       Z   
   0.0572   0.0283   0.0835  total (au/Debye):    0.105   0.267
 dE (eV)             :    3.345
 oscillator strength :  0.12804E-02

 SCC (total)                   0 d,  0 h,  0 min,  0.152 sec
 SCC setup                      ...        0 min,  0.000 sec (  0.325%)
 Dispersion                     ...        0 min,  0.001 sec (  0.460%)
 classical contributions        ...        0 min,  0.000 sec (  0.139%)
 integral evaluation            ...        0 min,  0.010 sec (  6.676%)
 iterations                     ...        0 min,  0.081 sec ( 53.440%)
 molecular gradient             ...        0 min,  0.051 sec ( 33.234%)
 printout                       ...        0 min,  0.009 sec (  5.721%)

         :::::::::::::::::::::::::::::::::::::::::::::::::::::
         ::                     SUMMARY                     ::
         :::::::::::::::::::::::::::::::::::::::::::::::::::::
         :: total energy             -83.996901454545 Eh    ::
         :: gradient norm              0.103295581334 Eh/a0 ::
         :: HOMO-LUMO gap              0.057091829636 eV    ::
         ::.................................................::
         :: SCC energy               -85.141486597144 Eh    ::
         :: -> isotropic ES            0.114592483348 Eh    ::
         :: -> anisotropic ES          0.003731125121 Eh    ::
         :: -> anisotropic XC          0.024178848509 Eh    ::
         :: -> dispersion             -0.056511175961 Eh    ::
         :: repulsion energy           1.144585142599 Eh    ::
         :: add. restraining           0.000000000000 Eh    ::
         :: total charge              -0.000000000001 e     ::
         :::::::::::::::::::::::::::::::::::::::::::::::::::::

           -------------------------------------------------
          |                Property Printout                |
           -------------------------------------------------

    * Orbital Energies and Occupations

         #    Occupation            Energy/Eh            Energy/eV
      -------------------------------------------------------------
         1        2.0000           -0.8043547             -21.8876
       ...           ...                  ...                  ...
        64        2.0000           -0.4519015             -12.2969
        65        2.0000           -0.4423172             -12.0361
        66        2.0000           -0.4313643             -11.7380
        67        2.0000           -0.4280931             -11.6490
        68        2.0000           -0.4263525             -11.6016
        69        2.0000           -0.4208613             -11.4522
        70        2.0000           -0.4133420             -11.2476
        71        1.9996           -0.4043294             -11.0024
        72        1.9992           -0.4036074             -10.9827
        73        1.9968           -0.4023224             -10.9477
        74        1.9192           -0.3991801             -10.8622
        75        1.0852           -0.3946146             -10.7380
        76        0.7510           -0.2716810              -7.3928 (HOMO)
        77        0.2490           -0.2695829              -7.3357 (LUMO)
        78                         -0.2448876              -6.6637
        79                         -0.2317316              -6.3057
        80                         -0.2118505              -5.7647
        81                         -0.1986262              -5.4049
        82                         -0.1725166              -4.6944
        83                         -0.0929467              -2.5292
        84                         -0.0843379              -2.2950
        85                         -0.0462540              -1.2586
        86                          0.0001295               0.0035
        87                          0.0258054               0.7022
       ...                                ...                  ...
       138                          0.7092653              19.3001
      -------------------------------------------------------------
                  HL-Gap            0.0020981 Eh            0.0571 eV
             Fermi-level           -0.3337508 Eh           -9.0818 eV

     #   Z          covCN         q      C6AA      α(0)
     1   9 F        0.787    -0.235    11.598     4.023
     2   6 C        2.788     0.154    24.653     8.133
     3   6 C        2.916    -0.051    29.254     8.869
     4   6 C        2.925    -0.047    29.177     8.858
     5   6 C        2.969    -0.021    28.522     8.760
     6   6 C        2.931    -0.033    28.828     8.805
     7   6 C        2.914    -0.051    29.270     8.872
     8   6 C        2.822     0.179    24.148     8.052
     9   6 C        3.856    -0.020    20.893     6.501
    10   6 C        3.808    -0.061    21.673     6.627
    11   6 C        3.769    -0.004    20.691     6.483
    12   7 N        2.733    -0.092    23.034     7.128
    13   6 C        3.765     0.000    20.613     6.471
    14   6 C        3.809    -0.070    21.833     6.651
    15   6 C        3.756    -0.005    20.722     6.491
    16   6 C        3.758     0.003    20.578     6.468
    17   7 N        2.744    -0.119    23.582     7.212
    18   6 C        2.705     0.325    21.470     7.584
    19   7 N        2.702    -0.159    24.442     7.343
    20   6 C        2.916     0.072    26.393     8.424
    21   6 C        2.919    -0.055    29.370     8.887
    22   6 C        2.921    -0.030    28.753     8.793
    23   6 C        2.917    -0.031    28.772     8.796
    24   6 C        2.922    -0.025    28.618     8.773
    25   6 C        2.982    -0.043    29.067     8.844
    26   6 C        2.771     0.257    22.670     7.798
    27   8 O        0.859    -0.434    22.373     6.342
    28   8 O        0.860    -0.452    22.747     6.395
    29   8 O        0.857    -0.346    20.636     6.091
    30   1 H        0.926     0.052     2.298     2.371
    31   1 H        0.926     0.033     2.542     2.493
    32   1 H        0.926     0.048     2.347     2.396
    33   1 H        0.926     0.056     2.250     2.346
    34   1 H        0.924     0.059     2.206     2.323
    35   1 H        0.924     0.066     2.135     2.285
    36   1 H        0.924     0.059     2.210     2.325
    37   1 H        0.923     0.073     2.056     2.243
    38   1 H        0.924     0.064     2.157     2.297
    39   1 H        0.924     0.056     2.247     2.344
    40   1 H        0.922     0.048     2.342     2.393
    41   1 H        0.924     0.058     2.223     2.332
    42   1 H        0.924     0.066     2.128     2.281
    43   1 H        0.923     0.049     2.333     2.388
    44   1 H        0.924     0.064     2.148     2.292
    45   1 H        0.925     0.075     2.030     2.228
    46   1 H        0.924     0.085     1.929     2.172
    47   1 H        0.860     0.200     1.107     1.648
    48   1 H        0.926     0.036     2.507     2.476
    49   1 H        0.926     0.041     2.440     2.443
    50   1 H        0.926     0.043     2.404     2.425
    51   1 H        0.926     0.063     2.165     2.301

 Mol. C6AA /au·bohr⁶  :      30412.461600
 Mol. C8AA /au·bohr⁸  :     722293.334865
 Mol. α(0) /au        :        269.272116


Wiberg/Mayer (AO) data.
largest (>0.10) Wiberg bond orders for each atom

 ---------------------------------------------------------------------------
     #   Z sym  total        # sym  WBO       # sym  WBO       # sym  WBO
 ---------------------------------------------------------------------------
     1   9 F    1.065 --     2 C    0.950
     2   6 C    3.823 --     3 C    1.361     7 C    1.357     1 F    0.950
     3   6 C    3.979 --     4 C    1.472     2 C    1.361    30 H    0.966
     4   6 C    3.941 --     3 C    1.472     5 C    1.311    31 H    0.962
     5   6 C    3.911 --     4 C    1.311     6 C    1.303     8 C    1.043
     6   6 C    3.943 --     7 C    1.481     5 C    1.303    32 H    0.968
     7   6 C    3.979 --     6 C    1.481     2 C    1.357    33 H    0.963
     8   6 C    3.735 --    29 O    1.620     5 C    1.043     9 C    0.897
     9   6 C    3.967 --    10 C    0.998    14 C    0.990    34 H    0.937
                             8 C    0.897
    10   6 C    3.991 --    11 C    1.003     9 C    0.998    35 H    0.972
                            36 H    0.962
    11   6 C    3.971 --    12 N    1.012    10 C    1.003    38 H    0.963
                            37 H    0.926
    12   7 N    3.307 --    11 C    1.012    15 C    1.008    13 C    1.006
                            29 O    0.103
    13   6 C    3.976 --    12 N    1.006    14 C    1.000    39 H    0.969
                            40 H    0.944
    14   6 C    3.987 --    13 C    1.000     9 C    0.990    41 H    0.969
                            42 H    0.962
    15   6 C    3.973 --    12 N    1.008    16 C    0.978    44 H    0.969
                            43 H    0.955
    16   6 C    3.949 --    17 N    0.980    15 C    0.978    46 H    0.965
                            45 H    0.963
    17   7 N    3.519 --    18 C    1.118    26 C    1.074    16 C    0.980
                            28 O    0.130    27 O    0.126
    18   6 C    3.956 --    28 O    1.627    19 N    1.135    17 N    1.118
    19   7 N    3.461 --    18 C    1.135    20 C    1.121    47 H    0.927
                            28 O    0.131
    20   6 C    3.920 --    21 C    1.358    25 C    1.284    19 N    1.121
    21   6 C    3.940 --    22 C    1.437    20 C    1.358    48 H    0.967
    22   6 C    3.914 --    21 C    1.437    23 C    1.390    49 H    0.971
    23   6 C    3.949 --    24 C    1.466    22 C    1.390    50 H    0.970
    24   6 C    3.917 --    23 C    1.466    25 C    1.339    51 H    0.965
    25   6 C    3.934 --    24 C    1.339    20 C    1.284    26 C    1.069
    26   6 C    3.876 --    27 O    1.651    17 N    1.074    25 C    1.069
    27   8 O    1.941 --    26 C    1.651    17 N    0.126
    28   8 O    1.965 --    18 C    1.627    19 N    0.131    17 N    0.130
    29   8 O    2.029 --     8 C    1.620    12 N    0.103
    30   1 H    0.995 --     3 C    0.966
    31   1 H    0.997 --     4 C    0.962
    32   1 H    0.998 --     6 C    0.968
    33   1 H    0.993 --     7 C    0.963
    34   1 H    0.990 --     9 C    0.937
    35   1 H    0.995 --    10 C    0.972
    36   1 H    0.993 --    10 C    0.962
    37   1 H    0.987 --    11 C    0.926
    38   1 H    0.994 --    11 C    0.963
    39   1 H    0.997 --    13 C    0.969
    40   1 H    0.992 --    13 C    0.944
    41   1 H    0.996 --    14 C    0.969
    42   1 H    0.993 --    14 C    0.962
    43   1 H    0.991 --    15 C    0.955
    44   1 H    0.995 --    15 C    0.969
    45   1 H    0.993 --    16 C    0.963
    46   1 H    0.991 --    16 C    0.965
    47   1 H    0.959 --    19 N    0.927
    48   1 H    0.998 --    21 C    0.967
    49   1 H    0.997 --    22 C    0.971
    50   1 H    0.998 --    23 C    0.970
    51   1 H    0.996 --    24 C    0.965
 ---------------------------------------------------------------------------

Topologies differ in total number of bonds
Writing topology from bond orders to xtbtopo.mol

molecular dipole:
                 x           y           z       tot (Debye)
 q only:       -1.714      -0.554       0.422
   full:       -1.837      -0.259       0.579       4.940
molecular quadrupole (traceless):
                xx          xy          yy          xz          yz          zz
 q only:      -15.957     -23.916      23.182       5.144       0.379      -7.224
  q+dip:      -16.849     -27.418      26.156      -0.153       3.524      -9.307
   full:      -15.398     -26.429      25.648       0.395       1.168     -10.251


           -------------------------------------------------
          | TOTAL ENERGY              -83.996901454545 Eh   |
          | GRADIENT NORM               0.103295581334 Eh/α |
          | HOMO-LUMO GAP               0.057091829636 eV   |
           -------------------------------------------------

------------------------------------------------------------------------
 * finished run on 2025/05/15 at 16:35:43.625     
------------------------------------------------------------------------
 total:
 * wall-time:     0 d,  0 h,  0 min,  0.168 sec
 *  cpu-time:     0 d,  0 h,  0 min,  0.146 sec
 * ratio c/w:     0.870 speedup
 SCF:
 * wall-time:     0 d,  0 h,  0 min,  0.153 sec
 *  cpu-time:     0 d,  0 h,  0 min,  0.132 sec
 * ratio c/w:     0.865 speedup


