98
 energy: -148.197562971914 gnorm: 0.000223658783 xtb: 6.7.1 (edcfbbe)
O           -3.05882287555232        0.01261343024100        2.71899015261718
C           -2.52819676592716        0.71375755136647        1.89325360339804
N           -2.56574624027043        0.54938721080478        0.55990363040852
C           -2.99242261039446       -0.68108668059940       -0.06927551465351
C           -3.93115560422988       -0.36105775826428       -1.24196209095597
C           -4.47399825140055       -1.61457119568960       -1.86628756946021
C           -5.46797866446361       -2.34620932759210       -1.22848625578138
C           -5.96437090280376       -3.50530834601219       -1.79678094348291
C           -5.47274876195486       -3.94860574069550       -3.01262623303517
C           -4.47536593966755       -3.23239850391970       -3.65079860062403
C           -3.97844576519009       -2.07461096578843       -3.07956341132851
C           -1.74933975818094       -1.45757145617287       -0.56798105788811
C           -0.93220624843227       -1.97047551721228        0.62143584832587
C            0.40143623069613       -2.58277908148894        0.15851441683899
N            1.51880132495171       -1.97888622440501        0.87546827113294
C            1.80276533572743       -0.67167659174745        0.81863691852321
C            3.08109739677977       -0.24943676020954        1.54497814211768
N            3.83985901938722        0.63789458650789        0.68578834858083
C            4.41721088214995        0.02415737402272       -0.40645050201618
N            5.09502308138903        0.85756977280509       -1.24714032716614
C            5.60037722741998        0.33966114244662       -2.49455393576058
C            5.22040242477709        2.28113658026151       -1.01656488550117
C            4.01772705112773        3.04335805341885       -1.49344949004126
C            3.83409974689629        3.52790310493296       -2.75158989789366
S            2.30823880239398        4.30680629346443       -2.88339590400076
C            2.01577076051354        3.91731598104712       -1.20033923822914
C            0.73862370366019        4.32804959255301       -0.55249915867651
C           -0.20896352936427        3.12522837738241       -0.48755761904998
C            1.00019995543161        4.90002852264511        0.84012197979255
N            2.97747080941208        3.27038970016891       -0.64470996622526
O            4.39358697990623       -1.18569229144421       -0.56696177184734
C            2.78281506600967        0.38319997301132        2.91660168422258
C            4.08631649617172        0.55320413266626        3.69405072889787
C            2.05537047887610        1.71906629134606        2.79670437830636
O            1.09892964326059        0.14702473638721        0.23950837598537
C            0.43249986543240       -4.10233338620000        0.35237950054771
C           -0.73478922639466       -4.73762104881379       -0.35261918101491
C           -1.82799220664835       -5.21022447549776        0.36069440418315
C           -2.92518031451156       -5.73926513218442       -0.29656860829029
C           -2.94006856263713       -5.80575503232057       -1.67775250801205
C           -1.85198474028879       -5.34327947562552       -2.39811610485725
C           -0.75802349957911       -4.81243298376615       -1.74014461371541
O           -0.98607327915981       -0.64723957223503       -1.42715451027795
O           -1.82032959949515        1.83782966909279        2.20072396792212
C           -1.76348681517235        2.17810515018486        3.57914398299393
C           -1.52583824962019        3.63870305027790        3.70097840764674
C           -0.60868742600125        4.30030261112082        4.46175838790150
N           -0.63497706516483        5.64809150608129        4.36610221760410
C           -1.53803577202421        6.04476013171372        3.54913715664775
S           -2.46948335510147        4.78066312581819        2.80595179719490
H           -1.98028426049483        1.15255495777393       -0.00088463914426
H           -3.51397547627630       -1.27110162988264        0.68906248868207
H           -3.36292765581021        0.20540610480667       -1.98127267664084
H           -4.74946548232404        0.25942322682413       -0.87133711031364
H           -5.85972944674593       -1.99903286197522       -0.28314707739648
H           -6.74109206676662       -4.06194397972009       -1.29274062926333
H           -5.86926728720683       -4.84698698874920       -3.46302751512936
H           -4.08575370509647       -3.57430885864158       -4.59862999059141
H           -3.19625303163943       -1.51962872185006       -3.57637655772398
H           -2.09824574856526       -2.31043965811043       -1.16454536834760
H           -1.52592530510746       -2.69973110122948        1.17062473357509
H           -0.73017845817554       -1.13590754685729        1.29470812535742
H            0.52703600259195       -2.35971734710225       -0.90985223652009
H            2.20839790976476       -2.60533062633741        1.25869123769173
H            3.70567743509567       -1.13703938101462        1.69655345446521
H            3.38988147647753        1.53050160872962        0.50836571906194
H            6.67166893082295        0.53497087878599       -2.58242842382706
H            5.08084111777319        0.79399527837184       -3.34299598788038
H            5.42828439147450       -0.73466491792043       -2.50050230430232
H            5.36153535810761        2.46094968704122        0.05222143176470
H            6.10748640460765        2.62713136737082       -1.55370492067258
H            4.49968747424994        3.48412213843611       -3.58948503837009
H            0.28146536676660        5.10426526604243       -1.17687528314423
H           -0.49084518156852        2.81135091100961       -1.49109251004084
H           -1.10388445461469        3.39709652981456        0.06730566633641
H            0.28177638070935        2.29348201522182        0.01017485910470
H            0.07231620481452        5.27266360383735        1.26555457391189
H            1.39967322046851        4.13141690723633        1.49282319862667
H            1.71143222718408        5.72138687528668        0.79184970346275
H            2.13708297310346       -0.32134020993275        3.45556954414354
H            4.56549712948462       -0.40828621767653        3.86269300179457
H            4.77123021033309        1.18482969553943        3.13439405530485
H            3.89364215250899        1.01653743237830        4.65863837755686
H            1.74667667220362        2.06368582381115        3.78152323954615
H            2.71297895258449        2.47075470273584        2.36714711282745
H            1.17154039678860        1.62464780655823        2.17162459388805
H            0.39076717473627       -4.32824860962550        1.42041314955715
H            1.37019543240899       -4.49173496987740       -0.05208340525313
H           -1.82189775908844       -5.17068515558706        1.44122377010389
H           -3.76961435587082       -6.09921119876205        0.27226384980545
H           -3.79497279862775       -6.21811919647393       -2.19085579757624
H           -1.85717853605280       -5.39544504980246       -3.47653701874870
H            0.08801910632429       -4.45202374153778       -2.30696761270261
H           -0.27594250487993       -0.22616343807087       -0.90124968307076
H           -2.70904960546380        1.88144185466238        4.05484417283563
H           -0.95016665943274        1.62439344050895        4.06450351994673
H            0.10529347509338        3.83837316984679        5.11844982509435
H           -1.72754404946164        7.07382002022509        3.31837198011450
