----- Optimization -----
      -----------------------------------------------------------      
     |                   =====================                   |     
     |                           x T B                           |     
     |                   =====================                   |     
     |                         S. Grimme                         |     
     |          Mulliken Center for Theoretical Chemistry        |     
     |                    University of Bonn                     |     
      -----------------------------------------------------------      

   * xtb version 6.7.1 (edcfbbe) compiled by 'conda@3ef47c1a292c' on 2024-11-25

   xtb is free software: you can redistribute it and/or modify it under
   the terms of the GNU Lesser General Public License as published by
   the Free Software Foundation, either version 3 of the License, or
   (at your option) any later version.
   
   xtb is distributed in the hope that it will be useful,
   but WITHOUT ANY WARRANTY; without even the implied warranty of
   MERCHANTABILITY or FITNESS FOR A PARTICULAR PURPOSE.  See the
   GNU Lesser General Public License for more details.
   
   Cite this work as:
   * C. Bannwarth, E. Caldeweyher, S. Ehlert, A. Hansen, P. Pracht,
     J. Seibert, S. Spicher, S. Grimme, WIREs Comput. Mol. Sci., 2020, 11,
     e01493. DOI: 10.1002/wcms.1493
   
   for GFN2-xTB:
   * C. Bannwarth, S. Ehlert and S. Grimme., J. Chem. Theory Comput., 2019,
     15, 1652-1671. DOI: 10.1021/acs.jctc.8b01176
   for GFN1-xTB:
   * S. Grimme, C. Bannwarth, P. Shushkov, J. Chem. Theory Comput., 2017,
     13, 1989-2009. DOI: 10.1021/acs.jctc.7b00118
   for GFN0-xTB:
   * P. Pracht, E. Caldeweyher, S. Ehlert, S. Grimme, ChemRxiv, 2019, preprint.
     DOI: 10.26434/chemrxiv.8326202.v1
   for GFN-FF:
   * S. Spicher and S. Grimme, Angew. Chem. Int. Ed., 2020, 59, 15665-15673.
     DOI: 10.1002/anie.202004239
   
   for ALPB and GBSA implicit solvation:
   * S. Ehlert, M. Stahn, S. Spicher, S. Grimme, J. Chem. Theory Comput.,
     2021, 17, 4250-4261. DOI: 10.1021/acs.jctc.1c00471
   
   for ddCOSMO and CPCM-X implicit solvation:
   * M. Stahn, S. Ehlert, S. Grimme, J. Phys. Chem. A,
     2023, XX, XXXX-XXXX. DOI: 10.1021/acs.jpca.3c04382
   
   for DFT-D4:
   * E. Caldeweyher, C. Bannwarth and S. Grimme, J. Chem. Phys., 2017,
     147, 034112. DOI: 10.1063/1.4993215
   * E. Caldeweyher, S. Ehlert, A. Hansen, H. Neugebauer, S. Spicher,
     C. Bannwarth and S. Grimme, J. Chem. Phys., 2019, 150, 154122.
     DOI: 10.1063/1.5090222
   * E. Caldeweyher, J.-M. Mewes, S. Ehlert and S. Grimme, Phys. Chem. Chem. Phys.
     2020, 22, 8499-8512. DOI: 10.1039/D0CP00502A
   
   for sTDA-xTB:
   * S. Grimme and C. Bannwarth, J. Chem. Phys., 2016, 145, 054103.
     DOI: 10.1063/1.4959605
   
   in the mass-spec context:
   * V. Asgeirsson, C. Bauer and S. Grimme, Chem. Sci., 2017, 8, 4879.
     DOI: 10.1039/c7sc00601b
   * J. Koopman and S. Grimme, ACS Omega 2019, 4, 12, 15120-15133.
     DOI: 10.1021/acsomega.9b02011
   
   for metadynamics refer to:
   * S. Grimme, J. Chem. Theory Comput., 2019, 155, 2847-2862
     DOI: 10.1021/acs.jctc.9b00143
   
   for SPH calculations refer to:
   * S. Spicher and S. Grimme, J. Chem. Theory Comput., 2021, 17, 1701-1714
     DOI: 10.1021/acs.jctc.0c01306
   
   for ONIOM refer to:
   * C. Plett, A. Katbashev, S. Ehlert, S. Grimme, M. Bursch,
     Phys. Chem. Chem. Phys., 2023, 25, 17860-17868. DOI: 10.1039/D3CP02178E
   
   for DIPRO refer to:
   * J. Kohn, N. Gildemeister, S. Grimme, D. Fazzi, A. Hansen,
     J. Chem. Phys., 2023, just accepted.
   
   for PTB refer to:
   * S. Grimme, M. Mueller, A. Hansen, J. Chem. Phys., 2023, 158, 124111.
     DOI: 10.1063/5.0137838
   
   with help from (in alphabetical order)
   P. Atkinson, C. Bannwarth, F. Bohle, G. Brandenburg, E. Caldeweyher
   M. Checinski, S. Dohm, S. Ehlert, S. Ehrlich, I. Gerasimov, C. Hölzer
   A. Katbashev, J. Kohn, J. Koopman, C. Lavigne, S. Lehtola, F. März, M. Müller,
   F. Musil, H. Neugebauer, J. Pisarek, C. Plett, P. Pracht, F. Pultar,
   J. Seibert, P. Shushkov, S. Spicher, M. Stahn, M. Steiner, T. Strunk,
   J. Stückrath, T. Rose, and J. Unsleber
   
 * started run on 2025/05/15 at 16:36:45.157     
   ID    Z sym.   atoms
    1    8 O      1, 31, 35, 43, 44
    2    6 C      2, 4-14, 16, 17, 19, 21-24, 26-29, 32-34, 36-42, 45-47, 49
    3    7 N      3, 15, 18, 20, 30, 48
    4   16 S      25, 50
    5    1 H      51-98

           -------------------------------------------------
          |                Calculation Setup                |
           -------------------------------------------------

          program call               : xtb /rds/general/user/hgt20/home/callum/QDESCP/Ritonavir_rdkit_conf_8/Ritonavir_rdkit_conf_8.xyz --opt normal --acc 1 --gfn 2 --chrg 0 --uhf 0 -P 1
          hostname                   : login-c
          coordinate file            : /rds/general/user/hgt20/home/callum/QDESCP/Ritonavir_rdkit_conf_8/Ritonavir_rdkit_conf_8.xyz
          omp threads                :                     1


           -------------------------------------------------
          |                 G F N 2 - x T B                 |
           -------------------------------------------------

        Reference                      10.1021/acs.jctc.8b01176
      * Hamiltonian:
        H0-scaling (s, p, d)           1.850000    2.230000    2.230000
        zeta-weighting                 0.500000
      * Dispersion:
        s8                             2.700000
        a1                             0.520000
        a2                             5.000000
        s9                             5.000000
      * Repulsion:
        kExp                           1.500000    1.000000
        rExp                           1.000000
      * Coulomb:
        alpha                          2.000000
        third order                    shell-resolved
        anisotropic                    true
        a3                             3.000000
        a5                             4.000000
        cn-shift                       1.200000
        cn-exp                         4.000000
        max-rad                        5.000000


          ...................................................
          :                      SETUP                      :
          :.................................................:
          :  # basis functions                 260          :
          :  # atomic orbitals                 258          :
          :  # shells                          150          :
          :  # electrons                       268          :
          :  max. iterations                   250          :
          :  Hamiltonian                  GFN2-xTB          :
          :  restarted?                      false          :
          :  GBSA solvation                  false          :
          :  PC potential                    false          :
          :  electronic temp.          300.0000000     K    :
          :  accuracy                    1.0000000          :
          :  -> integral cutoff          0.2500000E+02      :
          :  -> integral neglect         0.1000000E-07      :
          :  -> SCF convergence          0.1000000E-05 Eh   :
          :  -> wf. convergence          0.1000000E-03 e    :
          :  Broyden damping             0.4000000          :
          :  net charge                          0          :
          :  unpaired electrons                  0          :
          ...................................................

 iter      E             dE          RMSdq      gap      omega  full diag
   1   -149.8369696 -0.149837E+03  0.383E+00    2.80       0.0  T
   2   -150.0389631 -0.201994E+00  0.214E+00    3.15       1.0  T
   3   -150.0393732 -0.410069E-03  0.937E-01    2.83       1.0  T
   4   -150.0407318 -0.135860E-02  0.412E-01    2.64       1.0  T
   5   -150.0519979 -0.112661E-01  0.129E-01    2.64       1.0  T
   6   -150.0526210 -0.623024E-03  0.543E-02    2.67       1.0  T
   7   -150.0526923 -0.713246E-04  0.251E-02    2.66       1.0  T
   8   -150.0527114 -0.191321E-04  0.105E-02    2.67       1.0  T
   9   -150.0527139 -0.246822E-05  0.406E-03    2.67       2.5  T
  10   -150.0527141 -0.227597E-06  0.141E-03    2.67       7.2  T
  11   -150.0527141 -0.371074E-07  0.684E-04    2.67      14.8  T
  12   -150.0527142 -0.102061E-07  0.350E-04    2.67      28.9  T

   *** convergence criteria satisfied after 12 iterations ***

         #    Occupation            Energy/Eh            Energy/eV
      -------------------------------------------------------------
         1        2.0000           -0.7525468             -20.4778
       ...           ...                  ...                  ...
       128        2.0000           -0.3981339             -10.8338
       129        2.0000           -0.3960203             -10.7763
       130        2.0000           -0.3936172             -10.7109
       131        2.0000           -0.3924697             -10.6796
       132        2.0000           -0.3829706             -10.4212
       133        2.0000           -0.3787606             -10.3066
       134        2.0000           -0.3721703             -10.1273 (HOMO)
       135                         -0.2740820              -7.4582 (LUMO)
       136                         -0.2619365              -7.1277
       137                         -0.2329725              -6.3395
       138                         -0.2266986              -6.1688
       139                         -0.2254644              -6.1352
       ...                                ...                  ...
       258                          0.6394283              17.3997
      -------------------------------------------------------------
                  HL-Gap            0.0980884 Eh            2.6691 eV
             Fermi-level           -0.3231262 Eh           -8.7927 eV

 SCC (total)                   0 d,  0 h,  0 min,  0.433 sec
 SCC setup                      ...        0 min,  0.002 sec (  0.351%)
 Dispersion                     ...        0 min,  0.002 sec (  0.540%)
 classical contributions        ...        0 min,  0.001 sec (  0.171%)
 integral evaluation            ...        0 min,  0.029 sec (  6.808%)
 iterations                     ...        0 min,  0.201 sec ( 46.461%)
 molecular gradient             ...        0 min,  0.197 sec ( 45.411%)
 printout                       ...        0 min,  0.001 sec (  0.255%)

         :::::::::::::::::::::::::::::::::::::::::::::::::::::
         ::                     SUMMARY                     ::
         :::::::::::::::::::::::::::::::::::::::::::::::::::::
         :: total energy            -148.172233750325 Eh    ::
         :: gradient norm              0.116535922444 Eh/a0 ::
         :: HOMO-LUMO gap              2.669120177545 eV    ::
         ::.................................................::
         :: SCC energy              -150.046991452033 Eh    ::
         :: -> isotropic ES            0.195251806153 Eh    ::
         :: -> anisotropic ES          0.009361274044 Eh    ::
         :: -> anisotropic XC          0.066012680564 Eh    ::
         :: -> dispersion             -0.120106554890 Eh    ::
         :: repulsion energy           1.874757701707 Eh    ::
         :: add. restraining           0.000000000000 Eh    ::
         :: total charge              -0.000000000000 e     ::
         :::::::::::::::::::::::::::::::::::::::::::::::::::::

      ----------------------------------------------------------- 
     |                   =====================                   |
     |                        A N C O P T                        |
     |                   =====================                   |
     |               Approximate Normal Coordinate               |
     |                Rational Function Optimizer                |
      ----------------------------------------------------------- 
      ----------------------------------------------------------- 
     |                   =====================                   |
     |                        A N C O P T                        |
     |                   =====================                   |
     |               Approximate Normal Coordinate               |
     |                Rational Function Optimizer                |
      ----------------------------------------------------------- 

          ...................................................
          :                      SETUP                      :
          :.................................................:
          :   optimization level            normal          :
          :   max. optcycles                   294          :
          :   ANC micro-cycles                  20          :
          :   degrees of freedom               288          :
          :.................................................:
          :   RF solver                   davidson          :
          :   write xtbopt.log                true          :
          :   linear?                        false          :
          :   energy convergence         0.5000000E-05 Eh   :
          :   grad. convergence          0.1000000E-02 Eh/α :
          :   maxmium RF displ.          1.0000000          :
          :   Hlow (freq-cutoff)         0.1000000E-01      :
          :   Hmax (freq-cutoff)         5.0000000          :
          :   S6 in model hess.         20.0000000          :
          ...................................................

generating ANC from exact Hessian ...
Using Lindh-Hessian (1995)
 Shifting diagonal of input Hessian by    9.9468901293594623E-003
 Lowest  eigenvalues of input Hessian
    0.000000    0.000000    0.000000    0.000000    0.000000    0.000000
    0.010000    0.010061    0.010100    0.010216    0.010280    0.010345
    0.010372    0.010538    0.010569    0.010655    0.010698    0.010772
 Highest eigenvalues
    1.948996    2.034425    2.080698    2.180877    2.365860    2.470282


........................................................................
.............................. CYCLE    1 ..............................
........................................................................

 iter      E             dE          RMSdq      gap      omega  full diag
   1   -150.0527142 -0.150053E+03  0.139E-04    2.67       0.0  T
   2   -150.0527142 -0.193040E-09  0.117E-04    2.67      86.2  T
   3   -150.0527142 -0.906908E-09  0.479E-05    2.67     210.9  T
     SCC iter.                  ...        0 min,  0.038 sec
     gradient                   ...        0 min,  0.182 sec
 * total energy  :  -148.1722338 Eh     change       -0.4262489E-08 Eh
   gradient norm :     0.1165403 Eh/α   predicted     0.0000000E+00 (-100.00%)
   displ. norm   :     0.3493000 α      lambda       -0.2177198E-01
   maximum displ.:     0.1063131 α      in ANC's #105, #72, #29, ...

........................................................................
.............................. CYCLE    2 ..............................
........................................................................

 iter      E             dE          RMSdq      gap      omega  full diag
   1   -150.1485967 -0.150149E+03  0.161E-01    2.71       0.0  T
   2   -150.1488617 -0.265044E-03  0.992E-02    2.72       1.0  T
   3   -150.1488161  0.456653E-04  0.582E-02    2.72       1.0  T
   4   -150.1489354 -0.119341E-03  0.246E-02    2.72       1.0  T
   5   -150.1489696 -0.342058E-04  0.512E-03    2.72       2.0  T
   6   -150.1489701 -0.429838E-06  0.250E-03    2.72       4.0  T
   7   -150.1489702 -0.186827E-06  0.101E-03    2.72      10.0  T
   8   -150.1489703 -0.236401E-07  0.415E-04    2.72      24.4  T
   9   -150.1489703 -0.342243E-08  0.172E-04    2.72      58.6  T
     SCC iter.                  ...        0 min,  0.168 sec
     gradient                   ...        0 min,  0.185 sec
 * total energy  :  -148.1870178 Eh     change       -0.1478407E-01 Eh
   gradient norm :     0.0467121 Eh/α   predicted    -0.1222373E-01 ( -17.32%)
   displ. norm   :     0.3564594 α      lambda       -0.6297072E-02
   maximum displ.:     0.1575685 α      in ANC's #29, #48, #30, ...

........................................................................
.............................. CYCLE    3 ..............................
........................................................................

 iter      E             dE          RMSdq      gap      omega  full diag
   1   -150.1945645 -0.150195E+03  0.999E-02    2.72       0.0  T
   2   -150.1947534 -0.188866E-03  0.620E-02    2.73       1.0  T
   3   -150.1947723 -0.189484E-04  0.352E-02    2.73       1.0  T
   4   -150.1947889 -0.165928E-04  0.196E-02    2.73       1.0  T
   5   -150.1948097 -0.207839E-04  0.329E-03    2.73       3.1  T
   6   -150.1948099 -0.223154E-06  0.166E-03    2.73       6.1  T
   7   -150.1948101 -0.109221E-06  0.590E-04    2.73      17.1  T
   8   -150.1948101 -0.636214E-08  0.244E-04    2.73      41.3  T
     SCC iter.                  ...        0 min,  0.154 sec
     gradient                   ...        0 min,  0.206 sec
 * total energy  :  -148.1909363 Eh     change       -0.3918447E-02 Eh
   gradient norm :     0.0162825 Eh/α   predicted    -0.3552573E-02 (  -9.34%)
   displ. norm   :     0.3068069 α      lambda       -0.1670902E-02
   maximum displ.:     0.1598621 α      in ANC's #29, #30, #48, ...

........................................................................
.............................. CYCLE    4 ..............................
........................................................................

 iter      E             dE          RMSdq      gap      omega  full diag
   1   -150.2016067 -0.150202E+03  0.493E-02    2.71       0.0  T
   2   -150.2016510 -0.442862E-04  0.286E-02    2.72       1.0  T
   3   -150.2016515 -0.513921E-06  0.152E-02    2.71       1.0  T
   4   -150.2016524 -0.932620E-06  0.840E-03    2.72       1.2  T
   5   -150.2016575 -0.505427E-05  0.144E-03    2.72       7.0  T
   6   -150.2016575 -0.289168E-07  0.783E-04    2.72      12.9  T
   7   -150.2016575 -0.271739E-07  0.252E-04    2.72      40.0  T
     SCC iter.                  ...        0 min,  0.110 sec
     gradient                   ...        0 min,  0.187 sec
 * total energy  :  -148.1921734 Eh     change       -0.1237078E-02 Eh
   gradient norm :     0.0110235 Eh/α   predicted    -0.9141189E-03 ( -26.11%)
   displ. norm   :     0.3877036 α      lambda       -0.1282119E-02
   maximum displ.:     0.1864374 α      in ANC's #29, #10, #9, ...

........................................................................
.............................. CYCLE    5 ..............................
........................................................................

 iter      E             dE          RMSdq      gap      omega  full diag
   1   -150.2013436 -0.150201E+03  0.528E-02    2.70       0.0  T
   2   -150.2013707 -0.270670E-04  0.305E-02    2.70       1.0  T
   3   -150.2013703  0.411834E-06  0.121E-02    2.70       1.0  T
   4   -150.2013717 -0.146536E-05  0.457E-03    2.70       2.2  T
   5   -150.2013733 -0.161412E-05  0.136E-03    2.70       7.4  T
   6   -150.2013734 -0.819500E-08  0.755E-04    2.70      13.4  T
   7   -150.2013734 -0.290844E-07  0.236E-04    2.70      42.8  T
     SCC iter.                  ...        0 min,  0.082 sec
     gradient                   ...        0 min,  0.213 sec
 * total energy  :  -148.1930743 Eh     change       -0.9009047E-03 Eh
   gradient norm :     0.0092960 Eh/α   predicted    -0.7374246E-03 ( -18.15%)
   displ. norm   :     0.3611680 α      lambda       -0.7167871E-03
   maximum displ.:     0.1415646 α      in ANC's #10, #9, #29, ...

........................................................................
.............................. CYCLE    6 ..............................
........................................................................

 iter      E             dE          RMSdq      gap      omega  full diag
   1   -150.1996940 -0.150200E+03  0.470E-02    2.69       0.0  T
   2   -150.1997001 -0.610880E-05  0.278E-02    2.69       1.0  T
   3   -150.1996972  0.291566E-05  0.799E-03    2.69       1.3  T
   4   -150.1997005 -0.335032E-05  0.320E-03    2.69       3.2  T
   5   -150.1997013 -0.740176E-06  0.108E-03    2.69       9.3  T
   6   -150.1997013 -0.941449E-08  0.470E-04    2.69      21.5  T
   7   -150.1997013 -0.132516E-07  0.159E-04    2.69      63.4  T
     SCC iter.                  ...        0 min,  0.098 sec
     gradient                   ...        0 min,  0.212 sec
 * total energy  :  -148.1936167 Eh     change       -0.5424921E-03 Eh
   gradient norm :     0.0091031 Eh/α   predicted    -0.4051472E-03 ( -25.32%)
   displ. norm   :     0.4233471 α      lambda       -0.6696284E-03
   maximum displ.:     0.1833939 α      in ANC's #10, #9, #20, ...

........................................................................
.............................. CYCLE    7 ..............................
........................................................................

 iter      E             dE          RMSdq      gap      omega  full diag
   1   -150.1988179 -0.150199E+03  0.558E-02    2.69       0.0  T
   2   -150.1988212 -0.333343E-05  0.332E-02    2.69       1.0  T
   3   -150.1988132  0.795062E-05  0.103E-02    2.69       1.0  T
   4   -150.1988225 -0.923993E-05  0.230E-03    2.69       4.4  T
   5   -150.1988227 -0.225638E-06  0.111E-03    2.69       9.1  T
   6   -150.1988227 -0.179757E-07  0.494E-04    2.69      20.4  T
   7   -150.1988227 -0.139152E-07  0.161E-04    2.69      62.9  T
     SCC iter.                  ...        0 min,  0.105 sec
     gradient                   ...        0 min,  0.198 sec
 * total energy  :  -148.1941392 Eh     change       -0.5224971E-03 Eh
   gradient norm :     0.0085094 Eh/α   predicted    -0.3948210E-03 ( -24.44%)
   displ. norm   :     0.4591668 α      lambda       -0.6300738E-03
   maximum displ.:     0.2080407 α      in ANC's #10, #9, #20, ...

........................................................................
.............................. CYCLE    8 ..............................
........................................................................

 iter      E             dE          RMSdq      gap      omega  full diag
   1   -150.1992212 -0.150199E+03  0.623E-02    2.69       0.0  T
   2   -150.1992257 -0.448049E-05  0.369E-02    2.68       1.0  T
   3   -150.1992186  0.705490E-05  0.977E-03    2.68       1.0  T
   4   -150.1992268 -0.815114E-05  0.284E-03    2.68       3.6  T
   5   -150.1992272 -0.469044E-06  0.114E-03    2.68       8.9  T
   6   -150.1992273 -0.829215E-08  0.596E-04    2.68      16.9  T
   7   -150.1992273 -0.189914E-07  0.169E-04    2.68      59.6  T
     SCC iter.                  ...        0 min,  0.116 sec
     gradient                   ...        0 min,  0.166 sec
 * total energy  :  -148.1946231 Eh     change       -0.4838856E-03 Eh
   gradient norm :     0.0076994 Eh/α   predicted    -0.3814577E-03 ( -21.17%)
   displ. norm   :     0.4257391 α      lambda       -0.4817430E-03
   maximum displ.:     0.2000498 α      in ANC's #10, #9, #11, ...

........................................................................
.............................. CYCLE    9 ..............................
........................................................................

 iter      E             dE          RMSdq      gap      omega  full diag
   1   -150.2012535 -0.150201E+03  0.561E-02    2.68       0.0  T
   2   -150.2012578 -0.436090E-05  0.330E-02    2.68       1.0  T
   3   -150.2012553  0.253779E-05  0.675E-03    2.68       1.5  T
   4   -150.2012583 -0.301596E-05  0.260E-03    2.68       3.9  T
   5   -150.2012588 -0.463257E-06  0.967E-04    2.68      10.4  T
   6   -150.2012588 -0.316575E-08  0.518E-04    2.68      19.5  T
     SCC iter.                  ...        0 min,  0.116 sec
     gradient                   ...        0 min,  0.189 sec
 * total energy  :  -148.1949727 Eh     change       -0.3496049E-03 Eh
   gradient norm :     0.0060630 Eh/α   predicted    -0.2845589E-03 ( -18.61%)
   displ. norm   :     0.3162893 α      lambda       -0.2659976E-03
   maximum displ.:     0.1525602 α      in ANC's #10, #9, #11, ...

........................................................................
.............................. CYCLE   10 ..............................
........................................................................

 iter      E             dE          RMSdq      gap      omega  full diag
   1   -150.2034141 -0.150203E+03  0.366E-02    2.67       0.0  T
   2   -150.2034165 -0.238966E-05  0.215E-02    2.67       1.0  T
   3   -150.2034145  0.201752E-05  0.618E-03    2.67       1.6  T
   4   -150.2034167 -0.223931E-05  0.215E-03    2.67       4.7  T
   5   -150.2034171 -0.331992E-06  0.701E-04    2.67      14.4  T
   6   -150.2034171 -0.529147E-08  0.308E-04    2.67      32.8  T
     SCC iter.                  ...        0 min,  0.086 sec
     gradient                   ...        0 min,  0.157 sec
 * total energy  :  -148.1951595 Eh     change       -0.1868005E-03 Eh
   gradient norm :     0.0041856 Eh/α   predicted    -0.1463073E-03 ( -21.68%)
   displ. norm   :     0.2235863 α      lambda       -0.1484818E-03
   maximum displ.:     0.1049654 α      in ANC's #10, #9, #11, ...

........................................................................
.............................. CYCLE   11 ..............................
........................................................................

 iter      E             dE          RMSdq      gap      omega  full diag
   1   -150.2047593 -0.150205E+03  0.206E-02    2.66       0.0  T
   2   -150.2047603 -0.995011E-06  0.121E-02    2.66       1.0  T
   3   -150.2047587  0.156923E-05  0.511E-03    2.66       2.0  T
   4   -150.2047605 -0.183159E-05  0.129E-03    2.66       7.8  T
   5   -150.2047606 -0.995486E-07  0.477E-04    2.66      21.2  T
   6   -150.2047606 -0.390435E-08  0.209E-04    2.66      48.4  T
     SCC iter.                  ...        0 min,  0.080 sec
     gradient                   ...        0 min,  0.141 sec
 * total energy  :  -148.1952684 Eh     change       -0.1088702E-03 Eh
   gradient norm :     0.0033645 Eh/α   predicted    -0.7795292E-04 ( -28.40%)
   displ. norm   :     0.2228687 α      lambda       -0.1302178E-03
   maximum displ.:     0.0923644 α      in ANC's #10, #9, #4, ...

........................................................................
.............................. CYCLE   12 ..............................
........................................................................

 iter      E             dE          RMSdq      gap      omega  full diag
   1   -150.2050547 -0.150205E+03  0.203E-02    2.66       0.0  T
   2   -150.2050554 -0.692184E-06  0.119E-02    2.66       1.0  T
   3   -150.2050538  0.156247E-05  0.476E-03    2.66       2.1  T
   4   -150.2050557 -0.184337E-05  0.105E-03    2.66       9.7  T
   5   -150.2050557 -0.439461E-07  0.471E-04    2.66      21.5  T
   6   -150.2050557 -0.643922E-08  0.196E-04    2.66      51.6  T
     SCC iter.                  ...        0 min,  0.086 sec
     gradient                   ...        0 min,  0.178 sec
 * total energy  :  -148.1953650 Eh     change       -0.9656987E-04 Eh
   gradient norm :     0.0038822 Eh/α   predicted    -0.6835098E-04 ( -29.22%)
   displ. norm   :     0.2344101 α      lambda       -0.1193133E-03
   maximum displ.:     0.0820090 α      in ANC's #10, #7, #4, ...

........................................................................
.............................. CYCLE   13 ..............................
........................................................................

 iter      E             dE          RMSdq      gap      omega  full diag
   1   -150.2043424 -0.150204E+03  0.255E-02    2.66       0.0  T
   2   -150.2043431 -0.678601E-06  0.149E-02    2.66       1.0  T
   3   -150.2043423  0.790137E-06  0.339E-03    2.66       3.0  T
   4   -150.2043432 -0.969714E-06  0.109E-03    2.66       9.2  T
   5   -150.2043433 -0.567443E-07  0.468E-04    2.66      21.6  T
   6   -150.2043433 -0.410498E-08  0.204E-04    2.66      49.6  T
     SCC iter.                  ...        0 min,  0.092 sec
     gradient                   ...        0 min,  0.181 sec
 * total energy  :  -148.1954518 Eh     change       -0.8682599E-04 Eh
   gradient norm :     0.0039620 Eh/α   predicted    -0.6293793E-04 ( -27.51%)
   displ. norm   :     0.2116630 α      lambda       -0.9102983E-04
   maximum displ.:     0.0779774 α      in ANC's #7, #4, #10, ...

........................................................................
.............................. CYCLE   14 ..............................
........................................................................

 iter      E             dE          RMSdq      gap      omega  full diag
   1   -150.2034201 -0.150203E+03  0.256E-02    2.66       0.0  T
   2   -150.2034208 -0.683225E-06  0.149E-02    2.66       1.0  T
   3   -150.2034205  0.317513E-06  0.255E-03    2.66       4.0  T
   4   -150.2034209 -0.432085E-06  0.991E-04    2.66      10.2  T
   5   -150.2034209 -0.558237E-07  0.466E-04    2.66      21.7  T
     SCC iter.                  ...        0 min,  0.068 sec
     gradient                   ...        0 min,  0.154 sec
 * total energy  :  -148.1955169 Eh     change       -0.6511843E-04 Eh
   gradient norm :     0.0029912 Eh/α   predicted    -0.4756592E-04 ( -26.95%)
   displ. norm   :     0.1695422 α      lambda       -0.6331273E-04
   maximum displ.:     0.0682190 α      in ANC's #7, #4, #12, ...

........................................................................
.............................. CYCLE   15 ..............................
........................................................................

 iter      E             dE          RMSdq      gap      omega  full diag
   1   -150.2032199 -0.150203E+03  0.217E-02    2.66       0.0  T
   2   -150.2032205 -0.554448E-06  0.126E-02    2.66       1.0  T
   3   -150.2032199  0.574323E-06  0.300E-03    2.66       3.4  T
   4   -150.2032206 -0.695656E-06  0.897E-04    2.66      11.3  T
   5   -150.2032206 -0.454545E-07  0.404E-04    2.66      25.0  T
     SCC iter.                  ...        0 min,  0.074 sec
     gradient                   ...        0 min,  0.192 sec
 * total energy  :  -148.1955627 Eh     change       -0.4575553E-04 Eh
   gradient norm :     0.0018919 Eh/α   predicted    -0.3258018E-04 ( -28.80%)
   displ. norm   :     0.2358219 α      lambda       -0.5035129E-04
   maximum displ.:     0.0985093 α      in ANC's #7, #12, #4, ...

........................................................................
.............................. CYCLE   16 ..............................
........................................................................

 iter      E             dE          RMSdq      gap      omega  full diag
   1   -150.2030054 -0.150203E+03  0.300E-02    2.67       0.0  T
   2   -150.2030063 -0.966867E-06  0.174E-02    2.67       1.0  T
   3   -150.2030050  0.138158E-05  0.443E-03    2.67       2.3  T
   4   -150.2030066 -0.167541E-05  0.120E-03    2.67       8.4  T
   5   -150.2030067 -0.569506E-07  0.569E-04    2.67      17.7  T
   6   -150.2030067 -0.958241E-08  0.232E-04    2.67      43.4  T
     SCC iter.                  ...        0 min,  0.075 sec
     gradient                   ...        0 min,  0.145 sec
 * total energy  :  -148.1956069 Eh     change       -0.4426308E-04 Eh
   gradient norm :     0.0029959 Eh/α   predicted    -0.2580115E-04 ( -41.71%)
   displ. norm   :     0.0926284 α      lambda       -0.3649689E-04
   maximum displ.:     0.0373219 α      in ANC's #7, #12, #22, ...

........................................................................
.............................. CYCLE   17 ..............................
........................................................................

 iter      E             dE          RMSdq      gap      omega  full diag
   1   -150.2045702 -0.150205E+03  0.151E-02    2.67       0.0  T
   2   -150.2045705 -0.311743E-06  0.870E-03    2.67       1.2  T
   3   -150.2045703  0.160664E-06  0.176E-03    2.67       5.7  T
   4   -150.2045705 -0.204963E-06  0.714E-04    2.67      14.2  T
   5   -150.2045705 -0.274792E-07  0.297E-04    2.67      34.0  T
     SCC iter.                  ...        0 min,  0.060 sec
     gradient                   ...        0 min,  0.167 sec
 * total energy  :  -148.1956316 Eh     change       -0.2468492E-04 Eh
   gradient norm :     0.0029375 Eh/α   predicted    -0.1841165E-04 ( -25.41%)
   displ. norm   :     0.1911064 α      lambda       -0.6392407E-04
   maximum displ.:     0.0788848 α      in ANC's #7, #12, #1, ...

........................................................................
.............................. CYCLE   18 ..............................
........................................................................

 iter      E             dE          RMSdq      gap      omega  full diag
   1   -150.2045518 -0.150205E+03  0.308E-02    2.67       0.0  T
   2   -150.2045529 -0.106668E-05  0.178E-02    2.67       1.0  T
   3   -150.2045526  0.338096E-06  0.305E-03    2.67       3.3  T
   4   -150.2045531 -0.483030E-06  0.128E-03    2.67       7.9  T
   5   -150.2045531 -0.813938E-07  0.604E-04    2.67      16.7  T
   6   -150.2045532 -0.111988E-07  0.203E-04    2.67      49.8  T
     SCC iter.                  ...        0 min,  0.088 sec
     gradient                   ...        0 min,  0.150 sec
 * total energy  :  -148.1956747 Eh     change       -0.4308213E-04 Eh
   gradient norm :     0.0021593 Eh/α   predicted    -0.3312968E-04 ( -23.10%)
   displ. norm   :     0.1615563 α      lambda       -0.3486908E-04
   maximum displ.:     0.0729819 α      in ANC's #7, #12, #1, ...

........................................................................
.............................. CYCLE   19 ..............................
........................................................................

 iter      E             dE          RMSdq      gap      omega  full diag
   1   -150.2043876 -0.150204E+03  0.256E-02    2.67       0.0  T
   2   -150.2043882 -0.628142E-06  0.147E-02    2.67       1.0  T
   3   -150.2043880  0.209378E-06  0.248E-03    2.67       4.1  T
   4   -150.2043883 -0.306959E-06  0.116E-03    2.67       8.7  T
   5   -150.2043884 -0.602685E-07  0.504E-04    2.67      20.1  T
   6   -150.2043884 -0.828433E-08  0.154E-04    2.67      65.7  T
     SCC iter.                  ...        0 min,  0.094 sec
     gradient                   ...        0 min,  0.160 sec
 * total energy  :  -148.1957007 Eh     change       -0.2602465E-04 Eh
   gradient norm :     0.0017812 Eh/α   predicted    -0.1789137E-04 ( -31.25%)
   displ. norm   :     0.2970808 α      lambda       -0.3861905E-04
   maximum displ.:     0.1378780 α      in ANC's #7, #12, #1, ...

........................................................................
.............................. CYCLE   20 ..............................
........................................................................

 iter      E             dE          RMSdq      gap      omega  full diag
   1   -150.2030131 -0.150203E+03  0.471E-02    2.66       0.0  T
   2   -150.2030151 -0.201521E-05  0.270E-02    2.67       1.0  T
   3   -150.2030146  0.474687E-06  0.421E-03    2.67       2.4  T
   4   -150.2030155 -0.834134E-06  0.215E-03    2.67       4.7  T
   5   -150.2030157 -0.196852E-06  0.877E-04    2.67      11.5  T
   6   -150.2030157 -0.257263E-07  0.290E-04    2.67      34.9  T
     SCC iter.                  ...        0 min,  0.072 sec
     gradient                   ...        0 min,  0.154 sec
 * total energy  :  -148.1957335 Eh     change       -0.3274331E-04 Eh
   gradient norm :     0.0029991 Eh/α   predicted    -0.2007054E-04 ( -38.70%)
   displ. norm   :     0.1136729 α      lambda       -0.3099344E-04
   maximum displ.:     0.0502314 α      in ANC's #12, #7, #1, ...
 * RMSD in coord.:     0.3867073 α      energy gain  -0.2349972E-01 Eh

generating ANC from exact Hessian ...
Using Lindh-Hessian (1995)
 Shifting diagonal of input Hessian by    1.0063856977435117E-002
 Lowest  eigenvalues of input Hessian
    0.010000    0.000000    0.000000    0.000000    0.000000    0.000000
    0.000000    0.010186    0.010228    0.010354    0.010450    0.010501
    0.010582    0.010770    0.010806    0.010851    0.010961    0.011029
 Highest eigenvalues
    2.062569    2.082768    2.143619    2.315015    2.431996    2.537435


........................................................................
.............................. CYCLE   21 ..............................
........................................................................

 iter      E             dE          RMSdq      gap      omega  full diag
   1   -150.2034995 -0.150203E+03  0.191E-02    2.67       0.0  T
   2   -150.2035000 -0.486418E-06  0.108E-02    2.67       1.0  T
   3   -150.2035000  0.304109E-08  0.166E-03    2.67       6.1  T
   4   -150.2035001 -0.916085E-07  0.787E-04    2.67      12.8  T
   5   -150.2035001 -0.171244E-07  0.366E-04    2.67      27.6  T
     SCC iter.                  ...        0 min,  0.060 sec
     gradient                   ...        0 min,  0.166 sec
 * total energy  :  -148.1957546 Eh     change       -0.2107982E-04 Eh
   gradient norm :     0.0026732 Eh/α   predicted     0.0000000E+00 (-100.00%)
   displ. norm   :     0.0261414 α      lambda       -0.1614689E-04
   maximum displ.:     0.0084672 α      in ANC's #12, #38, #22, ...

........................................................................
.............................. CYCLE   22 ..............................
........................................................................

 iter      E             dE          RMSdq      gap      omega  full diag
   1   -150.2041924 -0.150204E+03  0.474E-03    2.67       0.0  T
   2   -150.2041924 -0.846164E-07  0.275E-03    2.67       3.7  T
   3   -150.2041923  0.983079E-07  0.140E-03    2.67       7.2  T
   4   -150.2041925 -0.124359E-06  0.339E-04    2.67      29.8  T
   5   -150.2041925 -0.581653E-08  0.143E-04    2.67      70.6  T
     SCC iter.                  ...        0 min,  0.075 sec
     gradient                   ...        0 min,  0.169 sec
 * total energy  :  -148.1957702 Eh     change       -0.1566095E-04 Eh
   gradient norm :     0.0013229 Eh/α   predicted    -0.9500917E-05 ( -39.33%)
   displ. norm   :     0.1225998 α      lambda       -0.3276356E-04
   maximum displ.:     0.0429805 α      in ANC's #12, #38, #14, ...

........................................................................
.............................. CYCLE   23 ..............................
........................................................................

 iter      E             dE          RMSdq      gap      omega  full diag
   1   -150.2053182 -0.150205E+03  0.196E-02    2.68       0.0  T
   2   -150.2053191 -0.938392E-06  0.113E-02    2.68       1.0  T
   3   -150.2053175  0.160427E-05  0.525E-03    2.68       1.9  T
   4   -150.2053195 -0.194909E-05  0.125E-03    2.68       8.1  T
   5   -150.2053195 -0.682089E-07  0.545E-04    2.68      18.5  T
   6   -150.2053195 -0.546842E-08  0.261E-04    2.68      38.7  T
     SCC iter.                  ...        0 min,  0.087 sec
     gradient                   ...        0 min,  0.170 sec
 * total energy  :  -148.1957949 Eh     change       -0.2465583E-04 Eh
   gradient norm :     0.0026938 Eh/α   predicted    -0.1789788E-04 ( -27.41%)
   displ. norm   :     0.0286396 α      lambda       -0.9598434E-05
   maximum displ.:     0.0112729 α      in ANC's #12, #20, #14, ...

........................................................................
.............................. CYCLE   24 ..............................
........................................................................

 iter      E             dE          RMSdq      gap      omega  full diag
   1   -150.2050060 -0.150205E+03  0.490E-03    2.68       0.0  T
   2   -150.2050060 -0.380142E-07  0.278E-03    2.68       3.6  T
   3   -150.2050060  0.513774E-07  0.940E-04    2.68      10.8  T
   4   -150.2050060 -0.630956E-07  0.310E-04    2.68      32.6  T
     SCC iter.                  ...        0 min,  0.070 sec
     gradient                   ...        0 min,  0.151 sec
 * total energy  :  -148.1958042 Eh     change       -0.9355445E-05 Eh
   gradient norm :     0.0020192 Eh/α   predicted    -0.5146693E-05 ( -44.99%)
   displ. norm   :     0.1728811 α      lambda       -0.4662358E-04
   maximum displ.:     0.0678178 α      in ANC's #12, #20, #14, ...

........................................................................
.............................. CYCLE   25 ..............................
........................................................................

 iter      E             dE          RMSdq      gap      omega  full diag
   1   -150.2037876 -0.150204E+03  0.295E-02    2.67       0.0  T
   2   -150.2037888 -0.111314E-05  0.168E-02    2.67       1.0  T
   3   -150.2037875  0.122085E-05  0.465E-03    2.67       2.2  T
   4   -150.2037891 -0.156099E-05  0.170E-03    2.67       5.9  T
   5   -150.2037892 -0.925976E-07  0.727E-04    2.67      13.9  T
   6   -150.2037892 -0.150829E-07  0.269E-04    2.67      37.6  T
     SCC iter.                  ...        0 min,  0.093 sec
     gradient                   ...        0 min,  0.153 sec
 * total energy  :  -148.1958320 Eh     change       -0.2777020E-04 Eh
   gradient norm :     0.0016576 Eh/α   predicted    -0.2403599E-04 ( -13.45%)
   displ. norm   :     0.1175224 α      lambda       -0.1045433E-04
   maximum displ.:     0.0457662 α      in ANC's #12, #20, #14, ...

........................................................................
.............................. CYCLE   26 ..............................
........................................................................

 iter      E             dE          RMSdq      gap      omega  full diag
   1   -150.2037737 -0.150204E+03  0.207E-02    2.67       0.0  T
   2   -150.2037741 -0.407878E-06  0.118E-02    2.67       1.0  T
   3   -150.2037739  0.208478E-06  0.229E-03    2.67       4.4  T
   4   -150.2037743 -0.326094E-06  0.105E-03    2.67       9.6  T
   5   -150.2037743 -0.323307E-07  0.439E-04    2.67      23.0  T
   6   -150.2037743 -0.859401E-08  0.151E-04    2.67      67.0  T
     SCC iter.                  ...        0 min,  0.091 sec
     gradient                   ...        0 min,  0.153 sec
 * total energy  :  -148.1958445 Eh     change       -0.1252034E-04 Eh
   gradient norm :     0.0019750 Eh/α   predicted    -0.5266415E-05 ( -57.94%)
   displ. norm   :     0.2460948 α      lambda       -0.2683999E-04
   maximum displ.:     0.0919172 α      in ANC's #12, #20, #14, ...

........................................................................
.............................. CYCLE   27 ..............................
........................................................................

 iter      E             dE          RMSdq      gap      omega  full diag
   1   -150.2043319 -0.150204E+03  0.448E-02    2.67       0.0  T
   2   -150.2043336 -0.168055E-05  0.256E-02    2.67       1.0  T
   3   -150.2043333  0.285504E-06  0.399E-03    2.67       2.5  T
   4   -150.2043340 -0.723700E-06  0.209E-03    2.67       4.8  T
   5   -150.2043342 -0.148174E-06  0.838E-04    2.67      12.1  T
   6   -150.2043342 -0.351702E-07  0.293E-04    2.67      34.5  T
     SCC iter.                  ...        0 min,  0.072 sec
     gradient                   ...        0 min,  0.169 sec
 * total energy  :  -148.1958747 Eh     change       -0.3019462E-04 Eh
   gradient norm :     0.0016832 Eh/α   predicted    -0.1378148E-04 ( -54.36%)
   displ. norm   :     0.3258800 α      lambda       -0.2943906E-04
   maximum displ.:     0.1162849 α      in ANC's #12, #14, #20, ...

........................................................................
.............................. CYCLE   28 ..............................
........................................................................

 iter      E             dE          RMSdq      gap      omega  full diag
   1   -150.2038503 -0.150204E+03  0.613E-02    2.67       0.0  T
   2   -150.2038532 -0.295953E-05  0.349E-02    2.67       1.0  T
   3   -150.2038519  0.133276E-05  0.627E-03    2.67       1.6  T
   4   -150.2038540 -0.211901E-05  0.306E-03    2.67       3.3  T
   5   -150.2038544 -0.342472E-06  0.104E-03    2.67       9.7  T
   6   -150.2038544 -0.414638E-07  0.363E-04    2.67      27.8  T
   7   -150.2038544 -0.441548E-08  0.196E-04    2.67      51.5  T
     SCC iter.                  ...        0 min,  0.104 sec
     gradient                   ...        0 min,  0.155 sec
 * total energy  :  -148.1959088 Eh     change       -0.3411344E-04 Eh
   gradient norm :     0.0025509 Eh/α   predicted    -0.1541712E-04 ( -54.81%)
   displ. norm   :     0.2980984 α      lambda       -0.4760361E-04
   maximum displ.:     0.1065452 α      in ANC's #14, #20, #12, ...

........................................................................
.............................. CYCLE   29 ..............................
........................................................................

 iter      E             dE          RMSdq      gap      omega  full diag
   1   -150.2039389 -0.150204E+03  0.559E-02    2.68       0.0  T
   2   -150.2039413 -0.237590E-05  0.319E-02    2.68       1.0  T
   3   -150.2039405  0.760805E-06  0.523E-03    2.68       1.9  T
   4   -150.2039419 -0.134795E-05  0.262E-03    2.68       3.9  T
   5   -150.2039421 -0.241427E-06  0.989E-04    2.68      10.2  T
   6   -150.2039421 -0.451173E-07  0.337E-04    2.68      30.0  T
     SCC iter.                  ...        0 min,  0.083 sec
     gradient                   ...        0 min,  0.141 sec
 * total energy  :  -148.1959480 Eh     change       -0.3913172E-04 Eh
   gradient norm :     0.0026002 Eh/α   predicted    -0.2591898E-04 ( -33.76%)
   displ. norm   :     0.4444773 α      lambda       -0.7045718E-04
   maximum displ.:     0.1591181 α      in ANC's #14, #1, #20, ...

........................................................................
.............................. CYCLE   30 ..............................
........................................................................

 iter      E             dE          RMSdq      gap      omega  full diag
   1   -150.2028195 -0.150203E+03  0.843E-02    2.68       0.0  T
   2   -150.2028250 -0.551603E-05  0.480E-02    2.69       1.0  T
   3   -150.2028196  0.541684E-05  0.104E-02    2.69       1.0  T
   4   -150.2028266 -0.706864E-05  0.411E-03    2.69       2.5  T
   5   -150.2028272 -0.589426E-06  0.143E-03    2.69       7.1  T
   6   -150.2028273 -0.574449E-07  0.461E-04    2.69      21.9  T
   7   -150.2028273 -0.616438E-08  0.260E-04    2.69      38.9  T
     SCC iter.                  ...        0 min,  0.104 sec
     gradient                   ...        0 min,  0.150 sec
 * total energy  :  -148.1960020 Eh     change       -0.5401589E-04 Eh
   gradient norm :     0.0036897 Eh/α   predicted    -0.4219294E-04 ( -21.89%)
   displ. norm   :     0.3734252 α      lambda       -0.9752177E-04
   maximum displ.:     0.1326702 α      in ANC's #1, #11, #14, ...

........................................................................
.............................. CYCLE   31 ..............................
........................................................................

 iter      E             dE          RMSdq      gap      omega  full diag
   1   -150.2049135 -0.150205E+03  0.672E-02    2.71       0.0  T
   2   -150.2049174 -0.390143E-05  0.385E-02    2.71       1.0  T
   3   -150.2049121  0.539223E-05  0.948E-03    2.71       1.1  T
   4   -150.2049187 -0.669385E-05  0.290E-03    2.71       3.5  T
   5   -150.2049190 -0.247119E-06  0.137E-03    2.71       7.4  T
   6   -150.2049191 -0.708940E-07  0.494E-04    2.71      20.4  T
   7   -150.2049191 -0.134141E-07  0.206E-04    2.71      49.0  T
     SCC iter.                  ...        0 min,  0.105 sec
     gradient                   ...        0 min,  0.197 sec
 * total energy  :  -148.1960552 Eh     change       -0.5323763E-04 Eh
   gradient norm :     0.0032986 Eh/α   predicted    -0.5564849E-04 (   4.53%)
   displ. norm   :     0.5515091 α      lambda       -0.9603005E-04
   maximum displ.:     0.1976056 α      in ANC's #14, #1, #20, ...

........................................................................
.............................. CYCLE   32 ..............................
........................................................................

 iter      E             dE          RMSdq      gap      omega  full diag
   1   -150.1990505 -0.150199E+03  0.105E-01    2.69       0.0  T
   2   -150.1990598 -0.934381E-05  0.592E-02    2.69       1.0  T
   3   -150.1990484  0.114718E-04  0.146E-02    2.69       1.0  T
   4   -150.1990627 -0.143141E-04  0.558E-03    2.69       1.8  T
   5   -150.1990637 -0.101573E-05  0.213E-03    2.69       4.8  T
   6   -150.1990639 -0.160094E-06  0.738E-04    2.69      13.7  T
   7   -150.1990639 -0.260838E-07  0.346E-04    2.69      29.2  T
     SCC iter.                  ...        0 min,  0.129 sec
     gradient                   ...        0 min,  0.265 sec
 * total energy  :  -148.1960760 Eh     change       -0.2077265E-04 Eh
   gradient norm :     0.0079502 Eh/α   predicted    -0.6262522E-04 ( 201.48%)
   displ. norm   :     0.1495798 α      lambda       -0.1219493E-03
   maximum displ.:     0.0508480 α      in ANC's #20, #14, #12, ...

........................................................................
.............................. CYCLE   33 ..............................
........................................................................

 iter      E             dE          RMSdq      gap      omega  full diag
   1   -150.2042734 -0.150204E+03  0.337E-02    2.71       0.0  T
   2   -150.2042750 -0.161507E-05  0.190E-02    2.70       1.0  T
   3   -150.2042737  0.133286E-05  0.540E-03    2.71       1.9  T
   4   -150.2042755 -0.182823E-05  0.167E-03    2.70       6.0  T
   5   -150.2042756 -0.624526E-07  0.767E-04    2.71      13.2  T
   6   -150.2042756 -0.197228E-07  0.327E-04    2.71      30.9  T
     SCC iter.                  ...        0 min,  0.111 sec
     gradient                   ...        0 min,  0.264 sec
 * total energy  :  -148.1961412 Eh     change       -0.6519967E-04 Eh
   gradient norm :     0.0026539 Eh/α   predicted    -0.6233919E-04 (  -4.39%)
   displ. norm   :     0.2082233 α      lambda       -0.4787850E-04
   maximum displ.:     0.0838007 α      in ANC's #1, #11, #14, ...

........................................................................
.............................. CYCLE   34 ..............................
........................................................................

 iter      E             dE          RMSdq      gap      omega  full diag
   1   -150.2047211 -0.150205E+03  0.358E-02    2.71       0.0  T
   2   -150.2047222 -0.108988E-05  0.205E-02    2.71       1.0  T
   3   -150.2047190  0.314937E-05  0.671E-03    2.71       1.5  T
   4   -150.2047227 -0.367224E-05  0.157E-03    2.71       6.4  T
   5   -150.2047228 -0.787932E-07  0.657E-04    2.71      15.4  T
   6   -150.2047228 -0.739985E-08  0.233E-04    2.71      43.3  T
     SCC iter.                  ...        0 min,  0.156 sec
     gradient                   ...        0 min,  0.222 sec
 * total energy  :  -148.1961813 Eh     change       -0.4015390E-04 Eh
   gradient norm :     0.0020734 Eh/α   predicted    -0.2498118E-04 ( -37.79%)
   displ. norm   :     0.4513626 α      lambda       -0.8452870E-04
   maximum displ.:     0.1826734 α      in ANC's #1, #11, #14, ...

........................................................................
.............................. CYCLE   35 ..............................
........................................................................

 iter      E             dE          RMSdq      gap      omega  full diag
   1   -150.2035227 -0.150204E+03  0.758E-02    2.72       0.0  T
   2   -150.2035268 -0.419199E-05  0.432E-02    2.72       1.0  T
   3   -150.2035217  0.511684E-05  0.967E-03    2.72       1.0  T
   4   -150.2035281 -0.640807E-05  0.354E-03    2.72       2.9  T
   5   -150.2035286 -0.413122E-06  0.127E-03    2.72       8.0  T
   6   -150.2035286 -0.553924E-07  0.408E-04    2.72      24.8  T
   7   -150.2035286 -0.613176E-08  0.221E-04    2.72      45.7  T
     SCC iter.                  ...        0 min,  0.168 sec
     gradient                   ...        0 min,  0.224 sec
 * total energy  :  -148.1962468 Eh     change       -0.6549993E-04 Eh
   gradient norm :     0.0028947 Eh/α   predicted    -0.5088535E-04 ( -22.31%)
   displ. norm   :     0.4066294 α      lambda       -0.6559948E-04
   maximum displ.:     0.1731941 α      in ANC's #1, #11, #14, ...

........................................................................
.............................. CYCLE   36 ..............................
........................................................................

 iter      E             dE          RMSdq      gap      omega  full diag
   1   -150.2022959 -0.150202E+03  0.656E-02    2.72       0.0  T
   2   -150.2022986 -0.265544E-05  0.375E-02    2.72       1.0  T
   3   -150.2022933  0.527762E-05  0.910E-03    2.72       1.1  T
   4   -150.2022997 -0.641030E-05  0.283E-03    2.72       3.6  T
   5   -150.2022999 -0.205721E-06  0.101E-03    2.72      10.0  T
   6   -150.2023000 -0.335594E-07  0.356E-04    2.72      28.4  T
   7   -150.2023000 -0.527908E-08  0.184E-04    2.72      54.9  T
     SCC iter.                  ...        0 min,  0.129 sec
     gradient                   ...        0 min,  0.266 sec
 * total energy  :  -148.1962948 Eh     change       -0.4793517E-04 Eh
   gradient norm :     0.0040088 Eh/α   predicted    -0.3822965E-04 ( -20.25%)
   displ. norm   :     0.2767736 α      lambda       -0.6819953E-04
   maximum displ.:     0.1302233 α      in ANC's #1, #11, #5, ...

........................................................................
.............................. CYCLE   37 ..............................
........................................................................

 iter      E             dE          RMSdq      gap      omega  full diag
   1   -150.2045079 -0.150205E+03  0.374E-02    2.73       0.0  T
   2   -150.2045090 -0.108534E-05  0.215E-02    2.73       1.0  T
   3   -150.2045078  0.124003E-05  0.467E-03    2.73       2.2  T
   4   -150.2045094 -0.157778E-05  0.153E-03    2.73       6.6  T
   5   -150.2045094 -0.638713E-07  0.730E-04    2.73      13.8  T
   6   -150.2045094 -0.197386E-07  0.282E-04    2.73      35.8  T
     SCC iter.                  ...        0 min,  0.156 sec
     gradient                   ...        0 min,  0.226 sec
 * total energy  :  -148.1963392 Eh     change       -0.4440954E-04 Eh
   gradient norm :     0.0026641 Eh/α   predicted    -0.3671512E-04 ( -17.33%)
   displ. norm   :     0.3786326 α      lambda       -0.6115330E-04
   maximum displ.:     0.1722730 α      in ANC's #1, #11, #5, ...

........................................................................
.............................. CYCLE   38 ..............................
........................................................................

 iter      E             dE          RMSdq      gap      omega  full diag
   1   -150.2029831 -0.150203E+03  0.594E-02    2.73       0.0  T
   2   -150.2029856 -0.241341E-05  0.338E-02    2.73       1.0  T
   3   -150.2029815  0.406964E-05  0.813E-03    2.73       1.2  T
   4   -150.2029863 -0.486029E-05  0.284E-03    2.73       3.6  T
   5   -150.2029866 -0.290551E-06  0.101E-03    2.73      10.0  T
   6   -150.2029867 -0.216259E-07  0.304E-04    2.73      33.2  T
   7   -150.2029867 -0.318153E-08  0.162E-04    2.73      62.2  T
     SCC iter.                  ...        0 min,  0.122 sec
     gradient                   ...        0 min,  0.215 sec
 * total energy  :  -148.1963833 Eh     change       -0.4413062E-04 Eh
   gradient norm :     0.0032844 Eh/α   predicted    -0.3496443E-04 ( -20.77%)
   displ. norm   :     0.3117192 α      lambda       -0.6818202E-04
   maximum displ.:     0.1564833 α      in ANC's #1, #11, #5, ...

........................................................................
.............................. CYCLE   39 ..............................
........................................................................

 iter      E             dE          RMSdq      gap      omega  full diag
   1   -150.2034501 -0.150203E+03  0.439E-02    2.74       0.0  T
   2   -150.2034515 -0.144899E-05  0.252E-02    2.74       1.0  T
   3   -150.2034495  0.204377E-05  0.571E-03    2.75       1.8  T
   4   -150.2034519 -0.244428E-05  0.193E-03    2.74       5.2  T
   5   -150.2034520 -0.142774E-06  0.854E-04    2.74      11.8  T
   6   -150.2034521 -0.215297E-07  0.305E-04    2.74      33.1  T
     SCC iter.                  ...        0 min,  0.116 sec
     gradient                   ...        0 min,  0.210 sec
 * total energy  :  -148.1964347 Eh     change       -0.5143757E-04 Eh
   gradient norm :     0.0026890 Eh/α   predicted    -0.3740862E-04 ( -27.27%)
   displ. norm   :     0.2888838 α      lambda       -0.6776914E-04
   maximum displ.:     0.1501536 α      in ANC's #1, #11, #5, ...

........................................................................
.............................. CYCLE   40 ..............................
........................................................................

 iter      E             dE          RMSdq      gap      omega  full diag
   1   -150.2045338 -0.150205E+03  0.385E-02    2.75       0.0  T
   2   -150.2045351 -0.130284E-05  0.220E-02    2.75       1.0  T
   3   -150.2045335  0.157490E-05  0.527E-03    2.75       1.9  T
   4   -150.2045354 -0.185766E-05  0.190E-03    2.75       5.3  T
   5   -150.2045355 -0.156541E-06  0.781E-04    2.75      12.9  T
   6   -150.2045356 -0.182396E-07  0.240E-04    2.75      42.1  T
     SCC iter.                  ...        0 min,  0.117 sec
     gradient                   ...        0 min,  0.225 sec
 * total energy  :  -148.1964838 Eh     change       -0.4907701E-04 Eh
   gradient norm :     0.0029888 Eh/α   predicted    -0.3671691E-04 ( -25.19%)
   displ. norm   :     0.3214054 α      lambda       -0.6720189E-04
   maximum displ.:     0.1698839 α      in ANC's #1, #11, #5, ...

........................................................................
.............................. CYCLE   41 ..............................
........................................................................

 iter      E             dE          RMSdq      gap      omega  full diag
   1   -150.2048222 -0.150205E+03  0.423E-02    2.76       0.0  T
   2   -150.2048236 -0.143239E-05  0.245E-02    2.76       1.0  T
   3   -150.2048205  0.316897E-05  0.670E-03    2.76       1.5  T
   4   -150.2048241 -0.365017E-05  0.186E-03    2.76       5.4  T
   5   -150.2048243 -0.146206E-06  0.825E-04    2.76      12.2  T
   6   -150.2048243 -0.172632E-07  0.321E-04    2.76      31.4  T
     SCC iter.                  ...        0 min,  0.123 sec
     gradient                   ...        0 min,  0.279 sec
 * total energy  :  -148.1965292 Eh     change       -0.4540815E-04 Eh
   gradient norm :     0.0031794 Eh/α   predicted    -0.3707579E-04 ( -18.35%)
   displ. norm   :     0.3410087 α      lambda       -0.5666909E-04
   maximum displ.:     0.1815104 α      in ANC's #1, #11, #5, ...

........................................................................
.............................. CYCLE   42 ..............................
........................................................................

 iter      E             dE          RMSdq      gap      omega  full diag
   1   -150.2038196 -0.150204E+03  0.480E-02    2.76       0.0  T
   2   -150.2038217 -0.218809E-05  0.275E-02    2.76       1.0  T
   3   -150.2038138  0.798237E-05  0.106E-02    2.76       1.0  T
   4   -150.2038229 -0.913514E-05  0.242E-03    2.76       4.2  T
   5   -150.2038231 -0.232242E-06  0.922E-04    2.76      11.0  T
   6   -150.2038231 -0.751263E-08  0.277E-04    2.76      36.4  T
     SCC iter.                  ...        0 min,  0.123 sec
     gradient                   ...        0 min,  0.296 sec
 * total energy  :  -148.1965672 Eh     change       -0.3799313E-04 Eh
   gradient norm :     0.0029425 Eh/α   predicted    -0.3163644E-04 ( -16.73%)
   displ. norm   :     0.2224565 α      lambda       -0.5154341E-04
   maximum displ.:     0.1249808 α      in ANC's #1, #11, #5, ...
 * RMSD in coord.:     0.4971000 α      energy gain  -0.8337532E-03 Eh

generating ANC from exact Hessian ...
Using Lindh-Hessian (1995)
 Shifting diagonal of input Hessian by    1.0063401376671888E-002
 Lowest  eigenvalues of input Hessian
    0.010000    0.000000    0.000000    0.000000    0.000000    0.000000
    0.000000    0.010171    0.010210    0.010340    0.010500    0.010529
    0.010584    0.010751    0.010847    0.010891    0.010961    0.011006
 Highest eigenvalues
    2.065360    2.081534    2.142831    2.313632    2.428264    2.540908


........................................................................
.............................. CYCLE   43 ..............................
........................................................................

 iter      E             dE          RMSdq      gap      omega  full diag
   1   -150.2070881 -0.150207E+03  0.259E-02    2.77       0.0  T
   2   -150.2070888 -0.723102E-06  0.150E-02    2.77       1.0  T
   3   -150.2070868  0.195663E-05  0.525E-03    2.77       1.9  T
   4   -150.2070891 -0.227410E-05  0.119E-03    2.77       8.5  T
   5   -150.2070891 -0.511373E-07  0.572E-04    2.77      17.7  T
   6   -150.2070892 -0.965971E-08  0.210E-04    2.77      48.1  T
     SCC iter.                  ...        0 min,  0.123 sec
     gradient                   ...        0 min,  0.278 sec
 * total energy  :  -148.1965969 Eh     change       -0.2964707E-04 Eh
   gradient norm :     0.0024127 Eh/α   predicted     0.0000000E+00 (-100.00%)
   displ. norm   :     0.0310319 α      lambda       -0.5698204E-05
   maximum displ.:     0.0120433 α      in ANC's #16, #21, #1, ...

........................................................................
.............................. CYCLE   44 ..............................
........................................................................

 iter      E             dE          RMSdq      gap      omega  full diag
   1   -150.2058467 -0.150206E+03  0.504E-03    2.77       0.0  T
   2   -150.2058467 -0.880884E-07  0.300E-03    2.77       3.4  T
   3   -150.2058466  0.118769E-06  0.137E-03    2.77       7.4  T
   4   -150.2058468 -0.141986E-06  0.379E-04    2.77      26.7  T
   5   -150.2058468 -0.885373E-08  0.144E-04    2.77      70.4  T
     SCC iter.                  ...        0 min,  0.105 sec
     gradient                   ...        0 min,  0.279 sec
 * total energy  :  -148.1966154 Eh     change       -0.1851816E-04 Eh
   gradient norm :     0.0010979 Eh/α   predicted    -0.1144279E-04 ( -38.21%)
   displ. norm   :     0.1401046 α      lambda       -0.4019538E-04
   maximum displ.:     0.0599256 α      in ANC's #16, #1, #21, ...

........................................................................
.............................. CYCLE   45 ..............................
........................................................................

 iter      E             dE          RMSdq      gap      omega  full diag
   1   -150.2031085 -0.150203E+03  0.189E-02    2.76       0.0  T
   2   -150.2031093 -0.760031E-06  0.111E-02    2.76       1.0  T
   3   -150.2031082  0.106808E-05  0.389E-03    2.76       2.6  T
   4   -150.2031094 -0.123383E-05  0.114E-03    2.76       8.9  T
   5   -150.2031095 -0.798645E-07  0.437E-04    2.76      23.1  T
   6   -150.2031095 -0.176749E-08  0.207E-04    2.76      48.8  T
     SCC iter.                  ...        0 min,  0.123 sec
     gradient                   ...        0 min,  0.279 sec
 * total energy  :  -148.1966449 Eh     change       -0.2952869E-04 Eh
   gradient norm :     0.0027064 Eh/α   predicted    -0.2027323E-04 ( -31.34%)
   displ. norm   :     0.0416649 α      lambda       -0.1392659E-04
   maximum displ.:     0.0199682 α      in ANC's #16, #1, #7, ...

........................................................................
.............................. CYCLE   46 ..............................
........................................................................

 iter      E             dE          RMSdq      gap      omega  full diag
   1   -150.2036244 -0.150204E+03  0.573E-03    2.76       0.0  T
   2   -150.2036244 -0.298327E-07  0.332E-03    2.76       3.0  T
   3   -150.2036243  0.839519E-07  0.108E-03    2.76       9.4  T
   4   -150.2036244 -0.978465E-07  0.258E-04    2.76      39.2  T
   5   -150.2036244 -0.184656E-08  0.121E-04    2.76      83.5  T
     SCC iter.                  ...        0 min,  0.162 sec
     gradient                   ...        0 min,  0.232 sec
 * total energy  :  -148.1966582 Eh     change       -0.1324361E-04 Eh
   gradient norm :     0.0020563 Eh/α   predicted    -0.7204584E-05 ( -45.60%)
   displ. norm   :     0.2045810 α      lambda       -0.6082677E-04
   maximum displ.:     0.0952316 α      in ANC's #16, #1, #7, ...

........................................................................
.............................. CYCLE   47 ..............................
........................................................................

 iter      E             dE          RMSdq      gap      omega  full diag
   1   -150.2054382 -0.150205E+03  0.283E-02    2.77       0.0  T
   2   -150.2054389 -0.632610E-06  0.164E-02    2.77       1.0  T
   3   -150.2054368  0.203887E-05  0.528E-03    2.77       1.9  T
   4   -150.2054392 -0.237136E-05  0.122E-03    2.77       8.3  T
   5   -150.2054392 -0.357473E-07  0.561E-04    2.77      18.0  T
   6   -150.2054392 -0.900408E-08  0.185E-04    2.77      54.7  T
     SCC iter.                  ...        0 min,  0.111 sec
     gradient                   ...        0 min,  0.211 sec
 * total energy  :  -148.1967008 Eh     change       -0.4263382E-04 Eh
   gradient norm :     0.0012850 Eh/α   predicted    -0.3171612E-04 ( -25.61%)
   displ. norm   :     0.2835569 α      lambda       -0.3057264E-04
   maximum displ.:     0.1300531 α      in ANC's #16, #1, #7, ...

........................................................................
.............................. CYCLE   48 ..............................
........................................................................

 iter      E             dE          RMSdq      gap      omega  full diag
   1   -150.2060606 -0.150206E+03  0.386E-02    2.77       0.0  T
   2   -150.2060615 -0.915212E-06  0.223E-02    2.77       1.0  T
   3   -150.2060593  0.215328E-05  0.563E-03    2.77       1.8  T
   4   -150.2060619 -0.255882E-05  0.163E-03    2.77       6.2  T
   5   -150.2060620 -0.670975E-07  0.661E-04    2.77      15.3  T
   6   -150.2060620 -0.150507E-07  0.220E-04    2.77      45.9  T
     SCC iter.                  ...        0 min,  0.116 sec
     gradient                   ...        0 min,  0.219 sec
 * total energy  :  -148.1967322 Eh     change       -0.3139897E-04 Eh
   gradient norm :     0.0025525 Eh/α   predicted    -0.1583491E-04 ( -49.57%)
   displ. norm   :     0.1593847 α      lambda       -0.2665356E-04
   maximum displ.:     0.0701259 α      in ANC's #16, #1, #7, ...

........................................................................
.............................. CYCLE   49 ..............................
........................................................................

 iter      E             dE          RMSdq      gap      omega  full diag
   1   -150.2058682 -0.150206E+03  0.219E-02    2.77       0.0  T
   2   -150.2058685 -0.281003E-06  0.126E-02    2.77       1.0  T
   3   -150.2058683  0.205378E-06  0.212E-03    2.77       4.8  T
   4   -150.2058686 -0.270739E-06  0.949E-04    2.77      10.6  T
   5   -150.2058686 -0.344384E-07  0.362E-04    2.77      27.9  T
     SCC iter.                  ...        0 min,  0.105 sec
     gradient                   ...        0 min,  0.226 sec
 * total energy  :  -148.1967562 Eh     change       -0.2402254E-04 Eh
   gradient norm :     0.0020495 Eh/α   predicted    -0.1370974E-04 ( -42.93%)
   displ. norm   :     0.3661710 α      lambda       -0.6453531E-04
   maximum displ.:     0.1597968 α      in ANC's #1, #16, #7, ...

........................................................................
.............................. CYCLE   50 ..............................
........................................................................

 iter      E             dE          RMSdq      gap      omega  full diag
   1   -150.2047064 -0.150205E+03  0.504E-02    2.77       0.0  T
   2   -150.2047080 -0.164966E-05  0.290E-02    2.78       1.0  T
   3   -150.2047073  0.699119E-06  0.438E-03    2.78       2.3  T
   4   -150.2047083 -0.101091E-05  0.215E-03    2.78       4.7  T
   5   -150.2047085 -0.186036E-06  0.866E-04    2.78      11.7  T
   6   -150.2047086 -0.321064E-07  0.294E-04    2.78      34.4  T
     SCC iter.                  ...        0 min,  0.105 sec
     gradient                   ...        0 min,  0.217 sec
 * total energy  :  -148.1968043 Eh     change       -0.4807551E-04 Eh
   gradient norm :     0.0011213 Eh/α   predicted    -0.3660866E-04 ( -23.85%)
   displ. norm   :     0.4406045 α      lambda       -0.3514934E-04
   maximum displ.:     0.1996869 α      in ANC's #1, #16, #7, ...

........................................................................
.............................. CYCLE   51 ..............................
........................................................................

 iter      E             dE          RMSdq      gap      omega  full diag
   1   -150.2031858 -0.150203E+03  0.600E-02    2.78       0.0  T
   2   -150.2031884 -0.253906E-05  0.345E-02    2.78       1.0  T
   3   -150.2031875  0.807919E-06  0.500E-03    2.78       2.0  T
   4   -150.2031888 -0.124296E-05  0.250E-03    2.78       4.0  T
   5   -150.2031890 -0.256244E-06  0.104E-03    2.78       9.7  T
   6   -150.2031891 -0.449438E-07  0.358E-04    2.78      28.2  T
   7   -150.2031891 -0.758212E-08  0.169E-04    2.78      59.8  T
     SCC iter.                  ...        0 min,  0.128 sec
     gradient                   ...        0 min,  0.281 sec
 * total energy  :  -148.1968329 Eh     change       -0.2863750E-04 Eh
   gradient norm :     0.0022819 Eh/α   predicted    -0.1910161E-04 ( -33.30%)
   displ. norm   :     0.0527318 α      lambda       -0.1533320E-04
   maximum displ.:     0.0272145 α      in ANC's #1, #17, #8, ...

........................................................................
.............................. CYCLE   52 ..............................
........................................................................

 iter      E             dE          RMSdq      gap      omega  full diag
   1   -150.2042901 -0.150204E+03  0.664E-03    2.78       0.0  T
   2   -150.2042902 -0.739636E-07  0.385E-03    2.78       2.6  T
   3   -150.2042901  0.829504E-07  0.117E-03    2.78       8.6  T
   4   -150.2042902 -0.100167E-06  0.360E-04    2.78      28.1  T
   5   -150.2042902 -0.599226E-08  0.155E-04    2.78      65.3  T
     SCC iter.                  ...        0 min,  0.106 sec
     gradient                   ...        0 min,  0.232 sec
 * total energy  :  -148.1968459 Eh     change       -0.1298356E-04 Eh
   gradient norm :     0.0015278 Eh/α   predicted    -0.7688782E-05 ( -40.78%)
   displ. norm   :     0.2281212 α      lambda       -0.3554452E-04
   maximum displ.:     0.1181510 α      in ANC's #1, #17, #8, ...

........................................................................
.............................. CYCLE   53 ..............................
........................................................................

 iter      E             dE          RMSdq      gap      omega  full diag
   1   -150.2064832 -0.150206E+03  0.292E-02    2.79       0.0  T
   2   -150.2064842 -0.970452E-06  0.169E-02    2.79       1.0  T
   3   -150.2064828  0.137412E-05  0.452E-03    2.79       2.2  T
   4   -150.2064845 -0.167381E-05  0.134E-03    2.79       7.5  T
   5   -150.2064845 -0.586055E-07  0.652E-04    2.79      15.5  T
   6   -150.2064845 -0.141286E-07  0.249E-04    2.79      40.6  T
     SCC iter.                  ...        0 min,  0.111 sec
     gradient                   ...        0 min,  0.281 sec
 * total energy  :  -148.1968747 Eh     change       -0.2880143E-04 Eh
   gradient norm :     0.0020166 Eh/α   predicted    -0.1818663E-04 ( -36.86%)
   displ. norm   :     0.0949636 α      lambda       -0.1241588E-04
   maximum displ.:     0.0498385 α      in ANC's #1, #8, #17, ...

........................................................................
.............................. CYCLE   54 ..............................
........................................................................

 iter      E             dE          RMSdq      gap      omega  full diag
   1   -150.2058799 -0.150206E+03  0.128E-02    2.78       0.0  T
   2   -150.2058800 -0.113329E-06  0.732E-03    2.78       1.4  T
   3   -150.2058798  0.205459E-06  0.178E-03    2.78       5.7  T
   4   -150.2058801 -0.247187E-06  0.575E-04    2.78      17.6  T
   5   -150.2058801 -0.809229E-08  0.245E-04    2.78      41.2  T
     SCC iter.                  ...        0 min,  0.099 sec
     gradient                   ...        0 min,  0.278 sec
 * total energy  :  -148.1968859 Eh     change       -0.1117245E-04 Eh
   gradient norm :     0.0015680 Eh/α   predicted    -0.6266442E-05 ( -43.91%)
   displ. norm   :     0.2968832 α      lambda       -0.3079808E-04
   maximum displ.:     0.1586937 α      in ANC's #1, #8, #17, ...

........................................................................
.............................. CYCLE   55 ..............................
........................................................................

 iter      E             dE          RMSdq      gap      omega  full diag
   1   -150.2038764 -0.150204E+03  0.398E-02    2.78       0.0  T
   2   -150.2038776 -0.122844E-05  0.229E-02    2.78       1.0  T
   3   -150.2038745  0.314216E-05  0.666E-03    2.78       1.5  T
   4   -150.2038781 -0.367262E-05  0.181E-03    2.78       5.6  T
   5   -150.2038782 -0.929130E-07  0.774E-04    2.78      13.0  T
   6   -150.2038782 -0.239591E-07  0.263E-04    2.78      38.4  T
     SCC iter.                  ...        0 min,  0.105 sec
     gradient                   ...        0 min,  0.197 sec
 * total energy  :  -148.1969147 Eh     change       -0.2883722E-04 Eh
   gradient norm :     0.0015902 Eh/α   predicted    -0.1600593E-04 ( -44.50%)
   displ. norm   :     0.1500635 α      lambda       -0.1134176E-04
   maximum displ.:     0.0853405 α      in ANC's #1, #8, #5, ...

........................................................................
.............................. CYCLE   56 ..............................
........................................................................

 iter      E             dE          RMSdq      gap      omega  full diag
   1   -150.2040612 -0.150204E+03  0.178E-02    2.78       0.0  T
   2   -150.2040614 -0.231212E-06  0.102E-02    2.78       1.0  T
   3   -150.2040611  0.311182E-06  0.224E-03    2.78       4.5  T
   4   -150.2040615 -0.377729E-06  0.795E-04    2.78      12.7  T
   5   -150.2040615 -0.196129E-07  0.340E-04    2.78      29.7  T
     SCC iter.                  ...        0 min,  0.081 sec
     gradient                   ...        0 min,  0.204 sec
 * total energy  :  -148.1969284 Eh     change       -0.1366106E-04 Eh
   gradient norm :     0.0013079 Eh/α   predicted    -0.5731390E-05 ( -58.05%)
   displ. norm   :     0.1779771 α      lambda       -0.1695132E-04
   maximum displ.:     0.1019778 α      in ANC's #1, #8, #5, ...

........................................................................
.............................. CYCLE   57 ..............................
........................................................................

 iter      E             dE          RMSdq      gap      omega  full diag
   1   -150.2049909 -0.150205E+03  0.204E-02    2.79       0.0  T
   2   -150.2049913 -0.374285E-06  0.118E-02    2.79       1.0  T
   3   -150.2049905  0.786273E-06  0.328E-03    2.79       3.1  T
   4   -150.2049914 -0.908248E-06  0.892E-04    2.79      11.3  T
   5   -150.2049914 -0.341078E-07  0.383E-04    2.79      26.4  T
     SCC iter.                  ...        0 min,  0.082 sec
     gradient                   ...        0 min,  0.197 sec
 * total energy  :  -148.1969471 Eh     change       -0.1875965E-04 Eh
   gradient norm :     0.0008334 Eh/α   predicted    -0.8597339E-05 ( -54.17%)
   displ. norm   :     0.1985414 α      lambda       -0.1554977E-04
   maximum displ.:     0.1161631 α      in ANC's #1, #8, #9, ...

........................................................................
.............................. CYCLE   58 ..............................
........................................................................

 iter      E             dE          RMSdq      gap      omega  full diag
   1   -150.2054277 -0.150205E+03  0.223E-02    2.79       0.0  T
   2   -150.2054281 -0.391349E-06  0.129E-02    2.79       1.0  T
   3   -150.2054278  0.270948E-06  0.233E-03    2.79       4.3  T
   4   -150.2054281 -0.346926E-06  0.944E-04    2.79      10.7  T
   5   -150.2054282 -0.341243E-07  0.410E-04    2.79      24.7  T
     SCC iter.                  ...        0 min,  0.093 sec
     gradient                   ...        0 min,  0.260 sec
 * total energy  :  -148.1969640 Eh     change       -0.1680594E-04 Eh
   gradient norm :     0.0011936 Eh/α   predicted    -0.7914817E-05 ( -52.90%)
   displ. norm   :     0.1845231 α      lambda       -0.1217567E-04
   maximum displ.:     0.1101631 α      in ANC's #1, #8, #9, ...

........................................................................
.............................. CYCLE   59 ..............................
........................................................................

 iter      E             dE          RMSdq      gap      omega  full diag
   1   -150.2052770 -0.150205E+03  0.208E-02    2.79       0.0  T
   2   -150.2052774 -0.348883E-06  0.121E-02    2.79       1.0  T
   3   -150.2052771  0.286192E-06  0.221E-03    2.79       4.6  T
   4   -150.2052774 -0.346431E-06  0.863E-04    2.79      11.7  T
   5   -150.2052775 -0.373871E-07  0.357E-04    2.79      28.3  T
     SCC iter.                  ...        0 min,  0.087 sec
     gradient                   ...        0 min,  0.201 sec
 * total energy  :  -148.1969790 Eh     change       -0.1503282E-04 Eh
   gradient norm :     0.0010894 Eh/α   predicted    -0.6182028E-05 ( -58.88%)
   displ. norm   :     0.1967233 α      lambda       -0.1410444E-04
   maximum displ.:     0.1194761 α      in ANC's #1, #8, #11, ...

........................................................................
[...]
       130        1.9866           -0.3909323             -10.6378
       131        1.9167           -0.3891293             -10.5887
       132        1.8548           -0.3885354             -10.5726
       133        1.7720           -0.3880097             -10.5583
       134        1.4710           -0.3867407             -10.5238
       135        0.5851           -0.2466073              -6.7105 (HOMO)
       136        0.4149           -0.2459539              -6.6927 (LUMO)
       137        0.0000           -0.2337887              -6.3617
       138                         -0.2306572              -6.2765
       139                         -0.2294087              -6.2425
       140                         -0.2253931              -6.1333
       ...                                ...                  ...
       258                          0.6802173              18.5097
      -------------------------------------------------------------
                  HL-Gap            0.0006533 Eh            0.0178 eV
             Fermi-level           -0.3165658 Eh           -8.6142 eV

 transition dipole moment (au) for excitation:         134         135
     X       Y       Z   
   0.3224   0.3350  -1.0525  total (au/Debye):    1.151   2.925
 dE (eV)             :    3.813
 oscillator strength :  0.17492E+00

 SCC (total)                   0 d,  0 h,  0 min,  0.590 sec
 SCC setup                      ...        0 min,  0.002 sec (  0.283%)
 Dispersion                     ...        0 min,  0.010 sec (  1.763%)
 classical contributions        ...        0 min,  0.001 sec (  0.126%)
 integral evaluation            ...        0 min,  0.031 sec (  5.186%)
 iterations                     ...        0 min,  0.341 sec ( 57.791%)
 molecular gradient             ...        0 min,  0.180 sec ( 30.492%)
 printout                       ...        0 min,  0.026 sec (  4.357%)

         :::::::::::::::::::::::::::::::::::::::::::::::::::::
         ::                     SUMMARY                     ::
         :::::::::::::::::::::::::::::::::::::::::::::::::::::
         :: total energy            -148.065763108440 Eh    ::
         :: gradient norm              0.095806476736 Eh/a0 ::
         :: HOMO-LUMO gap              0.017778504841 eV    ::
         ::.................................................::
         :: SCC energy              -150.066793362593 Eh    ::
         :: -> isotropic ES            0.189780877081 Eh    ::
         :: -> anisotropic ES          0.001684590302 Eh    ::
         :: -> anisotropic XC          0.060031173426 Eh    ::
         :: -> dispersion             -0.126483672197 Eh    ::
         :: repulsion energy           2.001030254153 Eh    ::
         :: add. restraining           0.000000000000 Eh    ::
         :: total charge               0.000000000000 e     ::
         :::::::::::::::::::::::::::::::::::::::::::::::::::::

           -------------------------------------------------
          |                Property Printout                |
           -------------------------------------------------

    * Orbital Energies and Occupations

         #    Occupation            Energy/Eh            Energy/eV
      -------------------------------------------------------------
         1        2.0000           -0.7367063             -20.0468
       ...           ...                  ...                  ...
       123        2.0000           -0.4108875             -11.1808
       124        2.0000           -0.4091361             -11.1332
       125        2.0000           -0.4060099             -11.0481
       126        2.0000           -0.4045387             -11.0081
       127        2.0000           -0.4031276             -10.9697
       128        2.0000           -0.4009656             -10.9108
       129        1.9989           -0.3933569             -10.7038
       130        1.9866           -0.3909323             -10.6378
       131        1.9167           -0.3891293             -10.5887
       132        1.8548           -0.3885354             -10.5726
       133        1.7720           -0.3880097             -10.5583
       134        1.4710           -0.3867407             -10.5238
       135        0.5851           -0.2466073              -6.7105 (HOMO)
       136        0.4149           -0.2459539              -6.6927 (LUMO)
       137        0.0000           -0.2337887              -6.3617
       138                         -0.2306572              -6.2765
       139                         -0.2294087              -6.2425
       140                         -0.2253931              -6.1333
       141                         -0.2241594              -6.0997
       142                         -0.2002611              -5.4494
       143                         -0.1965469              -5.3483
       144                         -0.1955798              -5.3220
       145                         -0.1931086              -5.2548
       146                         -0.1889395              -5.1413
       ...                                ...                  ...
       258                          0.6802173              18.5097
      -------------------------------------------------------------
                  HL-Gap            0.0006533 Eh            0.0178 eV
             Fermi-level           -0.3165658 Eh           -8.6142 eV

     #   Z          covCN         q      C6AA      α(0)
     1   8 O        0.857    -0.464    23.000     6.430
     2   6 C        2.654     0.402    20.223     7.357
     3   7 N        2.691    -0.192    25.165     7.450
     4   6 C        3.793     0.037    19.956     6.362
     5   6 C        3.812    -0.077    21.952     6.669
     6   6 C        2.970     0.015    27.678     8.630
     7   6 C        2.925    -0.039    28.966     8.826
     8   6 C        2.919    -0.030    28.737     8.791
     9   6 C        2.920    -0.030    28.751     8.793
    10   6 C        2.919    -0.029    28.731     8.790
    11   6 C        2.925    -0.037    28.915     8.818
    12   6 C        3.729     0.105    18.946     6.214
    13   6 C        3.804    -0.081    22.037     6.683
    14   6 C        3.793     0.050    19.753     6.329
    15   7 N        2.689    -0.171    24.694     7.380
    16   6 C        2.753     0.275    22.356     7.743
    17   6 C        3.811     0.027    20.120     6.385
    18   7 N        2.693    -0.216    25.702     7.530
    19   6 C        2.715     0.323    21.515     7.593
    20   7 N        2.739    -0.098    23.164     7.148
    21   6 C        3.700    -0.047    21.577     6.643
    22   6 C        3.748    -0.009    20.808     6.506
    23   6 C        3.212     0.066    25.909     8.285
    24   6 C        2.924    -0.049    29.212     8.863
    25  16 S        2.289    -0.087   144.687    20.245
    26   6 C        3.022     0.103    25.702     8.316
    27   6 C        3.873    -0.007    20.659     6.463
    28   6 C        3.758    -0.110    22.650     6.785
    29   6 C        3.758    -0.104    22.541     6.769
    30   7 N        1.967    -0.273    27.916     7.835
    31   8 O        0.859    -0.491    23.586     6.511
    32   6 C        3.851    -0.011    20.736     6.477
    33   6 C        3.757    -0.112    22.700     6.793
    34   6 C        3.755    -0.111    22.673     6.789
    35   8 O        0.858    -0.452    22.757     6.396
    36   6 C        3.811    -0.075    21.919     6.664
    37   6 C        2.972     0.012    27.742     8.640
    38   6 C        2.925    -0.039    28.971     8.827
    39   6 C        2.919    -0.030    28.749     8.793
    40   6 C        2.921    -0.031    28.773     8.796
    41   6 C        2.920    -0.029    28.714     8.787
    42   6 C        2.925    -0.037    28.929     8.820
    43   8 O        1.654    -0.461    22.077     6.343
    44   8 O        1.708    -0.300    18.986     5.883
    45   6 C        3.724     0.094    19.133     6.246
    46   6 C        2.974    -0.009    28.245     8.718
    47   6 C        3.197     0.024    26.930     8.459
    48   7 N        1.958    -0.205    26.270     7.601
    49   6 C        2.996     0.053    26.796     8.491
    50  16 S        2.291    -0.067   143.820    20.184
    51   1 H        0.860     0.209     1.061     1.613
    52   1 H        0.924     0.066     2.132     2.283
    53   1 H        0.924     0.065     2.147     2.291
    54   1 H        0.924     0.057     2.234     2.337
    55   1 H        0.926     0.036     2.499     2.472
    56   1 H        0.926     0.033     2.538     2.491
    57   1 H        0.926     0.031     2.568     2.506
    58   1 H        0.926     0.033     2.541     2.493
    59   1 H        0.926     0.043     2.404     2.425
    60   1 H        0.924     0.043     2.407     2.426
    61   1 H        0.925     0.052     2.301     2.372
    62   1 H        0.924     0.052     2.295     2.369
    63   1 H        0.923     0.071     2.077     2.254
    64   1 H        0.860     0.184     1.189     1.708
    65   1 H        0.924     0.061     2.184     2.311
    66   1 H        0.860     0.217     1.022     1.584
    67   1 H        0.924     0.054     2.276     2.359
    68   1 H        0.924     0.056     2.251     2.346
    69   1 H        0.925     0.091     1.872     2.139
    70   1 H        0.924     0.068     2.107     2.270
    71   1 H        0.924     0.057     2.238     2.339
    72   1 H        0.926     0.031     2.570     2.507
    73   1 H        0.924     0.037     2.491     2.468
    74   1 H        0.925     0.036     2.507     2.476
    75   1 H        0.925     0.049     2.334     2.389
    76   1 H        0.925     0.065     2.144     2.290
    77   1 H        0.925     0.044     2.391     2.418
    78   1 H        0.925     0.053     2.286     2.364
    79   1 H        0.925     0.036     2.498     2.472
    80   1 H        0.924     0.030     2.586     2.515
    81   1 H        0.925     0.038     2.480     2.463
    82   1 H        0.925     0.049     2.330     2.387
    83   1 H        0.925     0.048     2.346     2.395
    84   1 H        0.925     0.039     2.459     2.452
    85   1 H        0.925     0.051     2.311     2.378
    86   1 H        0.925     0.056     2.250     2.346
    87   1 H        0.924     0.045     2.378     2.412
    88   1 H        0.924     0.050     2.317     2.380
    89   1 H        0.925     0.031     2.572     2.508
    90   1 H        0.926     0.035     2.523     2.484
    91   1 H        0.926     0.034     2.525     2.485
    92   1 H        0.926     0.035     2.513     2.479
    93   1 H        0.926     0.037     2.494     2.469
    94   1 H        0.803     0.330     0.636     1.253
    95   1 H        0.923     0.063     2.160     2.298
    96   1 H        0.924     0.043     2.409     2.427
    97   1 H        0.926     0.036     2.500     2.473
    98   1 H        0.926     0.044     2.395     2.420

 Mol. C6AA /au·bohr⁶  :     109799.895923
 Mol. C8AA /au·bohr⁸  :    2702546.059789
 Mol. α(0) /au        :        512.649091


Wiberg/Mayer (AO) data.
largest (>0.10) Wiberg bond orders for each atom

 ---------------------------------------------------------------------------
     #   Z sym  total        # sym  WBO       # sym  WBO       # sym  WBO
 ---------------------------------------------------------------------------
     1   8 O    1.972 --     2 C    1.635     3 N    0.159    44 O    0.132
     2   6 C    3.939 --     1 O    1.635     3 N    1.215    44 O    1.041
     3   7 N    3.391 --     2 C    1.215     4 C    0.989    51 H    0.918
                             1 O    0.159
     4   6 C    3.946 --     3 N    0.989     5 C    0.967    52 H    0.958
                            12 C    0.943
     5   6 C    3.983 --     6 C    1.013    53 H    0.970     4 C    0.967
                            54 H    0.964
     6   6 C    3.974 --    11 C    1.405     7 C    1.404     5 C    1.013
                             9 C    0.105
     7   6 C    3.985 --     8 C    1.451     6 C    1.404    55 H    0.969
                            10 C    0.110
     8   6 C    3.989 --     7 C    1.451     9 C    1.432    56 H    0.971
                            11 C    0.109
     9   6 C    3.977 --    10 C    1.435     8 C    1.432    57 H    0.971
                             6 C    0.105
    10   6 C    3.990 --    11 C    1.446     9 C    1.435    58 H    0.971
                             7 C    0.110
    11   6 C    3.983 --    10 C    1.446     6 C    1.405    59 H    0.968
                             8 C    0.109
    12   6 C    3.951 --    43 O    1.012    13 C    0.989    60 H    0.952
                             4 C    0.943
    13   6 C    3.990 --    12 C    0.989    14 C    0.984    61 H    0.970
                            62 H    0.968
    14   6 C    3.956 --    13 C    0.984    36 C    0.983    15 N    0.966
                            63 H    0.949
    15   7 N    3.463 --    16 C    1.306    14 C    0.966    64 H    0.932
                            35 O    0.191
    16   6 C    3.936 --    35 O    1.623    15 N    1.306    17 C    0.926
    17   6 C    3.962 --    18 N    0.998    32 C    0.962    65 H    0.953
                            16 C    0.926
    18   7 N    3.296 --    19 C    1.136    17 C    0.998    66 H    0.892
                            31 O    0.134
    19   6 C    3.959 --    31 O    1.589    20 N    1.168    18 N    1.136
    20   7 N    3.417 --    19 C    1.168    21 C    1.002    22 C    0.977
                            31 O    0.142
    21   6 C    3.958 --    20 N    1.002    67 H    0.973    69 H    0.971
                            68 H    0.970
    22   6 C    3.968 --    23 C    0.986    20 N    0.977    71 H    0.966
                            70 H    0.962
    23   6 C    3.811 --    24 C    1.377    30 N    1.286    22 C    0.986
    24   6 C    3.687 --    23 C    1.377    25 S    1.220    72 H    0.971
    25  16 S    2.408 --    24 C    1.220    26 C    0.983    30 N    0.112
    26   6 C    3.644 --    30 N    1.490    27 C    1.020    25 S    0.983
    27   6 C    3.986 --    26 C    1.020    29 C    0.990    28 C    0.971
                            73 H    0.964
    28   6 C    3.969 --    74 H    0.987    75 H    0.978    76 H    0.977
                            27 C    0.971
    29   6 C    3.983 --    27 C    0.990    79 H    0.987    78 H    0.981
                            77 H    0.981
    30   7 N    3.062 --    26 C    1.490    23 C    1.286    25 S    0.112
    31   8 O    1.934 --    19 C    1.589    20 N    0.142    18 N    0.134
    32   6 C    3.988 --    34 C    1.010    33 C    1.005    80 H    0.968
                            17 C    0.962
    33   6 C    3.991 --    32 C    1.005    81 H    0.986    82 H    0.985
                            83 H    0.984
    34   6 C    3.993 --    32 C    1.010    84 H    0.983    85 H    0.979
                            86 H    0.978
    35   8 O    1.994 --    16 C    1.623    15 N    0.191
    36   6 C    3.993 --    37 C    1.007    14 C    0.983    87 H    0.973
                            88 H    0.967
    37   6 C    3.986 --    38 C    1.417    42 C    1.408    36 C    1.007
                            40 C    0.110
    38   6 C    3.991 --    39 C    1.439    37 C    1.417    89 H    0.968
                            41 C    0.110
    39   6 C    3.992 --    40 C    1.443    38 C    1.439    90 H    0.971
                            42 C    0.112
    40   6 C    3.991 --    39 C    1.443    41 C    1.434    91 H    0.970
                            37 C    0.110
    41   6 C    3.992 --    42 C    1.450    40 C    1.434    92 H    0.971
                            38 C    0.110
    42   6 C    3.990 --    41 C    1.450    37 C    1.408    93 H    0.969
                            39 C    0.112
    43   8 O    1.949 --    12 C    1.012    94 H    0.831
    44   8 O    2.223 --     2 C    1.041    45 C    0.944     1 O    0.132
    45   6 C    3.928 --    46 C    1.024    96 H    0.960    95 H    0.946
                            44 O    0.944
    46   6 C    3.738 --    47 C    1.456    50 S    1.142    45 C    1.024
    47   6 C    3.849 --    46 C    1.456    48 N    1.299    97 H    0.960
    48   7 N    3.016 --    49 C    1.535    47 C    1.299    50 S    0.112
    49   6 C    3.676 --    48 N    1.535    50 S    1.076    98 H    0.964
    50  16 S    2.439 --    46 C    1.142    49 C    1.076    48 N    0.112
    51   1 H    0.956 --     3 N    0.918
    52   1 H    0.995 --     4 C    0.958
    53   1 H    0.996 --     5 C    0.970
    54   1 H    0.993 --     5 C    0.964
    55   1 H    0.999 --     7 C    0.969
    56   1 H    0.999 --     8 C    0.971
    57   1 H    0.998 --     9 C    0.971
    58   1 H    0.999 --    10 C    0.971
    59   1 H    0.998 --    11 C    0.968
    60   1 H    0.995 --    12 C    0.952
    61   1 H    0.997 --    13 C    0.970
    62   1 H    0.996 --    13 C    0.968
    63   1 H    0.995 --    14 C    0.949
    64   1 H    0.966 --    15 N    0.932
    65   1 H    0.994 --    17 C    0.953
    66   1 H    0.952 --    18 N    0.892
    67   1 H    0.991 --    21 C    0.973
    68   1 H    0.990 --    21 C    0.970
    69   1 H    0.991 --    21 C    0.971
    70   1 H    0.994 --    22 C    0.962
    71   1 H    0.995 --    22 C    0.966
    72   1 H    0.999 --    24 C    0.971
    73   1 H    0.996 --    27 C    0.964
    74   1 H    0.999 --    28 C    0.987
    75   1 H    0.994 --    28 C    0.978
    76   1 H    0.996 --    28 C    0.977
    77   1 H    0.996 --    29 C    0.981
    78   1 H    0.997 --    29 C    0.981
    79   1 H    0.998 --    29 C    0.987
    80   1 H    0.999 --    32 C    0.968
    81   1 H    0.999 --    33 C    0.986
    82   1 H    0.998 --    33 C    0.985
    83   1 H    0.996 --    33 C    0.984
    84   1 H    0.998 --    34 C    0.983
    85   1 H    0.997 --    34 C    0.979
    86   1 H    0.997 --    34 C    0.978
    87   1 H    0.998 --    36 C    0.973
    88   1 H    0.997 --    36 C    0.967
    89   1 H    0.999 --    38 C    0.968
    90   1 H    0.999 --    39 C    0.971
    91   1 H    0.998 --    40 C    0.970
    92   1 H    0.998 --    41 C    0.971
    93   1 H    0.999 --    42 C    0.969
    94   1 H    0.891 --    43 O    0.831
    95   1 H    0.984 --    45 C    0.946
    96   1 H    0.995 --    45 C    0.960
    97   1 H    0.998 --    47 C    0.960
    98   1 H    0.995 --    49 C    0.964
 ---------------------------------------------------------------------------

Topologies differ in total number of bonds
Writing topology from bond orders to xtbtopo.mol

molecular dipole:
                 x           y           z       tot (Debye)
 q only:        0.992      -1.537      -0.498
   full:        1.560      -1.662      -0.419       5.891
molecular quadrupole (traceless):
                xx          xy          yy          xz          yz          zz
 q only:       13.969      12.760      -6.544      16.106      -7.078      -7.425
  q+dip:       17.345      17.068     -13.464       7.941     -12.289      -3.881
   full:       17.385      14.484     -11.546       9.301     -12.164      -5.838


           -------------------------------------------------
          | TOTAL ENERGY             -148.065763108440 Eh   |
          | GRADIENT NORM               0.095806476736 Eh/α |
          | HOMO-LUMO GAP               0.017778504841 eV   |
           -------------------------------------------------

------------------------------------------------------------------------
 * finished run on 2025/05/15 at 16:37:29.004     
------------------------------------------------------------------------
 total:
 * wall-time:     0 d,  0 h,  0 min,  0.643 sec
 *  cpu-time:     0 d,  0 h,  0 min,  0.540 sec
 * ratio c/w:     0.840 speedup
 SCF:
 * wall-time:     0 d,  0 h,  0 min,  0.590 sec
 *  cpu-time:     0 d,  0 h,  0 min,  0.505 sec
 * ratio c/w:     0.856 speedup


