39
 energy: -51.133625614349 gnorm: 0.000214734633 xtb: 6.7.1 (edcfbbe)
C            1.45218660781184       -1.09837001484602        2.43322125373682
C            2.41546253927606       -0.79830486863850        1.32244103194521
C            3.73740738198156       -1.20486584562104        1.40003150384019
C            4.62460820282108       -0.91300591276496        0.37928519760793
C            4.18605737607793       -0.23014217643611       -0.73846030847953
C            2.86434564880264        0.18056785735898       -0.85920530508005
C            2.39919642172005        0.87204041019210       -2.10047176075301
C            1.98721959100407       -0.09035727065415        0.19342851486749
N            0.63485905438216        0.30497757194197        0.14210787829071
C            0.13619684177575        1.54443273841137       -0.04724462446833
C           -1.38593053512818        1.58793829950460        0.13514027570070
N           -1.98218202183268        0.26681550663977        0.06210580634980
C           -3.15429784628620        0.10441507588698        0.90703876643347
C           -4.36496187740385        0.97772800029030        0.56414152755824
C           -2.14835036739929       -0.16941085188023       -1.31915465408101
C           -2.29241903432058       -1.68270639122472       -1.43668504260692
O            0.78005830821414        2.54183089158473       -0.29376829672530
H            0.68253785693714       -1.79788468556337        2.10273856226227
H            0.95840231234677       -0.18735474963774        2.76935964711348
H            1.97343634478334       -1.54247281963008        3.27716636298375
H            4.07606328476294       -1.74600533669378        2.27171002749160
H            5.65567719420996       -1.22496845234800        0.45385096044198
H            4.87622137381429       -0.01621802902338       -1.54153460929976
H            2.17343249270286        1.91579067951013       -1.88419168207842
H            3.16213628320805        0.82720953421158       -2.87338797010808
H            1.48614005349867        0.40964490021828       -2.47553362499166
H           -0.06167777129235       -0.36686622172564        0.45147218197896
H           -1.79475991842690        2.29774814579773       -0.59863122767123
H           -1.56087592955462        2.00969734449611        1.12918424962649
H           -2.83808939816994        0.32066086477329        1.93259511031863
H           -3.44556628688147       -0.94745455410074        0.87032362503201
H           -4.74904198375322        0.74340981577068       -0.42549838419379
H           -4.10203376803735        2.03237854383732        0.59501012612026
H           -5.15672842828278        0.79890223400734        1.28682709024812
H           -1.24705620204866        0.13685517090465       -1.85654481899788
H           -3.00419406207850        0.32254425567804       -1.80677002653102
H           -3.24240500234932       -2.02690468783660       -1.03660698928404
H           -1.48753843004259       -2.18117387866589       -0.90191490111742
H           -2.24333630684159       -1.97112109373189       -2.48357547347609
