33
 energy: -50.364048403647 gnorm: 0.000744394918 xtb: 6.7.1 (edcfbbe)
C            3.16105511061505       -1.72089132968156       -0.29499881878713
N            2.60950754811918       -0.40445650174516       -0.09956824018029
C            1.55102948093388       -0.07471253535668        0.67721978756473
N            1.29384564558296        1.25412575784294        0.78769335708299
C            0.03007357832878        1.70962546584941        1.32684094842764
C           -0.43563626058991        2.97423085392394        0.61796429678360
S           -0.24357657830064        2.89421232025693       -1.19684921625423
C           -1.53004794813803        1.67851831378413       -1.67878522062329
C           -1.15460900614073        0.26014614945908       -1.46762923569122
C           -1.73866883312147       -0.68372009953241       -0.65466230286556
C           -2.86264315081263       -0.63582348118716        0.31545618434032
N           -1.05638210676436       -1.84496043640266       -0.90115676768180
C           -0.09372027168712       -1.55785968409453       -1.80557446281337
N           -0.12904781076159       -0.30927689489772       -2.17153056971159
N            0.80695180306420       -0.87218978945011        1.37119815068171
C            0.71884716683878       -2.15628010492324        1.39444822147962
N            0.44401170572556       -3.27694396867652        1.47831153088277
H            3.09107548561464       -2.01119467474076       -1.34567602119915
H            2.61413783357828       -2.44398152389680        0.30617878772288
H            4.21144388774228       -1.73662696952716        0.00714450023318
H            3.01866076139663        0.33209237694642       -0.65326653278148
H            1.68840170734159        1.85979312238711        0.08011640944901
H            0.14251152251437        1.91528892136138        2.39847623879326
H           -0.70609952122085        0.90872269810616        1.21543423194011
H            0.17395998241961        3.82919167337465        0.91117154664340
H           -1.47854361832983        3.18672557175503        0.85089817800160
H           -2.44022604224514        1.94021322465361       -1.14048025382464
H           -1.66236743482352        1.87293058780854       -2.74355319624322
H           -3.68812134872931       -1.26105249918696       -0.02495622221351
H           -2.53526648914456       -1.00872833404537        1.28597898109919
H           -3.22761428752607        0.38072209378559        0.43262526248001
H           -1.16952612098368       -2.71098763606865       -0.39652280372398
H            0.59688360947975       -2.28695266788713       -2.17784674900654
