57
 energy: -87.643920677568 gnorm: 0.000360966366 xtb: 6.7.1 (edcfbbe)
O            3.17529206133477        1.86253253458748        0.18949106377166
C            3.51549349929322        0.69381585290990        0.11823153904210
C            2.65819422430532       -0.45475478957217        0.30121302671272
C            1.21232565675551       -0.15561099787146        0.56082335854557
C            0.48581717842217        0.07976033682244       -0.77081725550997
N           -0.95442072625946        0.16803266116794       -0.60332754364308
C           -1.35521418044671        1.42303515464660        0.01062751945871
C           -2.85017910044971        1.41911623797953        0.30924493594669
C           -3.63543390583996        1.21943461558139       -0.98953186709227
C           -3.15425625346803       -0.07621037768369       -1.64777699962326
C           -1.64680223246257       -0.01052314326413       -1.86789620464992
C           -5.10299666986543        1.19861970166524       -0.74731234000602
N           -5.88211794145712        2.07327733995683       -1.30636171024604
O           -7.17665813023863        1.84295067302317       -0.92682667779810
C           -7.19083784333108        0.78421434384234       -0.10169029831065
C           -5.87666129607487        0.30271050166484        0.06827918694332
C           -5.64227097846724       -0.80056147845507        0.88827985027440
C           -6.71871616368378       -1.38700252658148        1.51164879920381
C           -8.00657984822768       -0.88039899818725        1.31905640954982
F           -9.02386360020661       -1.49296036190968        1.95372748511750
C           -8.28848041899060        0.20488216066140        0.51946258425234
C            3.17775055701600       -1.71342807003139        0.19883894126570
N            4.49473837299778       -1.93410668726861       -0.06214501291175
C            5.26980559021956       -0.91600132183625       -0.23243577059014
N            4.84871502228451        0.36601483023972       -0.16320674733769
C            5.83214235146297        1.41592023733484       -0.31293880715318
C            6.99853604575303        1.13917192860791        0.63258021348890
C            7.60315794258302       -0.25245777898637        0.37804193549460
C            6.71743228610804       -1.10239456701568       -0.54606477186296
C            2.36045779684072       -2.95512419288411        0.37065655808005
H            0.72651334896127       -0.97225717059172        1.09265191261033
H            1.16422639666275        0.74972867314506        1.16699270636939
H            0.69116568469479       -0.76965090859877       -1.42940457039186
H            0.89958790986781        0.98425885970902       -1.24745907324870
H           -1.11109242303630        2.28065941688238       -0.64262009036032
H           -0.80522711690893        1.54400958159107        0.94431234248606
H           -3.13218518395871        2.36257302443465        0.77931526981950
H           -3.07100957110001        0.60750804042489        1.00286315000473
H           -3.43228868345769        2.05894825886392       -1.66280402169707
H           -3.65796446005649       -0.22380628632781       -2.60463791308968
H           -3.38144419195491       -0.92499215154531       -1.00223669439273
H           -1.30698310169751       -0.94824904682204       -2.31619131501488
H           -1.41574164225855        0.80845513204942       -2.57424500287010
H           -4.64682401091358       -1.18771529025125        1.03355297198300
H           -6.59324332117418       -2.24212303646991        2.15649545991054
H           -9.29070570179793        0.57464922916580        0.38843023781913
H            5.33210691457720        2.35717252793831       -0.07172435441463
H            6.17544771900237        1.45335461359054       -1.35195965000805
H            7.75039250320375        1.91775817903417        0.50756864568546
H            6.62422948889142        1.20015106899200        1.65579829029210
H            8.59045774265209       -0.16274278851929       -0.07586391924472
H            7.72539468604035       -0.77552521573074        1.32661415088672
H            6.96287841368034       -2.15951718705289       -0.46050522314611
H            6.87922884280445       -0.79848259084954       -1.58426731115593
H            2.98860193767965       -3.81933811544263        0.17749545300720
H            1.97415666583113       -3.01708176179686        1.38657466000884
H            1.51575185785756       -2.95919887499237       -0.31401751224500
