98
 energy: -148.202997888375 gnorm: 0.000721350702 xtb: 6.7.1 (edcfbbe)
O           -4.25328183432162        1.86084988790705        2.53255166686450
C           -3.19752854191640        1.88309229589005        1.95333310734104
N           -2.76761342236162        1.02275738353672        1.02102638171578
C           -3.59607605854125        0.00069475265117        0.42147675907879
C           -4.56133576649187        0.61071902557786       -0.61369041760141
C           -5.54847050847082       -0.41202523500905       -1.09366484074984
C           -6.60009419221193       -0.80064521510206       -0.27171050883417
C           -7.49802164823491       -1.76716982593405       -0.68650399182598
C           -7.35565402622625       -2.35958356980882       -1.93042767292339
C           -6.31317021932666       -1.97757711336674       -2.75672904368709
C           -5.41485403148553       -1.01029290181939       -2.33973052576866
C           -2.64306688425996       -1.01634997448919       -0.23499311859803
C           -1.94179872828553       -1.85409801116382        0.84710972903495
C           -0.90802932193245       -2.85290896077412        0.29688352373432
N            0.38907899487521       -2.22623961405721        0.16635993554364
C            0.86947651015987       -1.74210915558737       -0.97826368312760
C            2.19658312449799       -0.98296427571235       -0.84545004047828
N            1.93916575493022        0.24893205031338       -0.11132272689599
C            1.58874156105700        0.31844402899725        1.19688332950126
N            1.15396876195179        1.54158133110244        1.62247685980418
C            0.96473691657677        1.77667006007655        3.03381351128517
C            0.77433191272127        2.61108548834301        0.72234288936488
C            1.95157708236847        3.43917086338200        0.30051898808685
C            2.39093705897215        4.58678232775877        0.88255722583927
S            3.80350107052225        5.16383465943754        0.08863452977835
C            3.70731083436462        3.78702492136011       -0.98985676932875
C            4.67864897856246        3.61685775588749       -2.10653584184761
C            4.11548845277251        4.29598349061021       -3.36074301483951
C            4.94690188265305        2.13563554326553       -2.36298138333739
N            2.71269585092642        3.01087545202316       -0.74487678664809
O            1.63009486753822       -0.63883193437872        1.96890695524019
C            3.31988572375594       -1.85408139569797       -0.25412397846342
C            4.61768823063812       -1.05487950941295       -0.17524566126362
C            3.50411051830389       -3.09563719072107       -1.12122053022922
O            0.28211818628436       -1.82985221288177       -2.05071119419996
C           -0.76689532415205       -4.06072003418855        1.23793406405711
C            0.35310922987286       -4.95672873077013        0.78876362942945
C            1.57886992735970       -4.94002998862793        1.44088903609533
C            2.61778086650386       -5.74556515142655        1.00853007715639
C            2.44617812546735       -6.57066783778651       -0.08951367413723
C            1.22949938198729       -6.58840966591923       -0.75085182848145
C            0.19015282831003       -5.78784248483357       -0.31277074648662
O           -1.75652246173763       -0.26397999886813       -1.02990102808367
O           -2.22262322730738        2.81477004309887        2.19538520021140
C           -2.52852999664350        3.79975836007727        3.17936894001163
C           -1.55915792303029        4.91308540983463        3.00662547611320
C           -0.44162428850832        5.18812431202268        3.73828836774907
N            0.29825022496881        6.23160542723624        3.30134842821971
C           -0.21317116133279        6.76693795375402        2.25368104356942
S           -1.67564922763507        6.02940370176625        1.68634604370858
H           -1.91400479561872        1.22141624655004        0.51909924340278
H           -4.17916170814471       -0.47655109629153        1.21516977237550
H           -5.08795935995578        1.43535404276768       -0.12909251126806
H           -3.97259208711882        1.00061883222045       -1.44500651667635
H           -6.71440375828132       -0.33464563358606        0.69648139337703
H           -8.31253988987023       -2.05876205413568       -0.03947416471406
H           -8.05698718619415       -3.11408954706845       -2.25528155015311
H           -6.19873995132383       -2.43391941777462       -3.72928454717112
H           -4.60303662452468       -0.71371013703786       -2.98855124125211
H           -3.23875623984355       -1.69215396653643       -0.86759938755858
H           -1.43941178482238       -1.18644193640268        1.55052438040552
H           -2.71531207340178       -2.40031852233020        1.38855719099463
H           -1.20309329086359       -3.19549813440034       -0.70185171426576
H            0.86793446573106       -1.97289933191785        1.03058028270548
H            2.48513159113566       -0.68386866267831       -1.85813259162771
H            2.11712599456848        1.11586026548037       -0.60259720678708
H            1.56938062787974        2.62692601872683        3.35939614173024
H            1.27655522604198        0.88193298056607        3.56844853039308
H           -0.08662455441407        1.97919985862314        3.24762659626650
H            0.30125534826475        2.18656199034050       -0.16981394798028
H            0.04479865563894        3.23604106979906        1.24094689505304
H            1.97893204782468        5.12210771300439        1.71379504884821
H            5.61257059640059        4.11650289708657       -1.82781947034171
H            3.93895177796149        5.35376475424662       -3.17799213779013
H            3.17606340987136        3.82910271549862       -3.64689990028628
H            4.82005920605261        4.19832590267710       -4.18252018195814
H            5.35592193510494        1.66479852661897       -1.47290702245539
H            5.65841239983679        2.02236842717242       -3.17694864641191
H            4.02202344650440        1.63210674252516       -2.63008843039510
H            3.03783500058232       -2.15875413522210        0.75588172839214
H            4.47761360366343       -0.15909927586172        0.42538703702127
H            4.94586302432862       -0.76372156979768       -1.17121818227824
H            5.39953489814479       -1.65549886106930        0.28313765623158
H            2.58384074096243       -3.67166050640449       -1.17725140800468
H            3.79355795791438       -2.81300394717058       -2.13156343555208
H            4.27982681152984       -3.73364537006402       -0.70561700388821
H           -0.56735093365166       -3.69463200575773        2.24667002417831
H           -1.70958319742718       -4.61096224055782        1.24626580383355
H            1.72022067099975       -4.29386836637282        2.29529168387354
H            3.56448873408208       -5.72640521160393        1.52841106656587
H            3.25699176420564       -7.19760580839174       -0.43013698747557
H            1.08981006192926       -7.22929043261684       -1.60897305152480
H           -0.75919813106529       -5.80912037056912       -0.82880921454603
H           -1.19655602040768       -0.86452811556163       -1.55481221656999
H           -3.56430317182732        4.13232457015530        3.04381265036316
H           -2.43270082934263        3.36396497858200        4.18147861374982
H           -0.12468343473769        4.65327368972468        4.61494731616841
H            0.21478496116872        7.60641589726753        1.74271692226647
