39
 energy: -51.133959314433 gnorm: 0.000204646796 xtb: 6.7.1 (edcfbbe)
C           -1.19482204552259        1.24401596362344        1.98305619561069
C           -2.27227728376346        0.63343873868418        1.13509556725737
C           -3.60831783592570        0.84582845004843        1.43364603081236
C           -4.60334957724076        0.28951659172953        0.64983461163650
C           -4.26404625058765       -0.50735270195531       -0.42595284358832
C           -2.93571797373829       -0.75643815935854       -0.74808885410971
C           -2.59688526900664       -1.67192748471355       -1.88039807700460
C           -1.94015695060018       -0.15555446373256        0.02705227703249
N           -0.57448815509984       -0.36504272501286       -0.25207896433154
C            0.08080517655357       -0.14948515969176       -1.41572572285465
C            1.58175340456915       -0.41500317715117       -1.25970937310514
N            2.05470035489003        0.06279603182412        0.02820350755058
C            3.15742138096664       -0.70567032991767        0.58514993718883
C            2.64709127115488       -1.98014916064277        1.25362796432845
C            2.24950217698556        1.50387629539561        0.05253561015326
C            3.47245106201975        2.03397103202350       -0.70192136388052
O           -0.42039327374832        0.18612183492454       -2.46660416441293
H           -1.63069407597907        1.89843357172058        2.73343063357669
H           -0.50513792648353        1.82565176249213        1.37328994073480
H           -0.62105724229448        0.47229259028659        2.49895829379214
H           -3.87055234753044        1.45916286316254        2.28363332370145
H           -5.64157473263813        0.47009565498261        0.88520431534029
H           -5.04119058210629       -0.95785312390205       -1.02600613518476
H           -3.48348944314046       -2.19749791668933       -2.22580826734838
H           -2.17587342406728       -1.10398238317680       -2.70953535471102
H           -1.84830990424212       -2.40088718001538       -1.57066359605057
H            0.04822261081401       -0.43337261386435        0.54677758083452
H            2.10192526767617        0.03345097852884       -2.11654287243058
H            1.72272424871216       -1.49711260695880       -1.31700019906493
H            3.64583576351350       -0.08921614961463        1.34331878593023
H            3.90916062388582       -0.96382587702411       -0.17617183526010
H            1.93663614150342       -1.73243125978852        2.03864472076056
H            2.15434176518256       -2.63318351098661        0.53769832350693
H            3.47793742809497       -2.52361832885434        1.69617374326593
H            2.31962339464281        1.80500898883103        1.10324089080363
H            1.34811615989686        1.95571621192903       -0.37147815449439
H            4.39219578624235        1.62899130959003       -0.28635719370577
H            3.42285553640866        1.77395737941937       -1.75627450721445
H            3.50503474000002        3.11717806384746       -0.62145477505605
