38
 energy: -65.472513483716 gnorm: 0.000619811750 xtb: 6.7.1 (edcfbbe)
O           -0.71194501993847       -1.41412060051499        2.87719749814329
C           -1.85421613428018       -1.33690358832929        2.07955772903310
C           -1.76160512919979       -0.20382716889161        1.04714470307542
O           -0.63270161860699       -0.47893257146412        0.23983300441019
C           -0.38196882530444        0.50244342007938       -0.72433976409478
C           -1.55142879851369        0.59327201674901       -1.71474370498267
C           -2.82477412699457        0.91949999852275       -0.93300654206844
C           -3.02955695785707       -0.10932138518278        0.18847451070216
O           -4.10640477149820        0.25386862440895        1.00712269653856
O           -3.96302840503645        0.89564083690940       -1.75913659226169
O           -1.34282095988105        1.60378481341865       -2.67020504657910
O            0.75876557196663        0.15356180500561       -1.44462939236661
C            1.95876209919062        0.37804055315201       -0.77153320298705
C            2.53643258161402        1.63889388175048       -0.85344315655445
C            3.74900023501752        1.89235829981628       -0.23962360725336
C            4.38876867494503        0.88360159181535        0.46006627325507
C            3.81021021638194       -0.36931719664458        0.54182071421247
C            2.58919407612348       -0.64415841481248       -0.06501360886242
C            1.97461095621836       -2.01366497208782        0.07677855711469
O            1.63054004953939       -2.31643337159078        1.41410549803565
H            0.03733236355097       -1.65366933157639        2.30401219909039
H           -2.70212768774617       -1.13479846341803        2.73682917330318
H           -2.02717865193217       -2.27957412006357        1.54267645132843
H           -1.61655918728187        0.75387605272124        1.57101273666537
H           -0.24654342101386        1.48945245439250       -0.23159024942481
H           -1.66018001592466       -0.38703074063633       -2.20382379023262
H           -2.70911344286586        1.92109974438756       -0.48562319335759
H           -3.21686987929762       -1.08854038433707       -0.28215681701420
H           -4.84697750948742        0.46350986277350        0.42293262432241
H           -3.75756415226787        1.41410438252193       -2.54657040862686
H           -0.47906484480573        1.45142119749223       -3.07293236466844
H            2.02590019083635        2.41407341905796       -1.40632387962479
H            4.19320078042083        2.87364978236118       -0.31032372108951
H            5.33777655595897        1.07185872597497        0.93870215619943
H            4.31993414485855       -1.15666637442780        1.08130300796921
H            2.67742775398293       -2.76946806807099       -0.30840482445778
H            1.04450863568956       -2.06900953918058       -0.48863773875678
H            2.38996465344017       -2.14267517208697        1.98269207186846
