----- Optimization -----
      -----------------------------------------------------------      
     |                   =====================                   |     
     |                           x T B                           |     
     |                   =====================                   |     
     |                         S. Grimme                         |     
     |          Mulliken Center for Theoretical Chemistry        |     
     |                    University of Bonn                     |     
      -----------------------------------------------------------      

   * xtb version 6.7.1 (edcfbbe) compiled by 'conda@3ef47c1a292c' on 2024-11-25

   xtb is free software: you can redistribute it and/or modify it under
   the terms of the GNU Lesser General Public License as published by
   the Free Software Foundation, either version 3 of the License, or
   (at your option) any later version.
   
   xtb is distributed in the hope that it will be useful,
   but WITHOUT ANY WARRANTY; without even the implied warranty of
   MERCHANTABILITY or FITNESS FOR A PARTICULAR PURPOSE.  See the
   GNU Lesser General Public License for more details.
   
   Cite this work as:
   * C. Bannwarth, E. Caldeweyher, S. Ehlert, A. Hansen, P. Pracht,
     J. Seibert, S. Spicher, S. Grimme, WIREs Comput. Mol. Sci., 2020, 11,
     e01493. DOI: 10.1002/wcms.1493
   
   for GFN2-xTB:
   * C. Bannwarth, S. Ehlert and S. Grimme., J. Chem. Theory Comput., 2019,
     15, 1652-1671. DOI: 10.1021/acs.jctc.8b01176
   for GFN1-xTB:
   * S. Grimme, C. Bannwarth, P. Shushkov, J. Chem. Theory Comput., 2017,
     13, 1989-2009. DOI: 10.1021/acs.jctc.7b00118
   for GFN0-xTB:
   * P. Pracht, E. Caldeweyher, S. Ehlert, S. Grimme, ChemRxiv, 2019, preprint.
     DOI: 10.26434/chemrxiv.8326202.v1
   for GFN-FF:
   * S. Spicher and S. Grimme, Angew. Chem. Int. Ed., 2020, 59, 15665-15673.
     DOI: 10.1002/anie.202004239
   
   for ALPB and GBSA implicit solvation:
   * S. Ehlert, M. Stahn, S. Spicher, S. Grimme, J. Chem. Theory Comput.,
     2021, 17, 4250-4261. DOI: 10.1021/acs.jctc.1c00471
   
   for ddCOSMO and CPCM-X implicit solvation:
   * M. Stahn, S. Ehlert, S. Grimme, J. Phys. Chem. A,
     2023, XX, XXXX-XXXX. DOI: 10.1021/acs.jpca.3c04382
   
   for DFT-D4:
   * E. Caldeweyher, C. Bannwarth and S. Grimme, J. Chem. Phys., 2017,
     147, 034112. DOI: 10.1063/1.4993215
   * E. Caldeweyher, S. Ehlert, A. Hansen, H. Neugebauer, S. Spicher,
     C. Bannwarth and S. Grimme, J. Chem. Phys., 2019, 150, 154122.
     DOI: 10.1063/1.5090222
   * E. Caldeweyher, J.-M. Mewes, S. Ehlert and S. Grimme, Phys. Chem. Chem. Phys.
     2020, 22, 8499-8512. DOI: 10.1039/D0CP00502A
   
   for sTDA-xTB:
   * S. Grimme and C. Bannwarth, J. Chem. Phys., 2016, 145, 054103.
     DOI: 10.1063/1.4959605
   
   in the mass-spec context:
   * V. Asgeirsson, C. Bauer and S. Grimme, Chem. Sci., 2017, 8, 4879.
     DOI: 10.1039/c7sc00601b
   * J. Koopman and S. Grimme, ACS Omega 2019, 4, 12, 15120-15133.
     DOI: 10.1021/acsomega.9b02011
   
   for metadynamics refer to:
   * S. Grimme, J. Chem. Theory Comput., 2019, 155, 2847-2862
     DOI: 10.1021/acs.jctc.9b00143
   
   for SPH calculations refer to:
   * S. Spicher and S. Grimme, J. Chem. Theory Comput., 2021, 17, 1701-1714
     DOI: 10.1021/acs.jctc.0c01306
   
   for ONIOM refer to:
   * C. Plett, A. Katbashev, S. Ehlert, S. Grimme, M. Bursch,
     Phys. Chem. Chem. Phys., 2023, 25, 17860-17868. DOI: 10.1039/D3CP02178E
   
   for DIPRO refer to:
   * J. Kohn, N. Gildemeister, S. Grimme, D. Fazzi, A. Hansen,
     J. Chem. Phys., 2023, just accepted.
   
   for PTB refer to:
   * S. Grimme, M. Mueller, A. Hansen, J. Chem. Phys., 2023, 158, 124111.
     DOI: 10.1063/5.0137838
   
   with help from (in alphabetical order)
   P. Atkinson, C. Bannwarth, F. Bohle, G. Brandenburg, E. Caldeweyher
   M. Checinski, S. Dohm, S. Ehlert, S. Ehrlich, I. Gerasimov, C. Hölzer
   A. Katbashev, J. Kohn, J. Koopman, C. Lavigne, S. Lehtola, F. März, M. Müller,
   F. Musil, H. Neugebauer, J. Pisarek, C. Plett, P. Pracht, F. Pultar,
   J. Seibert, P. Shushkov, S. Spicher, M. Stahn, M. Steiner, T. Strunk,
   J. Stückrath, T. Rose, and J. Unsleber
   
 * started run on 2025/05/15 at 16:06:07.135     
   ID    Z sym.   atoms
    1    8 O      1, 4, 9-12, 20
    2    6 C      2, 3, 5-8, 13-19
    3    1 H      21-38

           -------------------------------------------------
          |                Calculation Setup                |
           -------------------------------------------------

          program call               : xtb /rds/general/user/hgt20/home/callum/QDESCP/Salicin_rdkit_conf_8/Salicin_rdkit_conf_8.xyz --opt normal --acc 1 --gfn 2 --chrg 0 --uhf 0 -P 1
          hostname                   : login-c
          coordinate file            : /rds/general/user/hgt20/home/callum/QDESCP/Salicin_rdkit_conf_8/Salicin_rdkit_conf_8.xyz
          omp threads                :                     1


           -------------------------------------------------
          |                 G F N 2 - x T B                 |
           -------------------------------------------------

        Reference                      10.1021/acs.jctc.8b01176
      * Hamiltonian:
        H0-scaling (s, p, d)           1.850000    2.230000    2.230000
        zeta-weighting                 0.500000
      * Dispersion:
        s8                             2.700000
        a1                             0.520000
        a2                             5.000000
        s9                             5.000000
      * Repulsion:
        kExp                           1.500000    1.000000
        rExp                           1.000000
      * Coulomb:
        alpha                          2.000000
        third order                    shell-resolved
        anisotropic                    true
        a3                             3.000000
        a5                             4.000000
        cn-shift                       1.200000
        cn-exp                         4.000000
        max-rad                        5.000000


          ...................................................
          :                      SETUP                      :
          :.................................................:
          :  # basis functions                  98          :
          :  # atomic orbitals                  98          :
          :  # shells                           58          :
          :  # electrons                       112          :
          :  max. iterations                   250          :
          :  Hamiltonian                  GFN2-xTB          :
          :  restarted?                      false          :
          :  GBSA solvation                  false          :
          :  PC potential                    false          :
          :  electronic temp.          300.0000000     K    :
          :  accuracy                    1.0000000          :
          :  -> integral cutoff          0.2500000E+02      :
          :  -> integral neglect         0.1000000E-07      :
          :  -> SCF convergence          0.1000000E-05 Eh   :
          :  -> wf. convergence          0.1000000E-03 e    :
          :  Broyden damping             0.4000000          :
          :  net charge                          0          :
          :  unpaired electrons                  0          :
          ...................................................

 iter      E             dE          RMSdq      gap      omega  full diag
   1    -66.0052688 -0.660053E+02  0.454E+00    4.42       0.0  T
   2    -66.0688029 -0.635341E-01  0.249E+00    4.28       1.0  T
   3    -66.0671448  0.165811E-02  0.855E-01    3.79       1.0  T
   4    -66.0718986 -0.475383E-02  0.279E-01    3.93       1.0  T
   5    -66.0734321 -0.153344E-02  0.944E-02    3.98       1.0  T
   6    -66.0734905 -0.584806E-04  0.419E-02    4.02       1.0  T
   7    -66.0734971 -0.657401E-05  0.154E-02    4.02       1.1  T
   8    -66.0734996 -0.253631E-05  0.515E-03    4.02       3.2  T
   9    -66.0734999 -0.305000E-06  0.200E-03    4.02       8.1  T
  10    -66.0735000 -0.356775E-07  0.866E-04    4.02      18.7  T
  11    -66.0735000 -0.729658E-08  0.385E-04    4.02      42.1  T

   *** convergence criteria satisfied after 11 iterations ***

         #    Occupation            Energy/Eh            Energy/eV
      -------------------------------------------------------------
         1        2.0000           -0.7368440             -20.0505
       ...           ...                  ...                  ...
        50        2.0000           -0.4336731             -11.8008
        51        2.0000           -0.4251828             -11.5698
        52        2.0000           -0.4249234             -11.5628
        53        2.0000           -0.4232569             -11.5174
        54        2.0000           -0.4174383             -11.3591
        55        2.0000           -0.4129043             -11.2357
        56        2.0000           -0.4010350             -10.9127 (HOMO)
        57                         -0.2534709              -6.8973 (LUMO)
        58                         -0.2500808              -6.8050
        59                         -0.1308670              -3.5611
        60                         -0.0584995              -1.5919
        61                         -0.0320980              -0.8734
       ...                                ...                  ...
        98                          0.6057421              16.4831
      -------------------------------------------------------------
                  HL-Gap            0.1475640 Eh            4.0154 eV
             Fermi-level           -0.3272529 Eh           -8.9050 eV

 SCC (total)                   0 d,  0 h,  0 min,  0.070 sec
 SCC setup                      ...        0 min,  0.000 sec (  0.454%)
 Dispersion                     ...        0 min,  0.000 sec (  0.479%)
 classical contributions        ...        0 min,  0.000 sec (  0.182%)
 integral evaluation            ...        0 min,  0.007 sec (  9.284%)
 iterations                     ...        0 min,  0.042 sec ( 60.477%)
 molecular gradient             ...        0 min,  0.020 sec ( 28.913%)
 printout                       ...        0 min,  0.000 sec (  0.201%)

         :::::::::::::::::::::::::::::::::::::::::::::::::::::
         ::                     SUMMARY                     ::
         :::::::::::::::::::::::::::::::::::::::::::::::::::::
         :: total energy             -65.459599263014 Eh    ::
         :: gradient norm              0.077668048943 Eh/a0 ::
         :: HOMO-LUMO gap              4.015421738829 eV    ::
         ::.................................................::
         :: SCC energy               -66.072982774284 Eh    ::
         :: -> isotropic ES            0.157675856406 Eh    ::
         :: -> anisotropic ES         -0.004902008748 Eh    ::
         :: -> anisotropic XC          0.000284516951 Eh    ::
         :: -> dispersion             -0.037327159362 Eh    ::
         :: repulsion energy           0.613383511270 Eh    ::
         :: add. restraining           0.000000000000 Eh    ::
         :: total charge               0.000000000000 e     ::
         :::::::::::::::::::::::::::::::::::::::::::::::::::::

      ----------------------------------------------------------- 
     |                   =====================                   |
     |                        A N C O P T                        |
     |                   =====================                   |
     |               Approximate Normal Coordinate               |
     |                Rational Function Optimizer                |
      ----------------------------------------------------------- 
      ----------------------------------------------------------- 
     |                   =====================                   |
     |                        A N C O P T                        |
     |                   =====================                   |
     |               Approximate Normal Coordinate               |
     |                Rational Function Optimizer                |
      ----------------------------------------------------------- 

          ...................................................
          :                      SETUP                      :
          :.................................................:
          :   optimization level            normal          :
          :   max. optcycles                   200          :
          :   ANC micro-cycles                  20          :
          :   degrees of freedom               108          :
          :.................................................:
          :   RF solver                   davidson          :
          :   write xtbopt.log                true          :
          :   linear?                        false          :
          :   energy convergence         0.5000000E-05 Eh   :
          :   grad. convergence          0.1000000E-02 Eh/α :
          :   maxmium RF displ.          1.0000000          :
          :   Hlow (freq-cutoff)         0.1000000E-01      :
          :   Hmax (freq-cutoff)         5.0000000          :
          :   S6 in model hess.         20.0000000          :
          ...................................................

generating ANC from exact Hessian ...
Using Lindh-Hessian (1995)
 Shifting diagonal of input Hessian by    9.3798599121508435E-003
 Lowest  eigenvalues of input Hessian
    0.000000    0.000000    0.000000    0.000000    0.000000    0.000000
    0.010000    0.010270    0.012180    0.012475    0.013137    0.013924
    0.014585    0.015553    0.016089    0.017149    0.018772    0.020081
 Highest eigenvalues
    1.519977    1.570923    1.695977    1.837025    1.954466    2.012542


........................................................................
.............................. CYCLE    1 ..............................
........................................................................

 iter      E             dE          RMSdq      gap      omega  full diag
   1    -66.0735000 -0.660735E+02  0.106E-04    4.02       0.0  T
   2    -66.0735000 -0.715659E-10  0.585E-05    4.02     277.5  T
   3    -66.0735000 -0.201794E-11  0.352E-05    4.02     461.3  T
     SCC iter.                  ...        0 min,  0.005 sec
     gradient                   ...        0 min,  0.046 sec
 * total energy  :   -65.4595993 Eh     change       -0.3689308E-08 Eh
   gradient norm :     0.0776676 Eh/α   predicted     0.0000000E+00 (-100.00%)
   displ. norm   :     0.2691356 α      lambda       -0.1087437E-01
   maximum displ.:     0.0879374 α      in ANC's #28, #11, #51, ...

........................................................................
.............................. CYCLE    2 ..............................
........................................................................

 iter      E             dE          RMSdq      gap      omega  full diag
   1    -66.1039038 -0.661039E+02  0.178E-01    4.07       0.0  T
   2    -66.1039446 -0.407890E-04  0.107E-01    4.07       1.0  T
   3    -66.1039274  0.172479E-04  0.310E-02    4.08       1.0  T
   4    -66.1039525 -0.250636E-04  0.862E-03    4.07       1.9  T
   5    -66.1039538 -0.136370E-05  0.394E-03    4.07       4.1  T
   6    -66.1039539 -0.104391E-06  0.170E-03    4.07       9.5  T
   7    -66.1039539 -0.102309E-07  0.689E-04    4.07      23.5  T
   8    -66.1039539 -0.489034E-08  0.248E-04    4.07      65.5  T
     SCC iter.                  ...        0 min,  0.013 sec
     gradient                   ...        0 min,  0.020 sec
 * total energy  :   -65.4671482 Eh     change       -0.7548895E-02 Eh
   gradient norm :     0.0394482 Eh/α   predicted    -0.5831851E-02 ( -22.75%)
   displ. norm   :     0.2478952 α      lambda       -0.3767763E-02
   maximum displ.:     0.0836196 α      in ANC's #11, #13, #5, ...

........................................................................
.............................. CYCLE    3 ..............................
........................................................................

 iter      E             dE          RMSdq      gap      omega  full diag
   1    -66.1182808 -0.661183E+02  0.126E-01    4.05       0.0  T
   2    -66.1183086 -0.277861E-04  0.749E-02    4.05       1.0  T
   3    -66.1183047  0.388778E-05  0.226E-02    4.05       1.0  T
   4    -66.1183129 -0.822167E-05  0.644E-03    4.05       2.5  T
   5    -66.1183136 -0.647249E-06  0.314E-03    4.05       5.2  T
   6    -66.1183136 -0.870308E-07  0.123E-03    4.05      13.2  T
   7    -66.1183136 -0.460081E-08  0.554E-04    4.05      29.3  T
   8    -66.1183137 -0.235485E-08  0.162E-04    4.05     100.4  T
     SCC iter.                  ...        0 min,  0.013 sec
     gradient                   ...        0 min,  0.045 sec
 * total energy  :   -65.4693593 Eh     change       -0.2211186E-02 Eh
   gradient norm :     0.0106675 Eh/α   predicted    -0.2000463E-02 (  -9.53%)
   displ. norm   :     0.1743249 α      lambda       -0.5733713E-03
   maximum displ.:     0.0759188 α      in ANC's #5, #11, #9, ...

........................................................................
.............................. CYCLE    4 ..............................
........................................................................

 iter      E             dE          RMSdq      gap      omega  full diag
   1    -66.1176574 -0.661177E+02  0.601E-02    4.02       0.0  T
   2    -66.1176596 -0.215841E-05  0.361E-02    4.03       1.0  T
   3    -66.1176587  0.861216E-06  0.654E-03    4.03       2.5  T
   4    -66.1176601 -0.132602E-05  0.216E-03    4.03       7.5  T
   5    -66.1176601 -0.817756E-07  0.996E-04    4.03      16.3  T
   6    -66.1176602 -0.116360E-07  0.408E-04    4.03      39.7  T
     SCC iter.                  ...        0 min,  0.010 sec
     gradient                   ...        0 min,  0.020 sec
 * total energy  :   -65.4697923 Eh     change       -0.4329353E-03 Eh
   gradient norm :     0.0062355 Eh/α   predicted    -0.2954022E-03 ( -31.77%)
   displ. norm   :     0.2828938 α      lambda       -0.5578487E-03
   maximum displ.:     0.1392989 α      in ANC's #5, #11, #9, ...

........................................................................
.............................. CYCLE    5 ..............................
........................................................................

 iter      E             dE          RMSdq      gap      omega  full diag
   1    -66.1145311 -0.661145E+02  0.902E-02    4.00       0.0  T
   2    -66.1145340 -0.294442E-05  0.544E-02    4.00       1.0  T
   3    -66.1145305  0.349127E-05  0.104E-02    4.00       1.6  T
   4    -66.1145351 -0.460268E-05  0.264E-03    4.00       6.1  T
   5    -66.1145352 -0.684484E-07  0.127E-03    4.00      12.8  T
   6    -66.1145352 -0.963212E-08  0.521E-04    4.00      31.1  T
   7    -66.1145352 -0.173451E-08  0.200E-04    4.00      81.2  T
     SCC iter.                  ...        0 min,  0.045 sec
     gradient                   ...        0 min,  0.020 sec
 * total energy  :   -65.4701610 Eh     change       -0.3687551E-03 Eh
   gradient norm :     0.0116337 Eh/α   predicted    -0.3012538E-03 ( -18.31%)
   displ. norm   :     0.2112666 α      lambda       -0.2961866E-03
   maximum displ.:     0.1166116 α      in ANC's #5, #6, #2, ...

........................................................................
.............................. CYCLE    6 ..............................
........................................................................

 iter      E             dE          RMSdq      gap      omega  full diag
   1    -66.1136042 -0.661136E+02  0.641E-02    3.99       0.0  T
   2    -66.1136051 -0.885893E-06  0.384E-02    3.99       1.0  T
   3    -66.1136037  0.140186E-05  0.672E-03    3.99       2.4  T
   4    -66.1136055 -0.183301E-05  0.153E-03    3.99      10.6  T
   5    -66.1136055 -0.113946E-07  0.806E-04    3.99      20.1  T
   6    -66.1136055 -0.334768E-08  0.240E-04    3.99      67.7  T
     SCC iter.                  ...        0 min,  0.010 sec
     gradient                   ...        0 min,  0.020 sec
 * total energy  :   -65.4703953 Eh     change       -0.2342440E-03 Eh
   gradient norm :     0.0116975 Eh/α   predicted    -0.1547047E-03 ( -33.96%)
   displ. norm   :     0.3136887 α      lambda       -0.4615980E-03
   maximum displ.:     0.1731785 α      in ANC's #5, #1, #6, ...

........................................................................
.............................. CYCLE    7 ..............................
........................................................................

 iter      E             dE          RMSdq      gap      omega  full diag
   1    -66.1142698 -0.661143E+02  0.881E-02    4.00       0.0  T
   2    -66.1142715 -0.165073E-05  0.526E-02    4.00       1.0  T
   3    -66.1142685  0.291328E-05  0.103E-02    3.99       1.6  T
   4    -66.1142723 -0.375848E-05  0.207E-03    3.99       7.8  T
   5    -66.1142723 -0.184154E-07  0.108E-03    3.99      15.0  T
   6    -66.1142723 -0.670350E-08  0.318E-04    3.99      51.0  T
   7    -66.1142723 -0.955751E-09  0.141E-04    3.99     114.7  T
     SCC iter.                  ...        0 min,  0.011 sec
     gradient                   ...        0 min,  0.020 sec
 * total energy  :   -65.4707400 Eh     change       -0.3446919E-03 Eh
   gradient norm :     0.0086117 Eh/α   predicted    -0.2536050E-03 ( -26.43%)
   displ. norm   :     0.3093256 α      lambda       -0.3807062E-03
   maximum displ.:     0.1496452 α      in ANC's #5, #1, #6, ...

........................................................................
.............................. CYCLE    8 ..............................
........................................................................

 iter      E             dE          RMSdq      gap      omega  full diag
   1    -66.1157516 -0.661158E+02  0.784E-02    4.01       0.0  T
   2    -66.1157533 -0.170556E-05  0.470E-02    4.01       1.0  T
   3    -66.1157502  0.313726E-05  0.111E-02    4.00       1.5  T
   4    -66.1157543 -0.405230E-05  0.209E-03    4.00       7.8  T
   5    -66.1157543 -0.175065E-07  0.107E-03    4.00      15.2  T
   6    -66.1157543 -0.771915E-08  0.344E-04    4.00      47.2  T
   7    -66.1157543 -0.795779E-09  0.152E-04    4.00     107.1  T
     SCC iter.                  ...        0 min,  0.011 sec
     gradient                   ...        0 min,  0.054 sec
 * total energy  :   -65.4710176 Eh     change       -0.2776316E-03 Eh
   gradient norm :     0.0094529 Eh/α   predicted    -0.2085700E-03 ( -24.88%)
   displ. norm   :     0.2701912 α      lambda       -0.4144646E-03
   maximum displ.:     0.1565437 α      in ANC's #1, #6, #2, ...

........................................................................
.............................. CYCLE    9 ..............................
........................................................................

 iter      E             dE          RMSdq      gap      omega  full diag
   1    -66.1205911 -0.661206E+02  0.647E-02    4.03       0.0  T
   2    -66.1205931 -0.194349E-05  0.386E-02    4.03       1.0  T
   3    -66.1205925  0.555563E-06  0.637E-03    4.03       2.5  T
   4    -66.1205935 -0.972443E-06  0.204E-03    4.03       7.9  T
   5    -66.1205936 -0.552331E-07  0.935E-04    4.03      17.3  T
   6    -66.1205936 -0.635806E-08  0.355E-04    4.03      45.7  T
     SCC iter.                  ...        0 min,  0.010 sec
     gradient                   ...        0 min,  0.020 sec
 * total energy  :   -65.4711798 Eh     change       -0.1622040E-03 Eh
   gradient norm :     0.0104327 Eh/α   predicted    -0.2223862E-03 (  37.10%)
   displ. norm   :     0.4242380 α      lambda       -0.5137371E-03
   maximum displ.:     0.2350929 α      in ANC's #1, #6, #2, ...

........................................................................
.............................. CYCLE   10 ..............................
........................................................................

 iter      E             dE          RMSdq      gap      omega  full diag
   1    -66.1174258 -0.661174E+02  0.101E-01    4.04       0.0  T
   2    -66.1174316 -0.572358E-05  0.609E-02    4.04       1.0  T
   3    -66.1174254  0.614832E-05  0.164E-02    4.04       1.0  T
   4    -66.1174342 -0.877439E-05  0.398E-03    4.04       4.1  T
   5    -66.1174343 -0.889138E-07  0.182E-03    4.04       8.9  T
   6    -66.1174343 -0.197783E-07  0.790E-04    4.04      20.5  T
   7    -66.1174343 -0.344178E-08  0.260E-04    4.04      62.4  T
     SCC iter.                  ...        0 min,  0.011 sec
     gradient                   ...        0 min,  0.053 sec
 * total energy  :   -65.4712439 Eh     change       -0.6408858E-04 Eh
   gradient norm :     0.0202453 Eh/α   predicted    -0.3031070E-03 ( 372.95%)
   displ. norm   :     0.2010918 α      lambda       -0.4868280E-03
   maximum displ.:     0.1109054 α      in ANC's #5, #6, #1, ...

........................................................................
.............................. CYCLE   11 ..............................
........................................................................

 iter      E             dE          RMSdq      gap      omega  full diag
   1    -66.1194830 -0.661195E+02  0.559E-02    4.02       0.0  T
   2    -66.1194849 -0.191940E-05  0.336E-02    4.03       1.0  T
   3    -66.1194832  0.171885E-05  0.964E-03    4.03       1.7  T
   4    -66.1194859 -0.269881E-05  0.249E-03    4.03       6.5  T
   5    -66.1194859 -0.244672E-07  0.115E-03    4.03      14.1  T
   6    -66.1194859 -0.106469E-07  0.482E-04    4.03      33.6  T
   7    -66.1194859 -0.136149E-08  0.143E-04    4.03     113.6  T
     SCC iter.                  ...        0 min,  0.011 sec
     gradient                   ...        0 min,  0.020 sec
 * total energy  :   -65.4714833 Eh     change       -0.2394121E-03 Eh
   gradient norm :     0.0050008 Eh/α   predicted    -0.2532559E-03 (   5.78%)
   displ. norm   :     0.1294742 α      lambda       -0.1386639E-03
   maximum displ.:     0.0955442 α      in ANC's #1, #2, #6, ...

........................................................................
.............................. CYCLE   12 ..............................
........................................................................

 iter      E             dE          RMSdq      gap      omega  full diag
   1    -66.1191340 -0.661191E+02  0.250E-02    4.02       0.0  T
   2    -66.1191342 -0.184627E-06  0.150E-02    4.03       1.1  T
   3    -66.1191342  0.567691E-07  0.185E-03    4.03       8.8  T
   4    -66.1191343 -0.117980E-06  0.757E-04    4.03      21.4  T
   5    -66.1191343 -0.764558E-08  0.363E-04    4.03      44.7  T
     SCC iter.                  ...        0 min,  0.008 sec
     gradient                   ...        0 min,  0.041 sec
 * total energy  :   -65.4716068 Eh     change       -0.1235099E-03 Eh
   gradient norm :     0.0033915 Eh/α   predicted    -0.7050812E-04 ( -42.91%)
   displ. norm   :     0.4831600 α      lambda       -0.4187130E-03
   maximum displ.:     0.3633513 α      in ANC's #1, #2, #6, ...

........................................................................
.............................. CYCLE   13 ..............................
........................................................................

 iter      E             dE          RMSdq      gap      omega  full diag
   1    -66.1166700 -0.661167E+02  0.906E-02    4.03       0.0  T
   2    -66.1166723 -0.230689E-05  0.542E-02    4.03       1.0  T
   3    -66.1166707  0.162775E-05  0.801E-03    4.03       2.0  T
   4    -66.1166732 -0.249474E-05  0.267E-03    4.03       6.1  T
   5    -66.1166732 -0.750143E-07  0.112E-03    4.03      14.5  T
   6    -66.1166732 -0.721388E-08  0.400E-04    4.03      40.5  T
   7    -66.1166732 -0.565677E-09  0.117E-04    4.03     138.2  T
     SCC iter.                  ...        0 min,  0.011 sec
     gradient                   ...        0 min,  0.020 sec
 * total energy  :   -65.4718732 Eh     change       -0.2663814E-03 Eh
   gradient norm :     0.0094533 Eh/α   predicted    -0.2583280E-03 (  -3.02%)
   displ. norm   :     0.2176294 α      lambda       -0.1580160E-03
   maximum displ.:     0.1735096 α      in ANC's #1, #3, #2, ...

........................................................................
.............................. CYCLE   14 ..............................
........................................................................

 iter      E             dE          RMSdq      gap      omega  full diag
   1    -66.1165905 -0.661166E+02  0.386E-02    4.04       0.0  T
   2    -66.1165909 -0.350513E-06  0.231E-02    4.03       1.0  T
   3    -66.1165906  0.252169E-06  0.335E-03    4.03       4.8  T
   4    -66.1165911 -0.437016E-06  0.116E-03    4.03      14.0  T
   5    -66.1165911 -0.728485E-08  0.542E-04    4.03      29.9  T
   6    -66.1165911 -0.201671E-08  0.147E-04    4.03     110.6  T
     SCC iter.                  ...        0 min,  0.010 sec
     gradient                   ...        0 min,  0.041 sec
 * total energy  :   -65.4719982 Eh     change       -0.1250398E-03 Eh
   gradient norm :     0.0060526 Eh/α   predicted    -0.8274961E-04 ( -33.82%)
   displ. norm   :     0.3212626 α      lambda       -0.2049185E-03
   maximum displ.:     0.2666110 α      in ANC's #1, #3, #2, ...

........................................................................
.............................. CYCLE   15 ..............................
........................................................................

 iter      E             dE          RMSdq      gap      omega  full diag
   1    -66.1182399 -0.661182E+02  0.544E-02    4.05       0.0  T
   2    -66.1182407 -0.824603E-06  0.327E-02    4.04       1.0  T
   3    -66.1182395  0.119788E-05  0.634E-03    4.04       2.6  T
   4    -66.1182411 -0.161161E-05  0.157E-03    4.04      10.3  T
   5    -66.1182412 -0.150691E-07  0.806E-04    4.04      20.1  T
   6    -66.1182412 -0.337251E-08  0.224E-04    4.04      72.6  T
     SCC iter.                  ...        0 min,  0.010 sec
     gradient                   ...        0 min,  0.020 sec
 * total energy  :   -65.4721507 Eh     change       -0.1524551E-03 Eh
   gradient norm :     0.0030290 Eh/α   predicted    -0.1130309E-03 ( -25.86%)
   displ. norm   :     0.4116673 α      lambda       -0.1662489E-03
   maximum displ.:     0.3501785 α      in ANC's #1, #2, #3, ...

........................................................................
.............................. CYCLE   16 ..............................
........................................................................

 iter      E             dE          RMSdq      gap      omega  full diag
   1    -66.1172415 -0.661172E+02  0.701E-02    4.06       0.0  T
   2    -66.1172431 -0.152128E-05  0.421E-02    4.06       1.0  T
   3    -66.1172391  0.394569E-05  0.106E-02    4.06       1.5  T
   4    -66.1172440 -0.483297E-05  0.182E-03    4.06       8.9  T
   5    -66.1172440 -0.123358E-07  0.940E-04    4.06      17.3  T
   6    -66.1172440 -0.486098E-08  0.312E-04    4.06      51.9  T
     SCC iter.                  ...        0 min,  0.010 sec
     gradient                   ...        0 min,  0.053 sec
 * total energy  :   -65.4722436 Eh     change       -0.9285885E-04 Eh
   gradient norm :     0.0069347 Eh/α   predicted    -0.9721368E-04 (   4.69%)
   displ. norm   :     0.2928498 α      lambda       -0.2409095E-03
   maximum displ.:     0.2327359 α      in ANC's #1, #8, #3, ...

........................................................................
.............................. CYCLE   17 ..............................
........................................................................

 iter      E             dE          RMSdq      gap      omega  full diag
   1    -66.1211950 -0.661212E+02  0.633E-02    4.07       0.0  T
   2    -66.1211966 -0.153173E-05  0.378E-02    4.07       1.0  T
   3    -66.1211955  0.107506E-05  0.657E-03    4.06       2.5  T
   4    -66.1211972 -0.166871E-05  0.210E-03    4.06       7.7  T
   5    -66.1211972 -0.404113E-07  0.112E-03    4.06      14.5  T
   6    -66.1211972 -0.933359E-08  0.365E-04    4.06      44.5  T
   7    -66.1211972 -0.640000E-09  0.139E-04    4.06     117.1  T
     SCC iter.                  ...        0 min,  0.011 sec
     gradient                   ...        0 min,  0.021 sec
 * total energy  :   -65.4722822 Eh     change       -0.3865639E-04 Eh
   gradient norm :     0.0100913 Eh/α   predicted    -0.1307854E-03 ( 238.33%)
   displ. norm   :     0.1795883 α      lambda       -0.1660065E-03
   maximum displ.:     0.1573878 α      in ANC's #1, #2, #3, ...

........................................................................
.............................. CYCLE   18 ..............................
........................................................................

 iter      E             dE          RMSdq      gap      omega  full diag
   1    -66.1196990 -0.661197E+02  0.353E-02    4.06       0.0  T
   2    -66.1197000 -0.983421E-06  0.208E-02    4.07       1.0  T
   3    -66.1197000  0.326206E-07  0.347E-03    4.07       4.7  T
   4    -66.1197002 -0.240185E-06  0.167E-03    4.07       9.7  T
   5    -66.1197003 -0.656998E-07  0.640E-04    4.07      25.3  T
   6    -66.1197003 -0.204048E-08  0.302E-04    4.07      53.8  T
     SCC iter.                  ...        0 min,  0.047 sec
     gradient                   ...        0 min,  0.020 sec
 * total energy  :   -65.4723649 Eh     change       -0.8265977E-04 Eh
   gradient norm :     0.0039093 Eh/α   predicted    -0.8568405E-04 (   3.66%)
   displ. norm   :     0.0481102 α      lambda       -0.4814474E-04
   maximum displ.:     0.0304386 α      in ANC's #1, #9, #3, ...

........................................................................
.............................. CYCLE   19 ..............................
........................................................................

 iter      E             dE          RMSdq      gap      omega  full diag
   1    -66.1190149 -0.661190E+02  0.172E-02    4.07       0.0  T
   2    -66.1190151 -0.184440E-06  0.103E-02    4.07       1.6  T
   3    -66.1190150  0.116048E-06  0.241E-03    4.07       6.7  T
   4    -66.1190152 -0.158933E-06  0.636E-04    4.07      25.5  T
   5    -66.1190152 -0.574889E-08  0.255E-04    4.07      63.6  T
     SCC iter.                  ...        0 min,  0.008 sec
     gradient                   ...        0 min,  0.020 sec
 * total energy  :   -65.4723974 Eh     change       -0.3253048E-04 Eh
   gradient norm :     0.0024183 Eh/α   predicted    -0.2413051E-04 ( -25.82%)
   displ. norm   :     0.1319829 α      lambda       -0.4954521E-04
   maximum displ.:     0.1119528 α      in ANC's #1, #4, #8, ...

........................................................................
.............................. CYCLE   20 ..............................
........................................................................

 iter      E             dE          RMSdq      gap      omega  full diag
   1    -66.1189091 -0.661189E+02  0.359E-02    4.07       0.0  T
   2    -66.1189094 -0.263429E-06  0.213E-02    4.07       1.0  T
   3    -66.1189092  0.216898E-06  0.339E-03    4.07       4.8  T
   4    -66.1189095 -0.321229E-06  0.874E-04    4.07      18.6  T
   5    -66.1189095 -0.369481E-08  0.426E-04    4.07      38.0  T
     SCC iter.                  ...        0 min,  0.008 sec
     gradient                   ...        0 min,  0.020 sec
 * total energy  :   -65.4724321 Eh     change       -0.3472821E-04 Eh
   gradient norm :     0.0017057 Eh/α   predicted    -0.2520842E-04 ( -27.41%)
   displ. norm   :     0.3075435 α      lambda       -0.3216014E-04
   maximum displ.:     0.2832783 α      in ANC's #1, #8, #4, ...
 * RMSD in coord.:     0.5940640 α      energy gain  -0.1283287E-01 Eh

generating ANC from exact Hessian ...
Using Lindh-Hessian (1995)
 Shifting diagonal of input Hessian by    9.5151684832437220E-003
 Lowest  eigenvalues of input Hessian
    0.000000    0.000000    0.000000    0.000000    0.000000    0.000000
    0.010000    0.010408    0.011942    0.013089    0.013415    0.014741
    0.015258    0.015707    0.016240    0.017867    0.019812    0.020454
 Highest eigenvalues
    1.607595    1.638024    1.744435    1.890516    2.014257    2.061148


........................................................................
.............................. CYCLE   21 ..............................
........................................................................

 iter      E             dE          RMSdq      gap      omega  full diag
   1    -66.1182340 -0.661182E+02  0.703E-02    4.08       0.0  T
   2    -66.1182346 -0.607987E-06  0.417E-02    4.08       1.0  T
   3    -66.1182339  0.694178E-06  0.486E-03    4.08       3.3  T
   4    -66.1182350 -0.104669E-05  0.151E-03    4.08      10.7  T
   5    -66.1182350 -0.524298E-08  0.493E-04    4.08      32.9  T
   6    -66.1182350 -0.300574E-08  0.176E-04    4.08      92.4  T
     SCC iter.                  ...        0 min,  0.010 sec
     gradient                   ...        0 min,  0.047 sec
 * total energy  :   -65.4724543 Eh     change       -0.2212237E-04 Eh
   gradient norm :     0.0023195 Eh/α   predicted     0.0000000E+00 (-100.00%)
   displ. norm   :     0.0243490 α      lambda       -0.1967089E-04
   maximum displ.:     0.0100804 α      in ANC's #1, #3, #2, ...

........................................................................
.............................. CYCLE   22 ..............................
........................................................................

 iter      E             dE          RMSdq      gap      omega  full diag
   1    -66.1193343 -0.661193E+02  0.772E-03    4.08       0.0  T
   2    -66.1193344 -0.347956E-07  0.464E-03    4.08       3.5  T
   3    -66.1193344  0.131164E-07  0.927E-04    4.08      17.5  T
   4    -66.1193344 -0.218001E-07  0.287E-04    4.08      56.5  T
     SCC iter.                  ...        0 min,  0.007 sec
     gradient                   ...        0 min,  0.020 sec
 * total energy  :   -65.4724697 Eh     change       -0.1545966E-04 Eh
   gradient norm :     0.0010903 Eh/α   predicted    -0.9850638E-05 ( -36.28%)
   displ. norm   :     0.0863452 α      lambda       -0.2261852E-04
   maximum displ.:     0.0382350 α      in ANC's #1, #3, #2, ...

........................................................................
.............................. CYCLE   23 ..............................
........................................................................

 iter      E             dE          RMSdq      gap      omega  full diag
   1    -66.1208193 -0.661208E+02  0.232E-02    4.08       0.0  T
   2    -66.1208195 -0.194217E-06  0.140E-02    4.08       1.2  T
   3    -66.1208194  0.670424E-07  0.224E-03    4.08       7.3  T
   4    -66.1208196 -0.137648E-06  0.746E-04    4.08      21.8  T
   5    -66.1208196 -0.458363E-08  0.359E-04    4.08      45.2  T
     SCC iter.                  ...        0 min,  0.008 sec
     gradient                   ...        0 min,  0.048 sec
 * total energy  :   -65.4724874 Eh     change       -0.1768525E-04 Eh
   gradient norm :     0.0017124 Eh/α   predicted    -0.1199650E-04 ( -32.17%)
   displ. norm   :     0.0382471 α      lambda       -0.7187781E-05
   maximum displ.:     0.0189344 α      in ANC's #1, #2, #3, ...

........................................................................
.............................. CYCLE   24 ..............................
........................................................................

 iter      E             dE          RMSdq      gap      omega  full diag
   1    -66.1201963 -0.661202E+02  0.107E-02    4.08       0.0  T
   2    -66.1201963 -0.267020E-07  0.637E-03    4.08       2.5  T
   3    -66.1201963  0.299119E-07  0.994E-04    4.08      16.3  T
   4    -66.1201963 -0.405540E-07  0.263E-04    4.08      61.6  T
     SCC iter.                  ...        0 min,  0.007 sec
     gradient                   ...        0 min,  0.020 sec
 * total energy  :   -65.4724967 Eh     change       -0.9287746E-05 Eh
   gradient norm :     0.0011001 Eh/α   predicted    -0.3693817E-05 ( -60.23%)
   displ. norm   :     0.0977711 α      lambda       -0.1273578E-04
   maximum displ.:     0.0496604 α      in ANC's #1, #2, #3, ...

........................................................................
.............................. CYCLE   25 ..............................
........................................................................

 iter      E             dE          RMSdq      gap      omega  full diag
   1    -66.1193140 -0.661193E+02  0.270E-02    4.08       0.0  T
   2    -66.1193142 -0.147271E-06  0.160E-02    4.08       1.0  T
   3    -66.1193140  0.188757E-06  0.256E-03    4.08       6.3  T
   4    -66.1193142 -0.250740E-06  0.618E-04    4.08      26.2  T
   5    -66.1193142 -0.285776E-08  0.309E-04    4.08      52.5  T
     SCC iter.                  ...        0 min,  0.008 sec
     gradient                   ...        0 min,  0.053 sec
 * total energy  :   -65.4725091 Eh     change       -0.1237435E-04 Eh
   gradient norm :     0.0005823 Eh/α   predicted    -0.6397292E-05 ( -48.30%)
   displ. norm   :     0.0571223 α      lambda       -0.3710494E-05
   maximum displ.:     0.0326385 α      in ANC's #1, #2, #3, ...

........................................................................
.............................. CYCLE   26 ..............................
........................................................................

 iter      E             dE          RMSdq      gap      omega  full diag
   1    -66.1192610 -0.661193E+02  0.154E-02    4.08       0.0  T
   2    -66.1192610 -0.365387E-07  0.916E-03    4.08       1.8  T
   3    -66.1192610  0.241343E-07  0.106E-03    4.08      15.3  T
   4    -66.1192611 -0.395307E-07  0.340E-04    4.08      47.7  T
   5    -66.1192611 -0.698691E-09  0.167E-04    4.08      96.9  T
     SCC iter.                  ...        0 min,  0.008 sec
     gradient                   ...        0 min,  0.020 sec
 * total energy  :   -65.4725135 Eh     change       -0.4423018E-05 Eh
   gradient norm :     0.0006194 Eh/α   predicted    -0.1859504E-05 ( -57.96%)
   displ. norm   :     0.0546033 α      lambda       -0.3696586E-05
   maximum displ.:     0.0342237 α      in ANC's #1, #2, #3, ...

   *** GEOMETRY OPTIMIZATION CONVERGED AFTER 26 ITERATIONS ***

------------------------------------------------------------------------
 total energy gain   :        -0.0129142 Eh       -8.1038 kcal/mol
 total RMSD          :         0.6019803 a0        0.3186 Å
 total power (kW/mol):        -1.3040877 (step)  -23.8674 (real)
------------------------------------------------------------------------

 ANCopt (total)                0 d,  0 h,  0 min,  1.421 sec
 optimizer setup                ...        0 min,  0.000 sec (  0.006%)
 model hessian                  ...        0 min,  0.035 sec (  2.436%)
 ANC generation                 ...        0 min,  0.002 sec (  0.175%)
 coordinate transformation      ...        0 min,  0.000 sec (  0.010%)
 single point calculation       ...        0 min,  1.374 sec ( 96.724%)
 optimization log               ...        0 min,  0.004 sec (  0.300%)
 hessian update                 ...        0 min,  0.000 sec (  0.020%)
 rational function              ...        0 min,  0.004 sec (  0.273%)

================
 final structure:
================
38
 xtb: 6.7.1 (edcfbbe)
O           -0.71194501993847       -1.41412060051499        2.87719749814329
C           -1.85421613428018       -1.33690358832929        2.07955772903310
C           -1.76160512919979       -0.20382716889161        1.04714470307542
O           -0.63270161860699       -0.47893257146412        0.23983300441019
C           -0.38196882530444        0.50244342007938       -0.72433976409478
C           -1.55142879851369        0.59327201674901       -1.71474370498267
C           -2.82477412699457        0.91949999852275       -0.93300654206844
C           -3.02955695785707       -0.10932138518278        0.18847451070216
O           -4.10640477149820        0.25386862440895        1.00712269653856
O           -3.96302840503645        0.89564083690940       -1.75913659226169
O           -1.34282095988105        1.60378481341865       -2.67020504657910
O            0.75876557196663        0.15356180500561       -1.44462939236661
C            1.95876209919062        0.37804055315201       -0.77153320298705
C            2.53643258161402        1.63889388175048       -0.85344315655445
C            3.74900023501752        1.89235829981628       -0.23962360725336
C            4.38876867494503        0.88360159181535        0.46006627325507
C            3.81021021638194       -0.36931719664458        0.54182071421247
C            2.58919407612348       -0.64415841481248       -0.06501360886242
C            1.97461095621836       -2.01366497208782        0.07677855711469
O            1.63054004953939       -2.31643337159078        1.41410549803565
H            0.03733236355097       -1.65366933157639        2.30401219909039
H           -2.70212768774617       -1.13479846341803        2.73682917330318
H           -2.02717865193217       -2.27957412006357        1.54267645132843
H           -1.61655918728187        0.75387605272124        1.57101273666537
H           -0.24654342101386        1.48945245439250       -0.23159024942481
H           -1.66018001592466       -0.38703074063633       -2.20382379023262
H           -2.70911344286586        1.92109974438756       -0.48562319335759
H           -3.21686987929762       -1.08854038433707       -0.28215681701420
H           -4.84697750948742        0.46350986277350        0.42293262432241
H           -3.75756415226787        1.41410438252193       -2.54657040862686
H           -0.47906484480573        1.45142119749223       -3.07293236466844
H            2.02590019083635        2.41407341905796       -1.40632387962479
H            4.19320078042083        2.87364978236118       -0.31032372108951
H            5.33777655595897        1.07185872597497        0.93870215619943
H            4.31993414485855       -1.15666637442780        1.08130300796921
H            2.67742775398293       -2.76946806807099       -0.30840482445778
H            1.04450863568956       -2.06900953918058       -0.48863773875678
H            2.38996465344017       -2.14267517208697        1.98269207186846

 Bond Distances (Angstroems)
 ---------------------------
O1-C2=1.3953         O1-H21=0.9733        C2-O1=1.3953         C2-C3=1.5357         C2-H22=1.0917        C2-H23=1.0985        
C3-C2=1.5357         C3-O4=1.4149         C3-C8=1.5343         C3-H24=1.1012        O4-C3=1.4149         O4-C5=1.3984         
C5-O4=1.3984         C5-C6=1.5352         C5-O12=1.3935        C5-H25=1.1115        C6-C5=1.5352         C6-C7=1.5294         
C6-O11=1.4063        C6-H26=1.1009        C7-C6=1.5294         C7-C8=1.5356         C7-O10=1.4067        C7-H27=1.1031        
C8-C3=1.5343         C8-C7=1.5356         C8-O9=1.4006         C8-H28=1.1025        O9-C8=1.4006         O9-H29=0.9663        
O10-C7=1.4067        O10-H30=0.9649       O11-C6=1.4063        O11-H31=0.9651       O12-C5=1.3935        O12-C13=1.3941       
C13-O12=1.3941       C13-C14=1.3893       C13-C18=1.3934       C14-C13=1.3893       C14-C15=1.3825       C14-H32=1.0804       
C15-C14=1.3825       C15-C16=1.3844       C15-H33=1.0795       C16-C15=1.3844       C16-C17=1.3825       C16-H34=1.0794       
C17-C16=1.3825       C17-C18=1.3909       C17-H35=1.0820       C18-C13=1.3934       C18-C17=1.3909       C18-C19=1.5078       
C19-C18=1.5078       C19-O20=1.4137       C19-H36=1.1016       C19-H37=1.0899       O20-C19=1.4137       O20-H38=0.9645       
H21-O1=0.9733        H22-C2=1.0917        H23-C2=1.0985        H24-C3=1.1012        H25-C5=1.1115        H26-C6=1.1009        
H27-C7=1.1031        H28-C8=1.1025        H29-O9=0.9663        H30-O10=0.9649       H31-O11=0.9651       H32-C14=1.0804       
H33-C15=1.0795       H34-C16=1.0794       H35-C17=1.0820       H36-C19=1.1016       H37-C19=1.0899       H38-O20=0.9645       
 C  H  Rav=1.0940 sigma=0.0104  Rmin=1.0794  Rmax=1.1115    13
 C  C  Rav=1.4584 sigma=0.0717  Rmin=1.3825  Rmax=1.5357    12
 O  H  Rav=0.9668 sigma=0.0033  Rmin=0.9645  Rmax=0.9733     5
 O  C  Rav=1.4026 sigma=0.0077  Rmin=1.3935  Rmax=1.4149     9

 selected bond angles (degree)
 --------------------
H21-O1-C2=107.89               C3-C2-O1=112.07                H22-C2-O1=107.57               H22-C2-C3=108.36               
H23-C2-O1=111.15               H23-C2-C3=108.31               H23-C2-H22=109.32              O4-C3-C2=106.75                
C8-C3-C2=111.83                C8-C3-O4=110.61                H24-C3-C2=109.26               H24-C3-O4=109.60               
H24-C3-C8=108.76               C5-O4-C3=113.58                C6-C5-O4=110.47                O12-C5-O4=109.11               
O12-C5-C6=107.75               H25-C5-O4=109.84               H25-C5-C6=109.04               H25-C5-O12=110.59              
C7-C6-C5=108.49                O11-C6-C5=111.58               O11-C6-C7=108.51               H26-C6-C5=108.01               
H26-C6-C7=109.56               H26-C6-O11=110.65              C8-C7-C6=109.96                O10-C7-C6=111.71               
O10-C7-C8=108.04               H27-C7-C6=108.28               H27-C7-C8=109.03               H27-C7-O10=109.78              
C7-C8-C3=109.86                O9-C8-C3=108.92                O9-C8-C7=110.83                H28-C8-C3=108.94               
H28-C8-C7=107.82               H28-C8-O9=110.44               H29-O9-C8=106.99               H30-O10-C7=107.33              

 selected dihedral angles (degree)
 ---------------------------------
C3-C2-O1-H21=295.25           H22-C2-O1-H21=176.24          H23-C2-O1-H21= 56.60          O4-C3-C2-O1= 59.82            
O4-C3-C2-H22=178.37           O4-C3-C2-H23=296.85           C8-C3-C2-O1=180.93            C8-C3-C2-H22=299.47           
C8-C3-C2-H23= 57.96           H24-C3-C2-O1=301.38           H24-C3-C2-H22= 59.93          H24-C3-C2-H23=178.41          
C5-O4-C3-C2=182.43            C5-O4-C3-C8= 60.55            C5-O4-C3-H24=300.65           C6-C5-O4-C3=297.10            
O12-C5-O4-C3=178.81           H25-C5-O4-C3= 57.42           C7-C6-C5-O4= 58.60            C7-C6-C5-O12=177.71           
C7-C6-C5-H25=297.80           O11-C6-C5-O4=178.09           O11-C6-C5-O12=297.21          O11-C6-C5-H25= 57.29          
H26-C6-C5-O4=299.92           H26-C6-C5-O12= 59.04          H26-C6-C5-H25=179.12          C8-C7-C6-C5=305.49            
C8-C7-C6-O11=184.09           C8-C7-C6-H26= 63.18           O10-C7-C6-C5=185.54           O10-C7-C6-O11= 64.14          
O10-C7-C6-H26=303.23          H27-C7-C6-C5= 64.53           H27-C7-C6-O11=303.13          H27-C7-C6-H26=182.22          
C7-C8-C3-C2=186.76            C7-C8-C3-O4=305.60            C7-C8-C3-H24= 66.01           O9-C8-C3-C2= 65.18            
O9-C8-C3-O4=184.03            O9-C8-C3-H24=304.44           H28-C8-C3-C2=304.66           H28-C8-C3-O4= 63.50           
H28-C8-C3-H24=183.91          C3-C8-C7-C6= 53.07            C3-C8-C7-O10=175.22           C3-C8-C7-H27=294.49           
O9-C8-C7-C6=173.49            O9-C8-C7-O10=295.64           O9-C8-C7-H27= 54.91           H28-C8-C7-C6=294.47           
H28-C8-C7-O10= 56.62          H28-C8-C7-H27=175.89          H29-O9-C8-C3=169.80           H29-O9-C8-C7= 48.81           
H29-O9-C8-H28=289.40          H30-O10-C7-C6=311.70          H30-O10-C7-C8=190.63          H30-O10-C7-H27= 71.83         
           -------------------------------------------------
          |                Final Singlepoint                |
           -------------------------------------------------

          ...................................................
          :                      SETUP                      :
          :.................................................:
          :  # basis functions                  98          :
          :  # atomic orbitals                  98          :
          :  # shells                           58          :
          :  # electrons                       112          :
          :  max. iterations                   250          :
          :  Hamiltonian                  GFN2-xTB          :
          :  restarted?                      false          :
          :  GBSA solvation                  false          :
          :  PC potential                    false          :
          :  electronic temp.          300.0000000     K    :
          :  accuracy                    1.0000000          :
          :  -> integral cutoff          0.2500000E+02      :
          :  -> integral neglect         0.1000000E-07      :
          :  -> SCF convergence          0.1000000E-05 Eh   :
          :  -> wf. convergence          0.1000000E-03 e    :
          :  Broyden damping             0.4000000          :
          :  net charge                          0          :
          :  unpaired electrons                  0          :
          ...................................................

 iter      E             dE          RMSdq      gap      omega  full diag
   1    -66.1192611 -0.661193E+02  0.514E-05    4.08       0.0  T
   2    -66.1192611 -0.172236E-10  0.317E-05    4.08     512.5  T
   3    -66.1192611 -0.450484E-11  0.204E-05    4.08     795.1  T

   *** convergence criteria satisfied after 3 iterations ***

         #    Occupation            Energy/Eh            Energy/eV
      -------------------------------------------------------------
         1        2.0000           -0.7356080             -20.0169
       ...           ...                  ...                  ...
        50        2.0000           -0.4296757             -11.6921
        51        2.0000           -0.4241708             -11.5423
        52        2.0000           -0.4210854             -11.4583
        53        2.0000           -0.4188343             -11.3971
        54        2.0000           -0.4132527             -11.2452
        55        2.0000           -0.4127480             -11.2314
        56        2.0000           -0.3970780             -10.8050 (HOMO)
        57                         -0.2472368              -6.7277 (LUMO)
        58                         -0.2449743              -6.6661
        59                         -0.1200627              -3.2671
        60                         -0.0231458              -0.6298
        61                         -0.0132454              -0.3604
       ...                                ...                  ...
        98                          0.6365532              17.3215
      -------------------------------------------------------------
                  HL-Gap            0.1498413 Eh            4.0774 eV
             Fermi-level           -0.3221574 Eh           -8.7663 eV

 SCC (total)                   0 d,  0 h,  0 min,  0.060 sec
 SCC setup                      ...        0 min,  0.000 sec (  0.415%)
 Dispersion                     ...        0 min,  0.000 sec (  0.391%)
 classical contributions        ...        0 min,  0.000 sec (  0.189%)
 integral evaluation            ...        0 min,  0.006 sec ( 10.486%)
 iterations                     ...        0 min,  0.005 sec (  8.219%)
 molecular gradient             ...        0 min,  0.048 sec ( 80.079%)
 printout                       ...        0 min,  0.000 sec (  0.212%)

         :::::::::::::::::::::::::::::::::::::::::::::::::::::
         ::                     SUMMARY                     ::
         :::::::::::::::::::::::::::::::::::::::::::::::::::::
         :: total energy             -65.472513483716 Eh    ::
         :: gradient norm              0.000619811750 Eh/a0 ::
         :: HOMO-LUMO gap              4.077388014383 eV    ::
         ::.................................................::
         :: SCC energy               -66.118702965351 Eh    ::
         :: -> isotropic ES            0.153335799732 Eh    ::
         :: -> anisotropic ES         -0.007076896787 Eh    ::
         :: -> anisotropic XC         -0.002631853334 Eh    ::
         :: -> dispersion             -0.037706212454 Eh    ::
         :: repulsion energy           0.646189481635 Eh    ::
         :: add. restraining           0.000000000000 Eh    ::
         :: total charge               0.000000000000 e     ::
         :::::::::::::::::::::::::::::::::::::::::::::::::::::

           -------------------------------------------------
          |                Property Printout                |
           -------------------------------------------------

    * Orbital Energies and Occupations

         #    Occupation            Energy/Eh            Energy/eV
      -------------------------------------------------------------
         1        2.0000           -0.7356080             -20.0169
       ...           ...                  ...                  ...
        44        2.0000           -0.4672992             -12.7159
        45        2.0000           -0.4661165             -12.6837
        46        2.0000           -0.4507982             -12.2668
        47        2.0000           -0.4462975             -12.1444
        48        2.0000           -0.4385643             -11.9339
        49        2.0000           -0.4358677             -11.8606
        50        2.0000           -0.4296757             -11.6921
        51        2.0000           -0.4241708             -11.5423
        52        2.0000           -0.4210854             -11.4583
        53        2.0000           -0.4188343             -11.3971
        54        2.0000           -0.4132527             -11.2452
        55        2.0000           -0.4127480             -11.2314
        56        2.0000           -0.3970780             -10.8050 (HOMO)
        57                         -0.2472368              -6.7277 (LUMO)
        58                         -0.2449743              -6.6661
        59                         -0.1200627              -3.2671
        60                         -0.0231458              -0.6298
        61                         -0.0132454              -0.3604
        62                          0.0145912               0.3970
        63                          0.0378520               1.0300
        64                          0.0416699               1.1339
        65                          0.0513702               1.3979
        66                          0.0695595               1.8928
        67                          0.0757488               2.0612
       ...                                ...                  ...
        98                          0.6365532              17.3215
      -------------------------------------------------------------
                  HL-Gap            0.1498413 Eh            4.0774 eV
             Fermi-level           -0.3221574 Eh           -8.7663 eV

     #   Z          covCN         q      C6AA      α(0)
     1   8 O        1.655    -0.442    21.683     6.286
     2   6 C        3.676     0.077    19.516     6.329
     3   6 C        3.755     0.094    19.072     6.227
     4   8 O        1.702    -0.332    19.560     5.971
     5   6 C        3.666     0.250    16.979     5.909
     6   6 C        3.727     0.087    19.225     6.260
     7   6 C        3.731     0.099    19.029     6.227
     8   6 C        3.728     0.094    19.113     6.241
     9   8 O        1.657    -0.438    21.606     6.275
    10   8 O        1.656    -0.444    21.721     6.291
    11   8 O        1.656    -0.445    21.739     6.294
    12   8 O        1.705    -0.316    19.282     5.929
    13   6 C        2.882     0.137    25.009     8.198
    14   6 C        2.918    -0.048    29.200     8.861
    15   6 C        2.920    -0.030    28.741     8.791
    16   6 C        2.918    -0.033    28.818     8.803
    17   6 C        2.927    -0.036    28.903     8.817
    18   6 C        2.964    -0.013    28.332     8.731
    19   6 C        3.679     0.078    19.489     6.323
    20   8 O        1.655    -0.438    21.610     6.275
    21   1 H        0.804     0.323     0.655     1.272
    22   1 H        0.924     0.069     2.099     2.266
    23   1 H        0.923     0.034     2.534     2.489
    24   1 H        0.923     0.038     2.471     2.458
    25   1 H        0.921     0.000     3.051     2.732
    26   1 H        0.923     0.040     2.448     2.447
    27   1 H        0.923     0.032     2.560     2.502
    28   1 H        0.923     0.034     2.525     2.485
    29   1 H        0.805     0.320     0.664     1.280
    30   1 H        0.805     0.315     0.679     1.294
    31   1 H        0.805     0.310     0.692     1.306
    32   1 H        0.926     0.049     2.334     2.389
    33   1 H        0.926     0.048     2.349     2.397
    34   1 H        0.926     0.046     2.367     2.406
    35   1 H        0.925     0.041     2.436     2.441
    36   1 H        0.923     0.030     2.587     2.516
    37   1 H        0.925     0.076     2.021     2.223
    38   1 H        0.805     0.294     0.738     1.350

 Mol. C6AA /au·bohr⁶  :      14029.118284
 Mol. C8AA /au·bohr⁸  :     316325.189105
 Mol. α(0) /au        :        177.292645


Wiberg/Mayer (AO) data.
largest (>0.10) Wiberg bond orders for each atom

 ---------------------------------------------------------------------------
     #   Z sym  total        # sym  WBO       # sym  WBO       # sym  WBO
 ---------------------------------------------------------------------------
     1   8 O    1.960 --     2 C    1.026    21 H    0.856
     2   6 C    3.965 --     1 O    1.026     3 C    0.971    22 H    0.968
                            23 H    0.967
     3   6 C    3.937 --     2 C    0.971     8 C    0.969     4 O    0.958
                            24 H    0.956
     4   8 O    2.083 --     5 C    0.972     3 C    0.958
     5   6 C    3.932 --    12 O    0.976     4 O    0.972     6 C    0.950
                            25 H    0.943
     6   6 C    3.958 --    11 O    0.998     7 C    0.972    26 H    0.956
                             5 C    0.950
     7   6 C    3.961 --    10 O    0.998     6 C    0.972     8 C    0.968
                            27 H    0.956
     8   6 C    3.964 --     9 O    1.007     3 C    0.969     7 C    0.968
                            28 H    0.955
     9   8 O    1.959 --     8 C    1.007    29 H    0.880
    10   8 O    1.957 --     7 C    0.998    30 H    0.883
    11   8 O    1.958 --     6 C    0.998    31 H    0.885
    12   8 O    2.118 --     5 C    0.976    13 C    0.971
    13   6 C    3.929 --    14 C    1.401    18 C    1.378    12 O    0.971
                            16 C    0.104
    14   6 C    3.990 --    15 C    1.445    13 C    1.401    32 H    0.967
                            17 C    0.109
    15   6 C    3.991 --    14 C    1.445    16 C    1.433    33 H    0.970
                            18 C    0.109
    16   6 C    3.991 --    17 C    1.447    15 C    1.433    34 H    0.970
                            13 C    0.104
    17   6 C    3.991 --    16 C    1.447    18 C    1.414    35 H    0.967
                            14 C    0.109
    18   6 C    3.987 --    17 C    1.414    13 C    1.378    19 C    0.998
                            15 C    0.109
    19   6 C    3.951 --    18 C    0.998    20 O    0.986    37 H    0.966
                            36 H    0.960
    20   8 O    1.983 --    19 C    0.986    38 H    0.895
    21   1 H    0.896 --     1 O    0.856
    22   1 H    0.995 --     2 C    0.968
    23   1 H    0.999 --     2 C    0.967
    24   1 H    0.999 --     3 C    0.956
    25   1 H    1.000 --     5 C    0.943
    26   1 H    0.998 --     6 C    0.956
    27   1 H    0.999 --     7 C    0.956
    28   1 H    0.999 --     8 C    0.955
    29   1 H    0.898 --     9 O    0.880
    30   1 H    0.901 --    10 O    0.883
    31   1 H    0.903 --    11 O    0.885
    32   1 H    0.997 --    14 C    0.967
    33   1 H    0.997 --    15 C    0.970
    34   1 H    0.998 --    16 C    0.970
    35   1 H    0.998 --    17 C    0.967
    36   1 H    0.999 --    19 C    0.960
    37   1 H    0.994 --    19 C    0.966
    38   1 H    0.913 --    20 O    0.895
 ---------------------------------------------------------------------------

Topologies differ in total number of bonds
Writing topology from bond orders to xtbtopo.mol

molecular dipole:
                 x           y           z       tot (Debye)
 q only:        1.190       0.369      -0.689
   full:        1.579       0.609      -1.218       5.300
molecular quadrupole (traceless):
                xx          xy          yy          xz          yz          zz
 q only:        9.611      -0.466      -1.658       6.168       0.218      -7.953
  q+dip:        8.333      -1.151       4.559      11.842       2.672     -12.892
   full:        9.326      -1.798       1.338      10.005       2.260     -10.665

           -------------------------------------------------
          |                Geometry Summary                 |
           -------------------------------------------------

      molecular mass/u    :      286.2783346
   center of mass at/Å    :       -0.0690875       0.0136846      -0.0524721
  moments of inertia/u·Å² :        0.9708352E+03   0.2075847E+04   0.2734600E+04
rotational constants/cm⁻¹ :        0.1736405E-01   0.8120847E-02   0.6164570E-02

 * 38 selected distances

     #   Z          #   Z                                           value/Å
     1   8 O        2   6 C                                       1.3953406
     2   6 C        3   6 C                                       1.5356810 (max)
     3   6 C        4   8 O                                       1.4148705
     4   8 O        5   6 C                                       1.3984260
     5   6 C        6   6 C                                       1.5351830
     6   6 C        7   6 C                                       1.5293615
     3   6 C        8   6 C                                       1.5342582
     7   6 C        8   6 C                                       1.5356203
     8   6 C        9   8 O                                       1.4006047
     7   6 C       10   8 O                                       1.4066568
     6   6 C       11   8 O                                       1.4062575
     5   6 C       12   8 O                                       1.3934887
    12   8 O       13   6 C                                       1.3940736
    13   6 C       14   6 C                                       1.3893034
    14   6 C       15   6 C                                       1.3825120
    15   6 C       16   6 C                                       1.3843627
    16   6 C       17   6 C                                       1.3824686
    13   6 C       18   6 C                                       1.3933792
    17   6 C       18   6 C                                       1.3909228
    19   6 C       20   8 O                                       1.4136821
     1   8 O       21   1 H                                       0.9733148
     2   6 C       22   1 H                                       1.0916989
     2   6 C       23   1 H                                       1.0985379
     3   6 C       24   1 H                                       1.1012138
     5   6 C       25   1 H                                       1.1114536
     6   6 C       26   1 H                                       1.1009177
     7   6 C       27   1 H                                       1.1030555
     8   6 C       28   1 H                                       1.1024745
     9   8 O       29   1 H                                       0.9662689
    10   8 O       30   1 H                                       0.9649208
    11   8 O       31   1 H                                       0.9651315
    14   6 C       32   1 H                                       1.0803814
    15   6 C       33   1 H                                       1.0794655
    16   6 C       34   1 H                                       1.0794208
    17   6 C       35   1 H                                       1.0820252
    19   6 C       36   1 H                                       1.1016153
    19   6 C       37   1 H                                       1.0898849
    20   8 O       38   1 H                                       0.9644732 (min)

 * 4 distinct bonds (by element types)

   Z      Z             #   av. dist./Å        max./Å        min./Å
   1 H    6 C          13     1.0940112     1.1114536     1.0794208
   6 C    6 C          11     1.4539139     1.5356810     1.3824686
   1 H    8 O           5     0.9668218     0.9733148     0.9644732
   6 C    8 O           9     1.4026001     1.4148705     1.3934887


optimized geometry written to: xtbopt.xyz


           -------------------------------------------------
          | TOTAL ENERGY              -65.472513483716 Eh   |
          | GRADIENT NORM               0.000619811750 Eh/α |
          | HOMO-LUMO GAP               4.077388014383 eV   |
           -------------------------------------------------

------------------------------------------------------------------------
 * finished run on 2025/05/15 at 16:06:08.700     
------------------------------------------------------------------------
 total:
 * wall-time:     0 d,  0 h,  0 min,  1.565 sec
 *  cpu-time:     0 d,  0 h,  0 min,  1.088 sec
 * ratio c/w:     0.695 speedup
 SCF:
 * wall-time:     0 d,  0 h,  0 min,  0.070 sec
 *  cpu-time:     0 d,  0 h,  0 min,  0.047 sec
 * ratio c/w:     0.668 speedup
 ANC optimizer:
 * wall-time:     0 d,  0 h,  0 min,  1.483 sec
 *  cpu-time:     0 d,  0 h,  0 min,  1.030 sec
 * ratio c/w:     0.695 speedup



----- Single-point -----
      -----------------------------------------------------------      
     |                   =====================                   |     
     |                           x T B                           |     
     |                   =====================                   |     
     |                         S. Grimme                         |     
     |          Mulliken Center for Theoretical Chemistry        |     
     |                    University of Bonn                     |     
      -----------------------------------------------------------      

   * xtb version 6.7.1 (edcfbbe) compiled by 'conda@3ef47c1a292c' on 2024-11-25

   xtb is free software: you can redistribute it and/or modify it under
   the terms of the GNU Lesser General Public License as published by
   the Free Software Foundation, either version 3 of the License, or
   (at your option) any later version.
   
   xtb is distributed in the hope that it will be useful,
   but WITHOUT ANY WARRANTY; without even the implied warranty of
   MERCHANTABILITY or FITNESS FOR A PARTICULAR PURPOSE.  See the
   GNU Lesser General Public License for more details.
   
   Cite this work as:
   * C. Bannwarth, E. Caldeweyher, S. Ehlert, A. Hansen, P. Pracht,
     J. Seibert, S. Spicher, S. Grimme, WIREs Comput. Mol. Sci., 2020, 11,
     e01493. DOI: 10.1002/wcms.1493
   
   for GFN2-xTB:
   * C. Bannwarth, S. Ehlert and S. Grimme., J. Chem. Theory Comput., 2019,
     15, 1652-1671. DOI: 10.1021/acs.jctc.8b01176
   for GFN1-xTB:
   * S. Grimme, C. Bannwarth, P. Shushkov, J. Chem. Theory Comput., 2017,
     13, 1989-2009. DOI: 10.1021/acs.jctc.7b00118
   for GFN0-xTB:
   * P. Pracht, E. Caldeweyher, S. Ehlert, S. Grimme, ChemRxiv, 2019, preprint.
     DOI: 10.26434/chemrxiv.8326202.v1
   for GFN-FF:
   * S. Spicher and S. Grimme, Angew. Chem. Int. Ed., 2020, 59, 15665-15673.
     DOI: 10.1002/anie.202004239
   
   for ALPB and GBSA implicit solvation:
   * S. Ehlert, M. Stahn, S. Spicher, S. Grimme, J. Chem. Theory Comput.,
     2021, 17, 4250-4261. DOI: 10.1021/acs.jctc.1c00471
   
   for ddCOSMO and CPCM-X implicit solvation:
   * M. Stahn, S. Ehlert, S. Grimme, J. Phys. Chem. A,
     2023, XX, XXXX-XXXX. DOI: 10.1021/acs.jpca.3c04382
   
   for DFT-D4:
   * E. Caldeweyher, C. Bannwarth and S. Grimme, J. Chem. Phys., 2017,
     147, 034112. DOI: 10.1063/1.4993215
   * E. Caldeweyher, S. Ehlert, A. Hansen, H. Neugebauer, S. Spicher,
     C. Bannwarth and S. Grimme, J. Chem. Phys., 2019, 150, 154122.
     DOI: 10.1063/1.5090222
   * E. Caldeweyher, J.-M. Mewes, S. Ehlert and S. Grimme, Phys. Chem. Chem. Phys.
     2020, 22, 8499-8512. DOI: 10.1039/D0CP00502A
   
   for sTDA-xTB:
   * S. Grimme and C. Bannwarth, J. Chem. Phys., 2016, 145, 054103.
     DOI: 10.1063/1.4959605
   
   in the mass-spec context:
   * V. Asgeirsson, C. Bauer and S. Grimme, Chem. Sci., 2017, 8, 4879.
     DOI: 10.1039/c7sc00601b
   * J. Koopman and S. Grimme, ACS Omega 2019, 4, 12, 15120-15133.
     DOI: 10.1021/acsomega.9b02011
   
   for metadynamics refer to:
   * S. Grimme, J. Chem. Theory Comput., 2019, 155, 2847-2862
     DOI: 10.1021/acs.jctc.9b00143
   
   for SPH calculations refer to:
   * S. Spicher and S. Grimme, J. Chem. Theory Comput., 2021, 17, 1701-1714
     DOI: 10.1021/acs.jctc.0c01306
   
   for ONIOM refer to:
   * C. Plett, A. Katbashev, S. Ehlert, S. Grimme, M. Bursch,
     Phys. Chem. Chem. Phys., 2023, 25, 17860-17868. DOI: 10.1039/D3CP02178E
   
   for DIPRO refer to:
   * J. Kohn, N. Gildemeister, S. Grimme, D. Fazzi, A. Hansen,
     J. Chem. Phys., 2023, just accepted.
   
   for PTB refer to:
   * S. Grimme, M. Mueller, A. Hansen, J. Chem. Phys., 2023, 158, 124111.
     DOI: 10.1063/5.0137838
   
   with help from (in alphabetical order)
   P. Atkinson, C. Bannwarth, F. Bohle, G. Brandenburg, E. Caldeweyher
   M. Checinski, S. Dohm, S. Ehlert, S. Ehrlich, I. Gerasimov, C. Hölzer
   A. Katbashev, J. Kohn, J. Koopman, C. Lavigne, S. Lehtola, F. März, M. Müller,
   F. Musil, H. Neugebauer, J. Pisarek, C. Plett, P. Pracht, F. Pultar,
   J. Seibert, P. Shushkov, S. Spicher, M. Stahn, M. Steiner, T. Strunk,
   J. Stückrath, T. Rose, and J. Unsleber
   
 * started run on 2025/05/15 at 16:06:08.712     
   ID    Z sym.   atoms
    1    8 O      1, 4, 9-12, 20
    2    6 C      2, 3, 5-8, 13-19
    3    1 H      21-38

           -------------------------------------------------
          |                Calculation Setup                |
           -------------------------------------------------

          program call               : xtb /rds/general/user/hgt20/home/callum/QDESCP/Salicin_rdkit_conf_8/Salicin_rdkit_conf_8.xyz --acc 1 --gfn 2 --chrg 0 --uhf 0 --etemp 300 --input /rds/general/user/hgt20/home/callum/QDESCP/Salicin_rdkit_conf_8/Salicin_rdkit_conf_8_xtb.inp -P 1
          hostname                   : login-c
          coordinate file            : /rds/general/user/hgt20/home/callum/QDESCP/Salicin_rdkit_conf_8/Salicin_rdkit_conf_8.xyz
          omp threads                :                     1


           -------------------------------------------------
          |                 G F N 2 - x T B                 |
           -------------------------------------------------

        Reference                      10.1021/acs.jctc.8b01176
      * Hamiltonian:
        H0-scaling (s, p, d)           1.850000    2.230000    2.230000
        zeta-weighting                 0.500000
      * Dispersion:
        s8                             2.700000
        a1                             0.520000
        a2                             5.000000
        s9                             5.000000
      * Repulsion:
        kExp                           1.500000    1.000000
        rExp                           1.000000
      * Coulomb:
        alpha                          2.000000
        third order                    shell-resolved
        anisotropic                    true
        a3                             3.000000
        a5                             4.000000
        cn-shift                       1.200000
        cn-exp                         4.000000
        max-rad                        5.000000

q/qsh data taken from xtbrestart
CAMM data taken from xtbrestart

          ...................................................
          :                      SETUP                      :
          :.................................................:
          :  # basis functions                  98          :
          :  # atomic orbitals                  98          :
          :  # shells                           58          :
          :  # electrons                       112          :
          :  max. iterations                   250          :
          :  Hamiltonian                  GFN2-xTB          :
          :  restarted?                       true          :
          :  GBSA solvation                  false          :
          :  PC potential                    false          :
          :  electronic temp.          300.0000000     K    :
          :  accuracy                    1.0000000          :
          :  -> integral cutoff          0.2500000E+02      :
          :  -> integral neglect         0.1000000E-07      :
          :  -> SCF convergence          0.1000000E-05 Eh   :
          :  -> wf. convergence          0.1000000E-03 e    :
          :  Broyden damping             0.4000000          :
          :  net charge                          0          :
          :  unpaired electrons                  0          :
          ...................................................

 iter      E             dE          RMSdq      gap      omega  full diag
   1    -66.1192611 -0.661193E+02  0.551E-06    4.08       0.0  T
   2    -66.1192611 -0.284217E-12  0.344E-06    4.08    4718.7  T
   3    -66.1192611  0.284217E-13  0.223E-06    4.08    7287.4  T

   *** convergence criteria satisfied after 3 iterations ***

         #    Occupation            Energy/Eh            Energy/eV
      -------------------------------------------------------------
         1        2.0000           -0.7356080             -20.0169
       ...           ...                  ...                  ...
        50        2.0000           -0.4296757             -11.6921
        51        2.0000           -0.4241708             -11.5423
        52        2.0000           -0.4210855             -11.4583
        53        2.0000           -0.4188342             -11.3971
        54        2.0000           -0.4132527             -11.2452
        55        2.0000           -0.4127480             -11.2314
        56        2.0000           -0.3970781             -10.8050 (HOMO)
        57                         -0.2472368              -6.7277 (LUMO)
        58                         -0.2449744              -6.6661
        59                         -0.1200627              -3.2671
        60                         -0.0231458              -0.6298
        61                         -0.0132454              -0.3604
       ...                                ...                  ...
        98                          0.6365531              17.3215
      -------------------------------------------------------------
                  HL-Gap            0.1498413 Eh            4.0774 eV
             Fermi-level           -0.3221574 Eh           -8.7664 eV

 SCC (total)                   0 d,  0 h,  0 min,  0.069 sec
 SCC setup                      ...        0 min,  0.000 sec (  0.443%)
 Dispersion                     ...        0 min,  0.000 sec (  0.555%)
 classical contributions        ...        0 min,  0.000 sec (  0.177%)
[...]
     e01493. DOI: 10.1002/wcms.1493
   
   for GFN2-xTB:
   * C. Bannwarth, S. Ehlert and S. Grimme., J. Chem. Theory Comput., 2019,
     15, 1652-1671. DOI: 10.1021/acs.jctc.8b01176
   for GFN1-xTB:
   * S. Grimme, C. Bannwarth, P. Shushkov, J. Chem. Theory Comput., 2017,
     13, 1989-2009. DOI: 10.1021/acs.jctc.7b00118
   for GFN0-xTB:
   * P. Pracht, E. Caldeweyher, S. Ehlert, S. Grimme, ChemRxiv, 2019, preprint.
     DOI: 10.26434/chemrxiv.8326202.v1
   for GFN-FF:
   * S. Spicher and S. Grimme, Angew. Chem. Int. Ed., 2020, 59, 15665-15673.
     DOI: 10.1002/anie.202004239
   
   for ALPB and GBSA implicit solvation:
   * S. Ehlert, M. Stahn, S. Spicher, S. Grimme, J. Chem. Theory Comput.,
     2021, 17, 4250-4261. DOI: 10.1021/acs.jctc.1c00471
   
   for ddCOSMO and CPCM-X implicit solvation:
   * M. Stahn, S. Ehlert, S. Grimme, J. Phys. Chem. A,
     2023, XX, XXXX-XXXX. DOI: 10.1021/acs.jpca.3c04382
   
   for DFT-D4:
   * E. Caldeweyher, C. Bannwarth and S. Grimme, J. Chem. Phys., 2017,
     147, 034112. DOI: 10.1063/1.4993215
   * E. Caldeweyher, S. Ehlert, A. Hansen, H. Neugebauer, S. Spicher,
     C. Bannwarth and S. Grimme, J. Chem. Phys., 2019, 150, 154122.
     DOI: 10.1063/1.5090222
   * E. Caldeweyher, J.-M. Mewes, S. Ehlert and S. Grimme, Phys. Chem. Chem. Phys.
     2020, 22, 8499-8512. DOI: 10.1039/D0CP00502A
   
   for sTDA-xTB:
   * S. Grimme and C. Bannwarth, J. Chem. Phys., 2016, 145, 054103.
     DOI: 10.1063/1.4959605
   
   in the mass-spec context:
   * V. Asgeirsson, C. Bauer and S. Grimme, Chem. Sci., 2017, 8, 4879.
     DOI: 10.1039/c7sc00601b
   * J. Koopman and S. Grimme, ACS Omega 2019, 4, 12, 15120-15133.
     DOI: 10.1021/acsomega.9b02011
   
   for metadynamics refer to:
   * S. Grimme, J. Chem. Theory Comput., 2019, 155, 2847-2862
     DOI: 10.1021/acs.jctc.9b00143
   
   for SPH calculations refer to:
   * S. Spicher and S. Grimme, J. Chem. Theory Comput., 2021, 17, 1701-1714
     DOI: 10.1021/acs.jctc.0c01306
   
   for ONIOM refer to:
   * C. Plett, A. Katbashev, S. Ehlert, S. Grimme, M. Bursch,
     Phys. Chem. Chem. Phys., 2023, 25, 17860-17868. DOI: 10.1039/D3CP02178E
   
   for DIPRO refer to:
   * J. Kohn, N. Gildemeister, S. Grimme, D. Fazzi, A. Hansen,
     J. Chem. Phys., 2023, just accepted.
   
   for PTB refer to:
   * S. Grimme, M. Mueller, A. Hansen, J. Chem. Phys., 2023, 158, 124111.
     DOI: 10.1063/5.0137838
   
   with help from (in alphabetical order)
   P. Atkinson, C. Bannwarth, F. Bohle, G. Brandenburg, E. Caldeweyher
   M. Checinski, S. Dohm, S. Ehlert, S. Ehrlich, I. Gerasimov, C. Hölzer
   A. Katbashev, J. Kohn, J. Koopman, C. Lavigne, S. Lehtola, F. März, M. Müller,
   F. Musil, H. Neugebauer, J. Pisarek, C. Plett, P. Pracht, F. Pultar,
   J. Seibert, P. Shushkov, S. Spicher, M. Stahn, M. Steiner, T. Strunk,
   J. Stückrath, T. Rose, and J. Unsleber
   
 * started run on 2025/05/15 at 16:06:10.417     
   ID    Z sym.   atoms
    1    8 O      1, 4, 9-12, 20
    2    6 C      2, 3, 5-8, 13-19
    3    1 H      21-38

           -------------------------------------------------
          |                Calculation Setup                |
           -------------------------------------------------

          program call               : xtb /rds/general/user/hgt20/home/callum/QDESCP/Salicin_rdkit_conf_8/Salicin_rdkit_conf_8.xyz --acc 1 --gfn 2 --chrg 0 --uhf 2 --etemp 300 --input /rds/general/user/hgt20/home/callum/QDESCP/Salicin_rdkit_conf_8/Salicin_rdkit_conf_8_xtb.inp -P 1
          hostname                   : login-c
          coordinate file            : /rds/general/user/hgt20/home/callum/QDESCP/Salicin_rdkit_conf_8/Salicin_rdkit_conf_8.xyz
          omp threads                :                     1


           -------------------------------------------------
          |                 G F N 2 - x T B                 |
           -------------------------------------------------

        Reference                      10.1021/acs.jctc.8b01176
      * Hamiltonian:
        H0-scaling (s, p, d)           1.850000    2.230000    2.230000
        zeta-weighting                 0.500000
      * Dispersion:
        s8                             2.700000
        a1                             0.520000
        a2                             5.000000
        s9                             5.000000
      * Repulsion:
        kExp                           1.500000    1.000000
        rExp                           1.000000
      * Coulomb:
        alpha                          2.000000
        third order                    shell-resolved
        anisotropic                    true
        a3                             3.000000
        a5                             4.000000
        cn-shift                       1.200000
        cn-exp                         4.000000
        max-rad                        5.000000


          ...................................................
          :                      SETUP                      :
          :.................................................:
          :  # basis functions                  98          :
          :  # atomic orbitals                  98          :
          :  # shells                           58          :
          :  # electrons                       112          :
          :  max. iterations                   250          :
          :  Hamiltonian                  GFN2-xTB          :
          :  restarted?                      false          :
          :  GBSA solvation                  false          :
          :  PC potential                    false          :
          :  electronic temp.          300.0000000     K    :
          :  accuracy                    1.0000000          :
          :  -> integral cutoff          0.2500000E+02      :
          :  -> integral neglect         0.1000000E-07      :
          :  -> SCF convergence          0.1000000E-05 Eh   :
          :  -> wf. convergence          0.1000000E-03 e    :
          :  Broyden damping             0.4000000          :
          :  net charge                          0          :
          :  unpaired electrons                  2          :
          ...................................................

 iter      E             dE          RMSdq      gap      omega  full diag
   1    -65.8320633 -0.658321E+02  0.439E+00    0.18       0.0  T
   2    -65.7895985  0.424648E-01  0.349E+00    0.63       1.0  T
   3    -65.8142571 -0.246586E-01  0.265E+00    0.74       1.0  T
   4    -65.7293511  0.849059E-01  0.163E+00    0.06       1.0  T
   5    -65.9241081 -0.194757E+00  0.102E+00    0.04       1.0  T
   6    -65.8801445  0.439635E-01  0.154E+00    0.27       1.0  T
   7    -65.9466784 -0.665338E-01  0.387E-01    0.05       1.0  T
   8    -65.9468288 -0.150468E-03  0.353E-01    0.06       1.0  T
   9    -65.9453402  0.148860E-02  0.343E-01    0.05       1.0  T
  10    -65.9494022 -0.406196E-02  0.767E-02    0.04       1.0  T
  11    -65.9488939  0.508260E-03  0.108E-01    0.05       1.0  T
  12    -65.9493919 -0.497988E-03  0.804E-02    0.05       1.0  T
  13    -65.9494080 -0.160289E-04  0.471E-02    0.05       1.0  T
  14    -65.9495867 -0.178749E-03  0.122E-02    0.05       1.3  T
  15    -65.9495446  0.421486E-04  0.237E-02    0.05       1.0  T
  16    -65.9495893 -0.447007E-04  0.380E-03    0.05       4.3  T
  17    -65.9495890  0.259706E-06  0.396E-03    0.05       4.1  T
  18    -65.9495901 -0.113307E-05  0.111E-03    0.05      14.6  T
  19    -65.9495902 -0.773299E-07  0.487E-04    0.05      33.3  T
  20    -65.9495902 -0.153717E-07  0.182E-04    0.05      89.4  T

   *** convergence criteria satisfied after 20 iterations ***

         #    Occupation            Energy/Eh            Energy/eV
      -------------------------------------------------------------
         1        2.0000           -0.7368531             -20.0508
       ...           ...                  ...                  ...
        51        2.0000           -0.4248405             -11.5605
        52        2.0000           -0.4188506             -11.3975
        53        1.9999           -0.4156237             -11.3097
        54        1.9731           -0.4103511             -11.1662
        55        1.8429           -0.4085372             -11.1169
        56        1.1841           -0.4055272             -11.0350
        57        0.7240           -0.2327832              -6.3344 (HOMO)
        58        0.2760           -0.2309507              -6.2845 (LUMO)
        59                         -0.1058953              -2.8816
        60                         -0.0289199              -0.7869
        61                         -0.0135566              -0.3689
        62                          0.0092324               0.2512
       ...                                ...                  ...
        98                          0.6502752              17.6949
      -------------------------------------------------------------
                  HL-Gap            0.0018324 Eh            0.0499 eV
             Fermi-level           -0.3194042 Eh           -8.6914 eV

 transition dipole moment (au) for excitation:          56          57
     X       Y       Z   
  -0.3002   1.2058  -0.5218  total (au/Debye):    1.348   3.426
 dE (eV)             :    4.701
 oscillator strength :  0.29582E+00

 SCC (total)                   0 d,  0 h,  0 min,  0.094 sec
 SCC setup                      ...        0 min,  0.000 sec (  0.316%)
 Dispersion                     ...        0 min,  0.000 sec (  0.389%)
 classical contributions        ...        0 min,  0.000 sec (  0.127%)
 integral evaluation            ...        0 min,  0.007 sec (  7.125%)
 iterations                     ...        0 min,  0.060 sec ( 63.924%)
 molecular gradient             ...        0 min,  0.020 sec ( 21.683%)
 printout                       ...        0 min,  0.006 sec (  6.428%)

         :::::::::::::::::::::::::::::::::::::::::::::::::::::
         ::                     SUMMARY                     ::
         :::::::::::::::::::::::::::::::::::::::::::::::::::::
         :: total energy             -65.302842651926 Eh    ::
         :: gradient norm              0.119399439983 Eh/a0 ::
         :: HOMO-LUMO gap              0.049863093987 eV    ::
         ::.................................................::
         :: SCC energy               -65.949032133561 Eh    ::
         :: -> isotropic ES            0.149031800336 Eh    ::
         :: -> anisotropic ES         -0.006357661689 Eh    ::
         :: -> anisotropic XC         -0.003162775668 Eh    ::
         :: -> dispersion             -0.037684827266 Eh    ::
         :: repulsion energy           0.646189481635 Eh    ::
         :: add. restraining           0.000000000000 Eh    ::
         :: total charge              -0.000000000000 e     ::
         :::::::::::::::::::::::::::::::::::::::::::::::::::::

           -------------------------------------------------
          |                Property Printout                |
           -------------------------------------------------

    * Orbital Energies and Occupations

         #    Occupation            Energy/Eh            Energy/eV
      -------------------------------------------------------------
         1        2.0000           -0.7368531             -20.0508
       ...           ...                  ...                  ...
        45        2.0000           -0.4622698             -12.5790
        46        2.0000           -0.4524797             -12.3126
        47        2.0000           -0.4458755             -12.1329
        48        2.0000           -0.4381414             -11.9224
        49        2.0000           -0.4361636             -11.8686
        50        2.0000           -0.4333499             -11.7921
        51        2.0000           -0.4248405             -11.5605
        52        2.0000           -0.4188506             -11.3975
        53        1.9999           -0.4156237             -11.3097
        54        1.9731           -0.4103511             -11.1662
        55        1.8429           -0.4085372             -11.1169
        56        1.1841           -0.4055272             -11.0350
        57        0.7240           -0.2327832              -6.3344 (HOMO)
        58        0.2760           -0.2309507              -6.2845 (LUMO)
        59                         -0.1058953              -2.8816
        60                         -0.0289199              -0.7869
        61                         -0.0135566              -0.3689
        62                          0.0092324               0.2512
        63                          0.0323867               0.8813
        64                          0.0380611               1.0357
        65                          0.0483722               1.3163
        66                          0.0646001               1.7579
        67                          0.0766286               2.0852
        68                          0.0801607               2.1813
       ...                                ...                  ...
        98                          0.6502752              17.6949
      -------------------------------------------------------------
                  HL-Gap            0.0018324 Eh            0.0499 eV
             Fermi-level           -0.3194042 Eh           -8.6914 eV

     #   Z          covCN         q      C6AA      α(0)
     1   8 O        1.655    -0.421    21.261     6.224
     2   6 C        3.676     0.075    19.537     6.333
     3   6 C        3.755     0.096    19.042     6.222
     4   8 O        1.702    -0.329    19.509     5.963
     5   6 C        3.666     0.248    16.995     5.912
     6   6 C        3.727     0.087    19.231     6.261
     7   6 C        3.731     0.100    19.027     6.226
     8   6 C        3.728     0.094    19.113     6.241
     9   8 O        1.657    -0.437    21.587     6.272
    10   8 O        1.656    -0.443    21.698     6.288
    11   8 O        1.656    -0.443    21.709     6.290
    12   8 O        1.705    -0.309    19.156     5.909
    13   6 C        2.882     0.130    25.156     8.223
    14   6 C        2.918    -0.062    29.531     8.911
    15   6 C        2.920    -0.039    28.972     8.827
    16   6 C        2.918    -0.034    28.844     8.807
    17   6 C        2.927    -0.052    29.286     8.875
    18   6 C        2.964    -0.027    28.669     8.783
    19   6 C        3.679     0.077    19.509     6.327
    20   8 O        1.655    -0.434    21.530     6.264
    21   1 H        0.804     0.331     0.636     1.252
    22   1 H        0.924     0.076     2.016     2.220
    23   1 H        0.923     0.042     2.416     2.431
    24   1 H        0.923     0.044     2.401     2.423
    25   1 H        0.921     0.005     2.974     2.697
    26   1 H        0.923     0.041     2.438     2.442
    27   1 H        0.923     0.034     2.530     2.487
    28   1 H        0.923     0.036     2.498     2.472
    29   1 H        0.805     0.322     0.659     1.275
    30   1 H        0.805     0.317     0.673     1.289
    31   1 H        0.805     0.312     0.686     1.301
    32   1 H        0.926     0.037     2.487     2.466
    33   1 H        0.926     0.037     2.494     2.469
    34   1 H        0.926     0.036     2.497     2.471
    35   1 H        0.925     0.028     2.615     2.529
    36   1 H        0.923     0.050     2.320     2.382
    37   1 H        0.925     0.076     2.019     2.222
    38   1 H        0.805     0.299     0.725     1.337

 Mol. C6AA /au·bohr⁶  :      14029.894551
 Mol. C8AA /au·bohr⁸  :     316542.855557
 Mol. α(0) /au        :        177.324545


Wiberg/Mayer (AO) data.
largest (>0.10) Wiberg bond orders for each atom

 ---------------------------------------------------------------------------
     #   Z sym  total        # sym  WBO       # sym  WBO       # sym  WBO
 ---------------------------------------------------------------------------
     1   8 O    1.963 --     2 C    1.030    21 H    0.849
     2   6 C    3.951 --     1 O    1.030    22 H    0.964    23 H    0.962
                             3 C    0.959
     3   6 C    3.925 --     8 C    0.969     4 O    0.960     2 C    0.959
                            24 H    0.955
     4   8 O    2.080 --     5 C    0.967     3 C    0.960
     5   6 C    3.916 --    12 O    0.969     4 O    0.967     6 C    0.950
                            25 H    0.943
     6   6 C    3.956 --    11 O    0.999     7 C    0.970    26 H    0.956
                             5 C    0.950
     7   6 C    3.958 --    10 O    0.999     6 C    0.970     8 C    0.966
                            27 H    0.955
     8   6 C    3.962 --     9 O    1.007     3 C    0.969     7 C    0.966
                            28 H    0.955
     9   8 O    1.958 --     8 C    1.007    29 H    0.878
    10   8 O    1.956 --     7 C    0.999    30 H    0.881
    11   8 O    1.957 --     6 C    0.999    31 H    0.883
    12   8 O    2.125 --    13 C    0.987     5 C    0.969
    13   6 C    3.607 --    14 C    1.352    18 C    1.083    12 O    0.987
    14   6 C    3.756 --    13 C    1.352    15 C    1.319    32 H    0.966
    15   6 C    3.615 --    14 C    1.319    16 C    1.147    33 H    0.970
    16   6 C    3.686 --    17 C    1.421    15 C    1.147    34 H    0.971
    17   6 C    3.752 --    16 C    1.421    18 C    1.260    35 H    0.966
    18   6 C    3.586 --    17 C    1.260    13 C    1.083    19 C    1.021
    19   6 C    3.941 --    18 C    1.021    20 O    0.978    37 H    0.963
                            36 H    0.923
    20   8 O    1.990 --    19 C    0.978    38 H    0.891
    21   1 H    0.890 --     1 O    0.849
    22   1 H    0.990 --     2 C    0.964
    23   1 H    0.992 --     2 C    0.962
    24   1 H    0.997 --     3 C    0.955
    25   1 H    0.999 --     5 C    0.943
    26   1 H    0.998 --     6 C    0.956
    27   1 H    0.999 --     7 C    0.955
    28   1 H    0.998 --     8 C    0.955
    29   1 H    0.896 --     9 O    0.878
    30   1 H    0.899 --    10 O    0.881
    31   1 H    0.902 --    11 O    0.883
    32   1 H    0.997 --    14 C    0.966
    33   1 H    0.997 --    15 C    0.970
    34   1 H    0.998 --    16 C    0.971
    35   1 H    0.998 --    17 C    0.966
    36   1 H    0.978 --    19 C    0.923
    37   1 H    0.993 --    19 C    0.963
    38   1 H    0.911 --    20 O    0.891
 ---------------------------------------------------------------------------

Topologies differ in total number of bonds
Writing topology from bond orders to xtbtopo.mol

molecular dipole:
                 x           y           z       tot (Debye)
 q only:        0.444      -0.016      -0.486
   full:        0.812       0.181      -0.998       3.302
molecular quadrupole (traceless):
                xx          xy          yy          xz          yz          zz
 q only:        5.676      -2.618      -0.361       5.382      -0.415      -5.315
  q+dip:        4.059      -3.115       5.968      10.688       2.379     -10.027
   full:        5.076      -3.940       2.864       9.111       1.678      -7.940


           -------------------------------------------------
          | TOTAL ENERGY              -65.302842651926 Eh   |
          | GRADIENT NORM               0.119399439983 Eh/α |
          | HOMO-LUMO GAP               0.049863093987 eV   |
           -------------------------------------------------

------------------------------------------------------------------------
 * finished run on 2025/05/15 at 16:06:10.524     
------------------------------------------------------------------------
 total:
 * wall-time:     0 d,  0 h,  0 min,  0.106 sec
 *  cpu-time:     0 d,  0 h,  0 min,  0.079 sec
 * ratio c/w:     0.739 speedup
 SCF:
 * wall-time:     0 d,  0 h,  0 min,  0.095 sec
 *  cpu-time:     0 d,  0 h,  0 min,  0.068 sec
 * ratio c/w:     0.720 speedup


