42
 energy: -71.305276729805 gnorm: 0.000520901035 xtb: 6.7.1 (edcfbbe)
O           -4.99181356086339       -3.63787233023755        0.04277410771028
C           -4.74216772426093       -2.46645186996968        0.11453792182926
O           -5.71885867408747       -1.55791568001269        0.38362527803153
C           -3.42431516129363       -1.83016029363937       -0.04483437335619
C           -3.22500102833253       -0.58251873761135        0.45879123482883
N           -2.05973390203976        0.09141561947374        0.39443554365826
C           -0.94147683481311       -0.51991070706306       -0.15203383284396
C            0.29993675293135        0.11245832003982       -0.13379595168587
C            1.44735098542907       -0.47066677893776       -0.67687074375255
N            2.65527265074587        0.18195254833465       -0.72490226283275
C            3.89474712303602       -0.49567727941441       -0.38904649915083
C            4.23289271818913       -0.25287053390705        1.09385972375703
N            4.31149174692011        1.15673202031408        1.43035230945625
C            3.09623697085833        1.84651753529262        1.03989601237759
C            2.75322223422408        1.59826752401091       -0.43962980564429
C            1.27242776613793       -1.74712391140541       -1.25756533228584
F            2.31747333753329       -2.36045081398033       -1.86868048711637
C            0.06811413350643       -2.39339906405579       -1.26177653225637
C           -1.06920470603448       -1.80146525947979       -0.70667786082425
C           -2.34202148933547       -2.54268766339404       -0.73163130348581
O           -2.45354451057103       -3.62148806666101       -1.28109081556456
C           -1.97815404554932        1.40776073221904        0.95525025489109
C           -3.07570433452161        2.39100477717344        0.68003889345981
C           -1.73234771220726        2.58087546942933        0.04849964471475
H           -6.55961165692224       -2.03083630123778        0.47902204602399
H           -4.03191790479479       -0.07130516613298        0.96366095467418
H            0.37658770055905        1.07811517798351        0.33276365245977
H            4.68987422641988       -0.08520836995013       -1.02267499849809
H            3.82341387958342       -1.56251230191882       -0.57647099013719
H            3.44995610463763       -0.69724231490769        1.71698719883721
H            5.18435409254130       -0.72565417308361        1.34192782492507
H            5.10859080756641        1.57491730277131        0.95809475593373
H            3.21949024366971        2.91471175164791        1.22862002572259
H            2.29028020564394        1.46864816690761        1.67643750718028
H            3.56798886719965        1.99270719267090       -1.06030593075526
H            1.83459301930519        2.10491370280727       -0.73385718062157
H           -0.02802010654865       -3.36796052424441       -1.71483300693458
H           -1.51936946973635        1.42688978825558        1.94040178589538
H           -3.88832092503556        2.08215982592775        0.04117316894883
H           -3.37417926195175        3.05129912032719        1.47946512950018
H           -1.64370652869358        2.38288169198941       -1.00881046035650
H           -1.09482602904614        3.37704987366816        0.40207339328525
