57
 energy: -90.578056651793 gnorm: 0.000333476152 xtb: 6.7.1 (edcfbbe)
C           -5.13868094450226       -0.99822179097277       -0.25378888917269
N           -3.87655506709648       -0.35956999980007        0.04951982038563
C           -3.85014987969838        0.94496044778787        0.40630197997984
N           -2.70732703020740        1.54611236569162        0.64045423777529
C           -2.74522840025084        2.83920189397251        1.01865172324952
C           -3.87695612088840        3.57266990414433        1.16882712678547
C           -5.14753143542898        2.96010210883579        0.91398581162399
N           -5.03112930526647        1.61019227165175        0.52899522098925
O           -6.25511900878136        3.45048392359703        0.99119676849237
C           -2.64117763689537       -1.10993775510477       -0.15317847912549
C           -1.77795233277232       -1.15744769242165        1.11058151277897
C           -0.49950445204490       -1.94049676025709        0.82883665573432
C           -1.82245932420073       -0.56238758987792       -1.32584934711846
C           -0.56144566921729       -1.40169846937861       -1.50744772919936
N            0.21130951428859       -1.32909969356661       -0.28268597814920
C            1.54560965532631       -1.66479463864832       -0.40844812962788
N            2.06013944116398       -2.44229349220229       -1.31713153292122
C            3.41292635741685       -2.44049023203298       -1.07920553151625
C            3.69458914412701       -1.61013057840891        0.03087190861990
N            2.47509291740281       -1.13063930161116        0.45760443533490
C            2.26659935181622        0.02598363479824        1.29949554276709
C            2.12606627683796        1.25043996844770        0.42680123403982
C            3.24647964042236        1.78048798555157       -0.20298784458414
C            3.12930114720976        2.85161959675426       -1.06913782981104
C            1.87318709416251        3.38155756668797       -1.30198899338878
F            1.74908835786047        4.42519723689238       -2.14878065282616
C            0.74203841061820        2.87082868537129       -0.69348421086797
C            0.87679556936578        1.80057512690743        0.17275911484385
C            4.98562009129991       -1.43799461448872        0.49840242853107
C            5.99455392956113       -2.10636325964190       -0.16940023342729
C            5.72503807905579       -2.92598107881222       -1.26418877187340
C            4.43948769113866       -3.10706672875889       -1.73378323741610
H           -4.95660354706802       -2.03101008356279       -0.53862946814021
H           -5.64883813735083       -0.50631023429722       -1.08798793212530
H           -5.79858655840953       -1.00453202070317        0.61894017838843
H           -1.77000491605120        3.26973164621501        1.20690965653482
H           -3.86029925756224        4.60435068290044        1.47418687092148
H           -5.91458257698221        1.15421219443190        0.34557240584799
H           -2.93754448926462       -2.13640546832596       -0.39475703113554
H           -1.53456581510567       -0.13837123122584        1.40244399569056
H           -2.33093954262321       -1.63363782478446        1.92204570661251
H           -0.75137092720667       -2.98809304748285        0.58987472643042
H            0.14226622148373       -1.94929001412299        1.71162091296576
H           -1.54420557470200        0.46753832160655       -1.11068446012281
H           -2.41843865503703       -0.58606225545349       -2.23928660048735
H            0.05077384849357       -1.00617440269554       -2.31794010510690
H           -0.82377632771794       -2.44171315751303       -1.75496681574455
H            3.12961545145567        0.11700316827000        1.96376833695375
H            1.36675406565772       -0.11263248808382        1.90149018216538
H            4.21943145677027        1.34785649967138       -0.02308741879242
H            3.99063175668622        3.27190400656908       -1.56348599053065
H           -0.22382490690639        3.30283381094333       -0.90313647533550
H           -0.00214202074454        1.39128973935328        0.64464776918469
H            5.20528525627315       -0.81096840586304        1.35093709900685
H            7.01506683392309       -1.99161802996009        0.16514715359281
H            6.54547402779481       -3.43075253919517       -1.75268177043403
H            4.22731827237643       -3.74454790778719       -2.57683905724135
