48
 energy: -69.044259060564 gnorm: 0.000353408631 xtb: 6.7.1 (edcfbbe)
O           -0.16585666864405       -1.83768029636328        2.48075653608561
C           -0.30368690808119       -1.12667332510759        1.27151956593875
C            1.00564365341406       -1.24990631278977        0.46075135934610
N            2.14563556028743       -0.91175772839518        1.31650646491226
C            3.35899173209229       -1.41866666505128        0.68936107989334
C            3.47583853984094       -0.90934605816245       -0.76355394720646
C            2.27036432868035        0.52689590022470        1.49403323738740
C            2.65072683987072        1.23642465047755        0.17048795446602
C            1.85938755861774        2.48703759710660       -0.03294630701944
C            2.38774276247553        3.68225756721301       -0.21989531083332
C            2.43488530001068        0.20044593708673       -0.95139618569834
C            1.03838630279022       -0.41907097413842       -0.83301607518519
C           -1.44318015512846       -1.71146189225610        0.47309366481280
C           -1.57807874021795       -3.07971563076727        0.44264739527398
C           -2.59039828338023       -3.66238632208700       -0.32927730895418
N           -3.43080128498763       -2.97517193575475       -1.05157560554113
C           -3.33924808065119       -1.63394909965981       -1.03421932356444
C           -2.36164961434499       -0.92808235881143       -0.27424869017546
C           -2.37234067035774        0.48359463190633       -0.31102542209670
C           -3.28584422809008        1.16423644764279       -1.07742786632837
O           -3.37049192584458        2.51870676008574       -1.18278792104882
C           -2.44339258183051        3.31301893114769       -0.48579147266429
C           -4.24082310579782        0.45303280860297       -1.84044606955371
C           -4.26777080133200       -0.90591984783219       -1.81266903082668
H            0.75417265327085       -1.72728198650063        2.76169431767436
H           -0.50331640747169       -0.07089437818577        1.50381975628037
H            1.11380509523246       -2.31468312200212        0.22284352270539
H            4.20588542467548       -1.08556342131196        1.29300587647797
H            3.33155833589371       -2.51049834341038        0.72371621623251
H            3.27940994300673       -1.71386858250593       -1.47395735616087
H            4.47768193420003       -0.52560303919144       -0.95966050230856
H            3.03057497018020        0.70527582268576        2.25869580014464
H            1.32562689390148        0.91536211828129        1.87749746107484
H            3.71288103288727        1.50102443088522        0.18218964404075
H            0.78296553933038        2.37478615490466       -0.01026985857529
H            3.45463450424085        3.83242633290431       -0.24280526827552
H            1.78111564558327        4.56116765140623       -0.35769072084722
H            2.55550269019184        0.67865327837979       -1.92723876623392
H            0.28013747584301        0.36235489235915       -0.81913804960253
H            0.83255971571712       -1.05305283781934       -1.69656418014429
H           -0.91045776873580       -3.69722227784436        1.02221052264494
H           -2.70492983376478       -4.73847818138089       -0.36276059108670
H           -1.66454982902084        1.02872339558721        0.29185796325998
H           -2.51521353377168        3.16391459613303        0.59662083383951
H           -2.70043560442463        4.34403776374315       -0.72292090456789
H           -1.41788808419815        3.11494024150399       -0.81611030139672
H           -4.94084763310939        1.02641113976908       -2.42727623625946
H           -4.99451268904236       -1.46799443270602       -2.37713990033708
