33
 energy: -45.171907386202 gnorm: 0.000490991882 xtb: 6.7.1 (edcfbbe)
C           -4.51506952109852       -1.17799085097187       -0.13077872246242
C           -3.09435925853699       -0.73970343648682        0.21471215440914
C           -2.21466793652666       -0.75714694905477       -1.04743115042205
C           -0.77415130729751       -0.48145312280489       -0.72991022179592
C           -0.20289350178548        0.75878028106455       -0.98483030217352
C            1.11789909679311        1.01257126672518       -0.66455041519924
C            1.90232000344330        0.02793686713263       -0.07797823125463
C            3.34446689287215        0.30868835626372        0.29043704565839
C            4.04493998825245        0.75907757534737       -0.97303295670386
O            4.60744083938388       -0.27242733529202       -1.61724578440835
O            4.08614417606100        1.88222392713604       -1.39646366127871
C            3.44167923883694        1.37842571444902        1.37834145233904
C            1.33878961750057       -1.21556229247488        0.17179060740093
C            0.01700237676887       -1.46421679682059       -0.14800891644972
C           -3.10373257394073        0.64771335404930        0.84906715113504
H           -4.95886628314750       -0.49276220148250       -0.85028520924050
H           -5.13793545558438       -1.18830187464997        0.76085841483065
H           -4.51806533347912       -2.17686987652858       -0.56179164031543
H           -2.67337454553546       -1.44870091273650        0.93630414895507
H           -2.58974282875143       -0.01112791908823       -1.75083776684980
H           -2.29877045089325       -1.74019887164863       -1.51741446259732
H           -0.79759257487302        1.53564347165316       -1.44360742042700
H            1.54794975715861        1.97863292852077       -0.88285987140834
H            3.81385756185742       -0.62075062294589        0.62326163491907
H            5.01160362872170        0.02547074968565       -2.44788512106264
H            3.09499744897491        2.33356717016756        0.99394534219353
H            2.82929648181329        1.09666089803442        2.23135854675032
H            4.47245311761635        1.49312928702438        1.70591602444315
H            1.93749493761900       -1.99567307919856        0.62009224238902
H           -0.40558731886154       -2.43866095925517        0.05217093238078
H           -2.09576216156738        0.95161119200980        1.12186143663675
H           -3.71924728969937        0.65119161936152        1.74583909269819
H           -3.50871682209715        1.38022244281296        0.15355562690754
