----- Optimization -----
      -----------------------------------------------------------      
     |                   =====================                   |     
     |                           x T B                           |     
     |                   =====================                   |     
     |                         S. Grimme                         |     
     |          Mulliken Center for Theoretical Chemistry        |     
     |                    University of Bonn                     |     
      -----------------------------------------------------------      

   * xtb version 6.7.1 (edcfbbe) compiled by 'conda@3ef47c1a292c' on 2024-11-25

   xtb is free software: you can redistribute it and/or modify it under
   the terms of the GNU Lesser General Public License as published by
   the Free Software Foundation, either version 3 of the License, or
   (at your option) any later version.
   
   xtb is distributed in the hope that it will be useful,
   but WITHOUT ANY WARRANTY; without even the implied warranty of
   MERCHANTABILITY or FITNESS FOR A PARTICULAR PURPOSE.  See the
   GNU Lesser General Public License for more details.
   
   Cite this work as:
   * C. Bannwarth, E. Caldeweyher, S. Ehlert, A. Hansen, P. Pracht,
     J. Seibert, S. Spicher, S. Grimme, WIREs Comput. Mol. Sci., 2020, 11,
     e01493. DOI: 10.1002/wcms.1493
   
   for GFN2-xTB:
   * C. Bannwarth, S. Ehlert and S. Grimme., J. Chem. Theory Comput., 2019,
     15, 1652-1671. DOI: 10.1021/acs.jctc.8b01176
   for GFN1-xTB:
   * S. Grimme, C. Bannwarth, P. Shushkov, J. Chem. Theory Comput., 2017,
     13, 1989-2009. DOI: 10.1021/acs.jctc.7b00118
   for GFN0-xTB:
   * P. Pracht, E. Caldeweyher, S. Ehlert, S. Grimme, ChemRxiv, 2019, preprint.
     DOI: 10.26434/chemrxiv.8326202.v1
   for GFN-FF:
   * S. Spicher and S. Grimme, Angew. Chem. Int. Ed., 2020, 59, 15665-15673.
     DOI: 10.1002/anie.202004239
   
   for ALPB and GBSA implicit solvation:
   * S. Ehlert, M. Stahn, S. Spicher, S. Grimme, J. Chem. Theory Comput.,
     2021, 17, 4250-4261. DOI: 10.1021/acs.jctc.1c00471
   
   for ddCOSMO and CPCM-X implicit solvation:
   * M. Stahn, S. Ehlert, S. Grimme, J. Phys. Chem. A,
     2023, XX, XXXX-XXXX. DOI: 10.1021/acs.jpca.3c04382
   
   for DFT-D4:
   * E. Caldeweyher, C. Bannwarth and S. Grimme, J. Chem. Phys., 2017,
     147, 034112. DOI: 10.1063/1.4993215
   * E. Caldeweyher, S. Ehlert, A. Hansen, H. Neugebauer, S. Spicher,
     C. Bannwarth and S. Grimme, J. Chem. Phys., 2019, 150, 154122.
     DOI: 10.1063/1.5090222
   * E. Caldeweyher, J.-M. Mewes, S. Ehlert and S. Grimme, Phys. Chem. Chem. Phys.
     2020, 22, 8499-8512. DOI: 10.1039/D0CP00502A
   
   for sTDA-xTB:
   * S. Grimme and C. Bannwarth, J. Chem. Phys., 2016, 145, 054103.
     DOI: 10.1063/1.4959605
   
   in the mass-spec context:
   * V. Asgeirsson, C. Bauer and S. Grimme, Chem. Sci., 2017, 8, 4879.
     DOI: 10.1039/c7sc00601b
   * J. Koopman and S. Grimme, ACS Omega 2019, 4, 12, 15120-15133.
     DOI: 10.1021/acsomega.9b02011
   
   for metadynamics refer to:
   * S. Grimme, J. Chem. Theory Comput., 2019, 155, 2847-2862
     DOI: 10.1021/acs.jctc.9b00143
   
   for SPH calculations refer to:
   * S. Spicher and S. Grimme, J. Chem. Theory Comput., 2021, 17, 1701-1714
     DOI: 10.1021/acs.jctc.0c01306
   
   for ONIOM refer to:
   * C. Plett, A. Katbashev, S. Ehlert, S. Grimme, M. Bursch,
     Phys. Chem. Chem. Phys., 2023, 25, 17860-17868. DOI: 10.1039/D3CP02178E
   
   for DIPRO refer to:
   * J. Kohn, N. Gildemeister, S. Grimme, D. Fazzi, A. Hansen,
     J. Chem. Phys., 2023, just accepted.
   
   for PTB refer to:
   * S. Grimme, M. Mueller, A. Hansen, J. Chem. Phys., 2023, 158, 124111.
     DOI: 10.1063/5.0137838
   
   with help from (in alphabetical order)
   P. Atkinson, C. Bannwarth, F. Bohle, G. Brandenburg, E. Caldeweyher
   M. Checinski, S. Dohm, S. Ehlert, S. Ehrlich, I. Gerasimov, C. Hölzer
   A. Katbashev, J. Kohn, J. Koopman, C. Lavigne, S. Lehtola, F. März, M. Müller,
   F. Musil, H. Neugebauer, J. Pisarek, C. Plett, P. Pracht, F. Pultar,
   J. Seibert, P. Shushkov, S. Spicher, M. Stahn, M. Steiner, T. Strunk,
   J. Stückrath, T. Rose, and J. Unsleber
   
 * started run on 2025/05/15 at 16:22:55.515     
   ID    Z sym.   atoms
    1    6 C      1-4, 6-8, 11-16, 20, 21, 23-26, 28, 30, 31, 33
    2    7 N      5, 9, 10, 19, 22, 32
    3   16 S      17
    4    8 O      18, 27, 29, 34
    5    1 H      35-66

           -------------------------------------------------
          |                Calculation Setup                |
           -------------------------------------------------

          program call               : xtb /rds/general/user/hgt20/home/callum/QDESCP/Vardenafil_rdkit_conf_24/Vardenafil_rdkit_conf_24.xyz --opt normal --acc 1 --gfn 2 --chrg 0 --uhf 0 -P 1
          hostname                   : login-c
          coordinate file            : /rds/general/user/hgt20/home/callum/QDESCP/Vardenafil_rdkit_conf_24/Vardenafil_rdkit_conf_24.xyz
          omp threads                :                     1


           -------------------------------------------------
          |                 G F N 2 - x T B                 |
           -------------------------------------------------

        Reference                      10.1021/acs.jctc.8b01176
      * Hamiltonian:
        H0-scaling (s, p, d)           1.850000    2.230000    2.230000
        zeta-weighting                 0.500000
      * Dispersion:
        s8                             2.700000
        a1                             0.520000
        a2                             5.000000
        s9                             5.000000
      * Repulsion:
        kExp                           1.500000    1.000000
        rExp                           1.000000
      * Coulomb:
        alpha                          2.000000
        third order                    shell-resolved
        anisotropic                    true
        a3                             3.000000
        a5                             4.000000
        cn-shift                       1.200000
        cn-exp                         4.000000
        max-rad                        5.000000


          ...................................................
          :                      SETUP                      :
          :.................................................:
          :  # basis functions                 174          :
          :  # atomic orbitals                 173          :
          :  # shells                          101          :
          :  # electrons                       184          :
          :  max. iterations                   250          :
          :  Hamiltonian                  GFN2-xTB          :
          :  restarted?                      false          :
          :  GBSA solvation                  false          :
          :  PC potential                    false          :
          :  electronic temp.          300.0000000     K    :
          :  accuracy                    1.0000000          :
          :  -> integral cutoff          0.2500000E+02      :
          :  -> integral neglect         0.1000000E-07      :
          :  -> SCF convergence          0.1000000E-05 Eh   :
          :  -> wf. convergence          0.1000000E-03 e    :
          :  Broyden damping             0.4000000          :
          :  net charge                          0          :
          :  unpaired electrons                  0          :
          ...................................................

 iter      E             dE          RMSdq      gap      omega  full diag
   1   -103.6059450 -0.103606E+03  0.420E+00    2.37       0.0  T
   2   -103.8345671 -0.228622E+00  0.267E+00    1.64       1.0  T
   3   -103.8558374 -0.212703E-01  0.138E+00    1.84       1.0  T
   4   -103.8700781 -0.142406E-01  0.478E-01    1.29       1.0  T
   5   -103.8794432 -0.936510E-02  0.180E-01    1.37       1.0  T
   6   -103.8798323 -0.389101E-03  0.956E-02    1.37       1.0  T
   7   -103.8799377 -0.105392E-03  0.570E-02    1.41       1.0  T
   8   -103.8800222 -0.845188E-04  0.275E-02    1.41       1.0  T
   9   -103.8800291 -0.692539E-05  0.102E-02    1.41       1.2  T
  10   -103.8800319 -0.280263E-05  0.477E-03    1.41       2.6  T
  11   -103.8800322 -0.268983E-06  0.208E-03    1.41       5.9  T
  12   -103.8800322 -0.775229E-07  0.620E-04    1.41      19.9  T
  13   -103.8800323 -0.112279E-07  0.298E-04    1.41      41.3  T

   *** convergence criteria satisfied after 13 iterations ***

         #    Occupation            Energy/Eh            Energy/eV
      -------------------------------------------------------------
         1        2.0000           -0.7732088             -21.0401
       ...           ...                  ...                  ...
        86        2.0000           -0.4135275             -11.2527
        87        2.0000           -0.4097600             -11.1501
        88        2.0000           -0.3944015             -10.7322
        89        2.0000           -0.3909666             -10.6387
        90        2.0000           -0.3800639             -10.3421
        91        2.0000           -0.3737353             -10.1699
        92        2.0000           -0.3551015              -9.6628 (HOMO)
        93                         -0.3033875              -8.2556 (LUMO)
        94                         -0.2729718              -7.4279
        95                         -0.2557295              -6.9588
        96                         -0.2326788              -6.3315
        97                         -0.1935047              -5.2655
       ...                                ...                  ...
       173                          1.1502623              31.3002
      -------------------------------------------------------------
                  HL-Gap            0.0517140 Eh            1.4072 eV
             Fermi-level           -0.3292445 Eh           -8.9592 eV

 SCC (total)                   0 d,  0 h,  0 min,  0.161 sec
 SCC setup                      ...        0 min,  0.001 sec (  0.454%)
 Dispersion                     ...        0 min,  0.001 sec (  0.661%)
 classical contributions        ...        0 min,  0.000 sec (  0.213%)
 integral evaluation            ...        0 min,  0.015 sec (  9.421%)
 iterations                     ...        0 min,  0.067 sec ( 41.276%)
 molecular gradient             ...        0 min,  0.077 sec ( 47.709%)
 printout                       ...        0 min,  0.000 sec (  0.262%)

         :::::::::::::::::::::::::::::::::::::::::::::::::::::
         ::                     SUMMARY                     ::
         :::::::::::::::::::::::::::::::::::::::::::::::::::::
         :: total energy            -102.651287124102 Eh    ::
         :: gradient norm              0.105186390800 Eh/a0 ::
         :: HOMO-LUMO gap              1.407208285985 eV    ::
         ::.................................................::
         :: SCC energy              -103.879588592242 Eh    ::
         :: -> isotropic ES            0.147245348593 Eh    ::
         :: -> anisotropic ES          0.005372472917 Eh    ::
         :: -> anisotropic XC          0.051128028763 Eh    ::
         :: -> dispersion             -0.075364779388 Eh    ::
         :: repulsion energy           1.228301468140 Eh    ::
         :: add. restraining           0.000000000000 Eh    ::
         :: total charge              -0.000000000000 e     ::
         :::::::::::::::::::::::::::::::::::::::::::::::::::::

      ----------------------------------------------------------- 
     |                   =====================                   |
     |                        A N C O P T                        |
     |                   =====================                   |
     |               Approximate Normal Coordinate               |
     |                Rational Function Optimizer                |
      ----------------------------------------------------------- 
      ----------------------------------------------------------- 
     |                   =====================                   |
     |                        A N C O P T                        |
     |                   =====================                   |
     |               Approximate Normal Coordinate               |
     |                Rational Function Optimizer                |
      ----------------------------------------------------------- 

          ...................................................
          :                      SETUP                      :
          :.................................................:
          :   optimization level            normal          :
          :   max. optcycles                   200          :
          :   ANC micro-cycles                  20          :
          :   degrees of freedom               192          :
          :.................................................:
          :   RF solver                   davidson          :
          :   write xtbopt.log                true          :
          :   linear?                        false          :
          :   energy convergence         0.5000000E-05 Eh   :
          :   grad. convergence          0.1000000E-02 Eh/α :
          :   maxmium RF displ.          1.0000000          :
          :   Hlow (freq-cutoff)         0.1000000E-01      :
          :   Hmax (freq-cutoff)         5.0000000          :
          :   S6 in model hess.         20.0000000          :
          ...................................................

generating ANC from exact Hessian ...
Using Lindh-Hessian (1995)
 Shifting diagonal of input Hessian by    9.9123426239290692E-003
 Lowest  eigenvalues of input Hessian
    0.000000    0.000000    0.000000    0.000000    0.000000    0.000000
    0.010000    0.010060    0.010128    0.010430    0.010750    0.011010
    0.011085    0.011554    0.011850    0.012089    0.012352    0.012778
 Highest eigenvalues
    2.083148    2.104536    2.316022    2.433480    2.511842    3.423505


........................................................................
.............................. CYCLE    1 ..............................
........................................................................

 iter      E             dE          RMSdq      gap      omega  full diag
   1   -103.8800323 -0.103880E+03  0.127E-04    1.41       0.0  T
   2   -103.8800323 -0.152170E-09  0.833E-05    1.41     147.7  T
   3   -103.8800323 -0.969465E-10  0.560E-05    1.41     219.7  T
     SCC iter.                  ...        0 min,  0.016 sec
     gradient                   ...        0 min,  0.070 sec
 * total energy  :  -102.6512871 Eh     change       -0.1610232E-08 Eh
   gradient norm :     0.1051840 Eh/α   predicted     0.0000000E+00 (-100.00%)
   displ. norm   :     0.3290045 α      lambda       -0.1925365E-01
   maximum displ.:     0.1207844 α      in ANC's #63, #35, #49, ...

........................................................................
.............................. CYCLE    2 ..............................
........................................................................

 iter      E             dE          RMSdq      gap      omega  full diag
   1   -103.9316214 -0.103932E+03  0.192E-01    1.38       0.0  T
   2   -103.9318308 -0.209482E-03  0.121E-01    1.42       1.0  T
   3   -103.9317876  0.432047E-04  0.606E-02    1.42       1.0  T
   4   -103.9319032 -0.115585E-03  0.191E-02    1.43       1.0  T
   5   -103.9319182 -0.149674E-04  0.611E-03    1.43       2.0  T
   6   -103.9319182 -0.357264E-07  0.164E-03    1.43       7.5  T
   7   -103.9319183 -0.992390E-07  0.735E-04    1.43      16.7  T
   8   -103.9319183 -0.104200E-07  0.383E-04    1.43      32.2  T
     SCC iter.                  ...        0 min,  0.058 sec
     gradient                   ...        0 min,  0.060 sec
 * total energy  :  -102.6648077 Eh     change       -0.1352056E-01 Eh
   gradient norm :     0.0463581 Eh/α   predicted    -0.1067389E-01 ( -21.05%)
   displ. norm   :     0.2868892 α      lambda       -0.6504337E-02
   maximum displ.:     0.0912827 α      in ANC's #35, #19, #63, ...

........................................................................
.............................. CYCLE    3 ..............................
........................................................................

 iter      E             dE          RMSdq      gap      omega  full diag
   1   -103.9600738 -0.103960E+03  0.138E-01    1.39       0.0  T
   2   -103.9601994 -0.125634E-03  0.867E-02    1.43       1.0  T
   3   -103.9601880  0.114356E-04  0.431E-02    1.43       1.0  T
   4   -103.9602434 -0.554492E-04  0.155E-02    1.43       1.0  T
   5   -103.9602518 -0.843326E-05  0.545E-03    1.43       2.3  T
   6   -103.9602519 -0.319204E-07  0.155E-03    1.43       8.0  T
   7   -103.9602520 -0.973645E-07  0.585E-04    1.43      21.0  T
   8   -103.9602520 -0.314787E-08  0.282E-04    1.43      43.6  T
     SCC iter.                  ...        0 min,  0.039 sec
     gradient                   ...        0 min,  0.094 sec
 * total energy  :  -102.6685710 Eh     change       -0.3763284E-02 Eh
   gradient norm :     0.0146937 Eh/α   predicted    -0.3520974E-02 (  -6.44%)
   displ. norm   :     0.1715264 α      lambda       -0.8601264E-03
   maximum displ.:     0.0695729 α      in ANC's #19, #7, #13, ...

........................................................................
.............................. CYCLE    4 ..............................
........................................................................

 iter      E             dE          RMSdq      gap      omega  full diag
   1   -103.9618078 -0.103962E+03  0.548E-02    1.42       0.0  T
   2   -103.9618253 -0.174592E-04  0.311E-02    1.43       1.0  T
   3   -103.9618230  0.229458E-05  0.156E-02    1.43       1.0  T
   4   -103.9618311 -0.812489E-05  0.489E-03    1.43       2.5  T
   5   -103.9618318 -0.704807E-06  0.219E-03    1.43       5.6  T
   6   -103.9618319 -0.948038E-07  0.698E-04    1.43      17.6  T
   7   -103.9618319 -0.133293E-07  0.242E-04    1.43      50.9  T
     SCC iter.                  ...        0 min,  0.073 sec
     gradient                   ...        0 min,  0.092 sec
 * total energy  :  -102.6692300 Eh     change       -0.6590258E-03 Eh
   gradient norm :     0.0122722 Eh/α   predicted    -0.4427185E-03 ( -32.82%)
   displ. norm   :     0.2725055 α      lambda       -0.8961622E-03
   maximum displ.:     0.1089607 α      in ANC's #7, #19, #13, ...

........................................................................
.............................. CYCLE    5 ..............................
........................................................................

 iter      E             dE          RMSdq      gap      omega  full diag
   1   -103.9611235 -0.103961E+03  0.748E-02    1.43       0.0  T
   2   -103.9611744 -0.508811E-04  0.423E-02    1.43       1.0  T
   3   -103.9611788 -0.442336E-05  0.226E-02    1.44       1.0  T
   4   -103.9611896 -0.108213E-04  0.636E-03    1.43       1.9  T
   5   -103.9611913 -0.171797E-05  0.279E-03    1.43       4.4  T
   6   -103.9611915 -0.149414E-06  0.975E-04    1.43      12.6  T
   7   -103.9611915 -0.311761E-07  0.333E-04    1.43      37.0  T
     SCC iter.                  ...        0 min,  0.062 sec
     gradient                   ...        0 min,  0.061 sec
 * total energy  :  -102.6698300 Eh     change       -0.5999964E-03 Eh
   gradient norm :     0.0101938 Eh/α   predicted    -0.4813574E-03 ( -19.77%)
   displ. norm   :     0.2041028 α      lambda       -0.3821751E-03
   maximum displ.:     0.1009141 α      in ANC's #7, #13, #9, ...

........................................................................
.............................. CYCLE    6 ..............................
........................................................................

 iter      E             dE          RMSdq      gap      omega  full diag
   1   -103.9614604 -0.103961E+03  0.486E-02    1.45       0.0  T
   2   -103.9614870 -0.266225E-04  0.282E-02    1.45       1.0  T
   3   -103.9614915 -0.451261E-05  0.157E-02    1.45       1.0  T
   4   -103.9614955 -0.400982E-05  0.423E-03    1.45       2.9  T
   5   -103.9614965 -0.936205E-06  0.161E-03    1.45       7.7  T
   6   -103.9614965 -0.322798E-07  0.678E-04    1.45      18.2  T
   7   -103.9614965 -0.170656E-07  0.193E-04    1.45      63.8  T
     SCC iter.                  ...        0 min,  0.034 sec
     gradient                   ...        0 min,  0.095 sec
 * total energy  :  -102.6701144 Eh     change       -0.2843679E-03 Eh
   gradient norm :     0.0084737 Eh/α   predicted    -0.1990625E-03 ( -30.00%)
   displ. norm   :     0.2435715 α      lambda       -0.3525338E-03
   maximum displ.:     0.1339549 α      in ANC's #7, #9, #13, ...

........................................................................
.............................. CYCLE    7 ..............................
........................................................................

 iter      E             dE          RMSdq      gap      omega  full diag
   1   -103.9627022 -0.103963E+03  0.540E-02    1.47       0.0  T
   2   -103.9627274 -0.251368E-04  0.314E-02    1.46       1.0  T
   3   -103.9627296 -0.225430E-05  0.176E-02    1.47       1.0  T
   4   -103.9627364 -0.674756E-05  0.426E-03    1.47       2.9  T
   5   -103.9627373 -0.931420E-06  0.163E-03    1.47       7.5  T
   6   -103.9627373 -0.322972E-07  0.710E-04    1.47      17.3  T
   7   -103.9627373 -0.193097E-07  0.197E-04    1.47      62.5  T
     SCC iter.                  ...        0 min,  0.067 sec
     gradient                   ...        0 min,  0.091 sec
 * total energy  :  -102.6703686 Eh     change       -0.2542778E-03 Eh
   gradient norm :     0.0064239 Eh/α   predicted    -0.1867268E-03 ( -26.57%)
   displ. norm   :     0.2373078 α      lambda       -0.2382968E-03
   maximum displ.:     0.1376083 α      in ANC's #7, #9, #13, ...

........................................................................
.............................. CYCLE    8 ..............................
........................................................................

 iter      E             dE          RMSdq      gap      omega  full diag
   1   -103.9638771 -0.103964E+03  0.502E-02    1.49       0.0  T
   2   -103.9638881 -0.109748E-04  0.289E-02    1.48       1.0  T
   3   -103.9638843  0.380889E-05  0.151E-02    1.48       1.0  T
   4   -103.9638926 -0.827734E-05  0.301E-03    1.48       4.1  T
   5   -103.9638930 -0.404080E-06  0.133E-03    1.48       9.3  T
   6   -103.9638930 -0.301222E-07  0.545E-04    1.48      22.6  T
   7   -103.9638930 -0.105120E-07  0.161E-04    1.48      76.7  T
     SCC iter.                  ...        0 min,  0.067 sec
     gradient                   ...        0 min,  0.100 sec
 * total energy  :  -102.6705420 Eh     change       -0.1733577E-03 Eh
   gradient norm :     0.0057128 Eh/α   predicted    -0.1258586E-03 ( -27.40%)
   displ. norm   :     0.2280976 α      lambda       -0.1661864E-03
   maximum displ.:     0.1354803 α      in ANC's #7, #9, #12, ...

........................................................................
.............................. CYCLE    9 ..............................
........................................................................

 iter      E             dE          RMSdq      gap      omega  full diag
   1   -103.9645498 -0.103965E+03  0.468E-02    1.49       0.0  T
   2   -103.9645540 -0.422451E-05  0.268E-02    1.49       1.0  T
   3   -103.9645495  0.446170E-05  0.110E-02    1.49       1.1  T
   4   -103.9645558 -0.625682E-05  0.211E-03    1.49       5.8  T
   5   -103.9645559 -0.128958E-06  0.108E-03    1.49      11.4  T
   6   -103.9645560 -0.268046E-07  0.402E-04    1.49      30.6  T
   7   -103.9645560 -0.581461E-08  0.132E-04    1.49      93.0  T
     SCC iter.                  ...        0 min,  0.034 sec
     gradient                   ...        0 min,  0.078 sec
 * total energy  :  -102.6706654 Eh     change       -0.1233770E-03 Eh
   gradient norm :     0.0052935 Eh/α   predicted    -0.8741704E-04 ( -29.15%)
   displ. norm   :     0.2318927 α      lambda       -0.1299077E-03
   maximum displ.:     0.1406550 α      in ANC's #7, #9, #12, ...

........................................................................
.............................. CYCLE   10 ..............................
........................................................................

 iter      E             dE          RMSdq      gap      omega  full diag
   1   -103.9647156 -0.103965E+03  0.463E-02    1.49       0.0  T
   2   -103.9647180 -0.236505E-05  0.265E-02    1.49       1.0  T
   3   -103.9647155  0.246240E-05  0.780E-03    1.49       1.6  T
   4   -103.9647189 -0.335340E-05  0.196E-03    1.49       6.3  T
   5   -103.9647189 -0.417153E-07  0.975E-04    1.49      12.6  T
   6   -103.9647189 -0.348239E-07  0.329E-04    1.49      37.5  T
     SCC iter.                  ...        0 min,  0.057 sec
     gradient                   ...        0 min,  0.104 sec
 * total energy  :  -102.6707631 Eh     change       -0.9768672E-04 Eh
   gradient norm :     0.0045420 Eh/α   predicted    -0.6844715E-04 ( -29.93%)
   displ. norm   :     0.2277419 α      lambda       -0.1068407E-03
   maximum displ.:     0.1410768 α      in ANC's #7, #12, #9, ...

........................................................................
.............................. CYCLE   11 ..............................
........................................................................

 iter      E             dE          RMSdq      gap      omega  full diag
   1   -103.9648205 -0.103965E+03  0.443E-02    1.49       0.0  T
   2   -103.9648220 -0.151292E-05  0.254E-02    1.49       1.0  T
   3   -103.9648213  0.763899E-06  0.531E-03    1.49       2.3  T
   4   -103.9648224 -0.119202E-05  0.197E-03    1.49       6.3  T
   5   -103.9648225 -0.570034E-07  0.771E-04    1.49      16.0  T
   6   -103.9648225 -0.241749E-07  0.278E-04    1.49      44.2  T
     SCC iter.                  ...        0 min,  0.030 sec
     gradient                   ...        0 min,  0.100 sec
 * total energy  :  -102.6708446 Eh     change       -0.8151563E-04 Eh
   gradient norm :     0.0037172 Eh/α   predicted    -0.5619140E-04 ( -31.07%)
   displ. norm   :     0.2314711 α      lambda       -0.9341892E-04
   maximum displ.:     0.1449989 α      in ANC's #7, #12, #5, ...

........................................................................
.............................. CYCLE   12 ..............................
........................................................................

 iter      E             dE          RMSdq      gap      omega  full diag
   1   -103.9647462 -0.103965E+03  0.437E-02    1.48       0.0  T
   2   -103.9647476 -0.141961E-05  0.250E-02    1.49       1.0  T
   3   -103.9647471  0.528488E-06  0.493E-03    1.49       2.5  T
   4   -103.9647479 -0.842842E-06  0.198E-03    1.49       6.2  T
   5   -103.9647480 -0.932359E-07  0.781E-04    1.49      15.8  T
   6   -103.9647480 -0.188755E-07  0.263E-04    1.49      46.8  T
     SCC iter.                  ...        0 min,  0.029 sec
     gradient                   ...        0 min,  0.082 sec
 * total energy  :  -102.6709169 Eh     change       -0.7231457E-04 Eh
   gradient norm :     0.0033188 Eh/α   predicted    -0.4921271E-04 ( -31.95%)
   displ. norm   :     0.2291314 α      lambda       -0.9020283E-04
   maximum displ.:     0.1425275 α      in ANC's #7, #12, #8, ...

........................................................................
.............................. CYCLE   13 ..............................
........................................................................

 iter      E             dE          RMSdq      gap      omega  full diag
   1   -103.9654484 -0.103965E+03  0.409E-02    1.48       0.0  T
   2   -103.9654494 -0.972705E-06  0.235E-02    1.48       1.0  T
   3   -103.9654491  0.219223E-06  0.374E-03    1.48       3.3  T
   4   -103.9654495 -0.307734E-06  0.191E-03    1.48       6.4  T
   5   -103.9654496 -0.158810E-06  0.680E-04    1.48      18.1  T
   6   -103.9654496 -0.109607E-07  0.199E-04    1.48      61.7  T
     SCC iter.                  ...        0 min,  0.030 sec
     gradient                   ...        0 min,  0.087 sec
 * total energy  :  -102.6709824 Eh     change       -0.6546736E-04 Eh
   gradient norm :     0.0047307 Eh/α   predicted    -0.4748753E-04 ( -27.46%)
   displ. norm   :     0.2530875 α      lambda       -0.8800966E-04
   maximum displ.:     0.1586633 α      in ANC's #7, #12, #8, ...

........................................................................
.............................. CYCLE   14 ..............................
........................................................................

 iter      E             dE          RMSdq      gap      omega  full diag
   1   -103.9648381 -0.103965E+03  0.443E-02    1.48       0.0  T
   2   -103.9648396 -0.156909E-05  0.253E-02    1.48       1.0  T
   3   -103.9648388  0.839024E-06  0.542E-03    1.48       2.3  T
   4   -103.9648400 -0.121114E-05  0.178E-03    1.48       6.9  T
   5   -103.9648401 -0.767373E-07  0.750E-04    1.48      16.4  T
   6   -103.9648401 -0.148267E-07  0.238E-04    1.48      51.6  T
     SCC iter.                  ...        0 min,  0.030 sec
     gradient                   ...        0 min,  0.091 sec
 * total energy  :  -102.6710398 Eh     change       -0.5740135E-04 Eh
   gradient norm :     0.0044591 Eh/α   predicted    -0.4682611E-04 ( -18.42%)
   displ. norm   :     0.1941811 α      lambda       -0.6971262E-04
   maximum displ.:     0.1192984 α      in ANC's #7, #8, #5, ...

........................................................................
.............................. CYCLE   15 ..............................
........................................................................

 iter      E             dE          RMSdq      gap      omega  full diag
   1   -103.9657122 -0.103966E+03  0.303E-02    1.48       0.0  T
   2   -103.9657128 -0.545376E-06  0.174E-02    1.48       1.0  T
   3   -103.9657125  0.235006E-06  0.279E-03    1.48       4.4  T
   4   -103.9657128 -0.296054E-06  0.131E-03    1.48       9.4  T
   5   -103.9657129 -0.812342E-07  0.430E-04    1.48      28.6  T
   6   -103.9657129 -0.434461E-08  0.133E-04    1.48      92.9  T
     SCC iter.                  ...        0 min,  0.069 sec
     gradient                   ...        0 min,  0.100 sec
 * total energy  :  -102.6710928 Eh     change       -0.5304850E-04 Eh
   gradient norm :     0.0042570 Eh/α   predicted    -0.3617550E-04 ( -31.81%)
   displ. norm   :     0.2072089 α      lambda       -0.7018552E-04
   maximum displ.:     0.1290478 α      in ANC's #7, #8, #12, ...

........................................................................
.............................. CYCLE   16 ..............................
........................................................................

 iter      E             dE          RMSdq      gap      omega  full diag
   1   -103.9661422 -0.103966E+03  0.309E-02    1.48       0.0  T
   2   -103.9661430 -0.818446E-06  0.176E-02    1.48       1.0  T
   3   -103.9661428  0.191609E-06  0.339E-03    1.48       3.6  T
   4   -103.9661431 -0.288590E-06  0.148E-03    1.48       8.3  T
   5   -103.9661432 -0.820268E-07  0.493E-04    1.48      25.0  T
   6   -103.9661432 -0.483791E-08  0.133E-04    1.48      92.4  T
     SCC iter.                  ...        0 min,  0.030 sec
     gradient                   ...        0 min,  0.091 sec
 * total energy  :  -102.6711485 Eh     change       -0.5572048E-04 Eh
   gradient norm :     0.0036706 Eh/α   predicted    -0.3660038E-04 ( -34.31%)
   displ. norm   :     0.2291758 α      lambda       -0.7006669E-04
   maximum displ.:     0.1435105 α      in ANC's #7, #8, #12, ...

........................................................................
.............................. CYCLE   17 ..............................
........................................................................

 iter      E             dE          RMSdq      gap      omega  full diag
   1   -103.9662456 -0.103966E+03  0.330E-02    1.48       0.0  T
   2   -103.9662468 -0.116436E-05  0.187E-02    1.48       1.0  T
   3   -103.9662466  0.134565E-06  0.396E-03    1.48       3.1  T
   4   -103.9662469 -0.245826E-06  0.165E-03    1.48       7.4  T
   5   -103.9662470 -0.101498E-06  0.594E-04    1.48      20.7  T
   6   -103.9662470 -0.756268E-08  0.145E-04    1.48      84.8  T
     SCC iter.                  ...        0 min,  0.051 sec
     gradient                   ...        0 min,  0.061 sec
 * total energy  :  -102.6712013 Eh     change       -0.5281703E-04 Eh
   gradient norm :     0.0032153 Eh/α   predicted    -0.3687432E-04 ( -30.18%)
   displ. norm   :     0.2117630 α      lambda       -0.5051460E-04
   maximum displ.:     0.1334767 α      in ANC's #7, #8, #12, ...

........................................................................
.............................. CYCLE   18 ..............................
........................................................................

 iter      E             dE          RMSdq      gap      omega  full diag
   1   -103.9658972 -0.103966E+03  0.293E-02    1.48       0.0  T
   2   -103.9658980 -0.832808E-06  0.166E-02    1.48       1.0  T
   3   -103.9658980  0.879727E-07  0.328E-03    1.48       3.7  T
   4   -103.9658981 -0.190184E-06  0.133E-03    1.48       9.3  T
   5   -103.9658982 -0.595444E-07  0.484E-04    1.48      25.4  T
   6   -103.9658982 -0.519935E-08  0.114E-04    1.48     108.0  T
     SCC iter.                  ...        0 min,  0.029 sec
     gradient                   ...        0 min,  0.094 sec
 * total energy  :  -102.6712396 Eh     change       -0.3823928E-04 Eh
   gradient norm :     0.0031240 Eh/α   predicted    -0.2639232E-04 ( -30.98%)
   displ. norm   :     0.1934021 α      lambda       -0.4208856E-04
   maximum displ.:     0.1220129 α      in ANC's #7, #8, #12, ...

........................................................................
.............................. CYCLE   19 ..............................
........................................................................

 iter      E             dE          RMSdq      gap      omega  full diag
   1   -103.9658228 -0.103966E+03  0.258E-02    1.47       0.0  T
   2   -103.9658233 -0.547377E-06  0.147E-02    1.48       1.0  T
   3   -103.9658233  0.680591E-07  0.244E-03    1.48       5.0  T
   4   -103.9658234 -0.125978E-06  0.117E-03    1.48      10.5  T
   5   -103.9658235 -0.534351E-07  0.439E-04    1.48      28.0  T
   6   -103.9658235 -0.604675E-08  0.113E-04    1.48     108.7  T
     SCC iter.                  ...        0 min,  0.068 sec
     gradient                   ...        0 min,  0.099 sec
 * total energy  :  -102.6712718 Eh     change       -0.3225819E-04 Eh
   gradient norm :     0.0028226 Eh/α   predicted    -0.2183358E-04 ( -32.32%)
   displ. norm   :     0.2060198 α      lambda       -0.4265598E-04
   maximum displ.:     0.1293530 α      in ANC's #7, #8, #4, ...

........................................................................
.............................. CYCLE   20 ..............................
........................................................................

 iter      E             dE          RMSdq      gap      omega  full diag
   1   -103.9654775 -0.103965E+03  0.270E-02    1.47       0.0  T
   2   -103.9654780 -0.537165E-06  0.155E-02    1.47       1.0  T
   3   -103.9654779  0.129653E-06  0.251E-03    1.47       4.9  T
   4   -103.9654781 -0.204967E-06  0.124E-03    1.47      10.0  T
   5   -103.9654781 -0.531989E-07  0.422E-04    1.47      29.2  T
   6   -103.9654781 -0.356694E-08  0.128E-04    1.47      96.2  T
     SCC iter.                  ...        0 min,  0.077 sec
     gradient                   ...        0 min,  0.098 sec
 * total energy  :  -102.6713040 Eh     change       -0.3211295E-04 Eh
   gradient norm :     0.0024720 Eh/α   predicted    -0.2223428E-04 ( -30.76%)
   displ. norm   :     0.2070063 α      lambda       -0.4174707E-04
   maximum displ.:     0.1278321 α      in ANC's #7, #8, #4, ...
 * RMSD in coord.:     0.4282841 α      energy gain  -0.2001683E-01 Eh

generating ANC from exact Hessian ...
Using Lindh-Hessian (1995)
 Shifting diagonal of input Hessian by    9.9033537414923867E-003
 Lowest  eigenvalues of input Hessian
    0.000000    0.000000    0.000000    0.000000    0.000000    0.000000
    0.010000    0.010061    0.010134    0.010446    0.010858    0.011084
    0.011115    0.011639    0.011891    0.012042    0.012311    0.012816
 Highest eigenvalues
    2.100541    2.202322    2.353129    2.436358    2.712998    3.515300


........................................................................
.............................. CYCLE   21 ..............................
........................................................................

 iter      E             dE          RMSdq      gap      omega  full diag
   1   -103.9654996 -0.103965E+03  0.273E-02    1.46       0.0  T
   2   -103.9655002 -0.533264E-06  0.158E-02    1.47       1.0  T
   3   -103.9654998  0.338348E-06  0.295E-03    1.47       4.2  T
   4   -103.9655003 -0.430527E-06  0.136E-03    1.47       9.0  T
   5   -103.9655003 -0.686504E-07  0.440E-04    1.47      27.9  T
   6   -103.9655003 -0.246300E-08  0.139E-04    1.47      88.7  T
     SCC iter.                  ...        0 min,  0.064 sec
     gradient                   ...        0 min,  0.112 sec
 * total energy  :  -102.6713355 Eh     change       -0.3149942E-04 Eh
   gradient norm :     0.0025079 Eh/α   predicted     0.0000000E+00 (-100.00%)
   displ. norm   :     0.0253918 α      lambda       -0.1599013E-04
   maximum displ.:     0.0133647 α      in ANC's #4, #13, #10, ...

........................................................................
.............................. CYCLE   22 ..............................
........................................................................

 iter      E             dE          RMSdq      gap      omega  full diag
   1   -103.9660767 -0.103966E+03  0.609E-03    1.47       0.0  T
   2   -103.9660767 -0.405313E-07  0.350E-03    1.47       3.5  T
   3   -103.9660767  0.115769E-07  0.749E-04    1.47      16.4  T
   4   -103.9660767 -0.167064E-07  0.263E-04    1.47      46.7  T
     SCC iter.                  ...        0 min,  0.059 sec
     gradient                   ...        0 min,  0.100 sec
 * total energy  :  -102.6713502 Eh     change       -0.1477744E-04 Eh
   gradient norm :     0.0014863 Eh/α   predicted    -0.8658843E-05 ( -41.40%)
   displ. norm   :     0.1380328 α      lambda       -0.4143696E-04
   maximum displ.:     0.0745796 α      in ANC's #4, #13, #10, ...

........................................................................
.............................. CYCLE   23 ..............................
........................................................................

 iter      E             dE          RMSdq      gap      omega  full diag
   1   -103.9671662 -0.103967E+03  0.285E-02    1.47       0.0  T
   2   -103.9671669 -0.717029E-06  0.163E-02    1.47       1.0  T
   3   -103.9671667  0.196500E-06  0.328E-03    1.47       3.8  T
   4   -103.9671670 -0.283857E-06  0.127E-03    1.47       9.7  T
   5   -103.9671671 -0.663660E-07  0.520E-04    1.47      23.7  T
   6   -103.9671671 -0.468656E-08  0.154E-04    1.47      79.9  T
     SCC iter.                  ...        0 min,  0.078 sec
     gradient                   ...        0 min,  0.100 sec
 * total energy  :  -102.6713777 Eh     change       -0.2746998E-04 Eh
   gradient norm :     0.0027576 Eh/α   predicted    -0.2089410E-04 ( -23.94%)
   displ. norm   :     0.0243779 α      lambda       -0.1051721E-04
   maximum displ.:     0.0147317 α      in ANC's #4, #18, #10, ...

........................................................................
.............................. CYCLE   24 ..............................
........................................................................

 iter      E             dE          RMSdq      gap      omega  full diag
   1   -103.9668222 -0.103967E+03  0.400E-03    1.47       0.0  T
   2   -103.9668222 -0.188710E-07  0.230E-03    1.47       5.4  T
   3   -103.9668222  0.428504E-08  0.539E-04    1.47      22.8  T
   4   -103.9668223 -0.676374E-08  0.224E-04    1.47      54.9  T
     SCC iter.                  ...        0 min,  0.020 sec
     gradient                   ...        0 min,  0.093 sec
 * total energy  :  -102.6713871 Eh     change       -0.9408772E-05 Eh
   gradient norm :     0.0020106 Eh/α   predicted    -0.5261956E-05 ( -44.07%)
   displ. norm   :     0.1238498 α      lambda       -0.4068842E-04
   maximum displ.:     0.0707456 α      in ANC's #4, #18, #10, ...

........................................................................
.............................. CYCLE   25 ..............................
........................................................................

 iter      E             dE          RMSdq      gap      omega  full diag
   1   -103.9655868 -0.103966E+03  0.190E-02    1.47       0.0  T
   2   -103.9655871 -0.327803E-06  0.110E-02    1.47       1.1  T
   3   -103.9655870  0.826618E-07  0.224E-03    1.47       5.5  T
   4   -103.9655872 -0.130461E-06  0.922E-04    1.47      13.4  T
   5   -103.9655872 -0.239953E-07  0.384E-04    1.47      32.1  T
     SCC iter.                  ...        0 min,  0.052 sec
     gradient                   ...        0 min,  0.061 sec
 * total energy  :  -102.6714133 Eh     change       -0.2614183E-04 Eh
   gradient norm :     0.0015923 Eh/α   predicted    -0.2080453E-04 ( -20.42%)
   displ. norm   :     0.1440652 α      lambda       -0.1449651E-04
   maximum displ.:     0.0826064 α      in ANC's #4, #18, #10, ...

........................................................................
.............................. CYCLE   26 ..............................
........................................................................

 iter      E             dE          RMSdq      gap      omega  full diag
   1   -103.9651181 -0.103965E+03  0.207E-02    1.46       0.0  T
   2   -103.9651183 -0.241859E-06  0.121E-02    1.46       1.0  T
   3   -103.9651183  0.572136E-07  0.184E-03    1.46       6.7  T
   4   -103.9651184 -0.107966E-06  0.775E-04    1.46      15.9  T
   5   -103.9651184 -0.166967E-07  0.299E-04    1.46      41.2  T
     SCC iter.                  ...        0 min,  0.025 sec
     gradient                   ...        0 min,  0.089 sec
 * total energy  :  -102.6714282 Eh     change       -0.1498568E-04 Eh
   gradient norm :     0.0026943 Eh/α   predicted    -0.7318347E-05 ( -51.16%)
   displ. norm   :     0.0936490 α      lambda       -0.1720676E-04
   maximum displ.:     0.0542103 α      in ANC's #4, #18, #10, ...

........................................................................
.............................. CYCLE   27 ..............................
........................................................................

 iter      E             dE          RMSdq      gap      omega  full diag
   1   -103.9654886 -0.103965E+03  0.133E-02    1.46       0.0  T
   2   -103.9654887 -0.897362E-07  0.783E-03    1.46       1.6  T
   3   -103.9654887  0.448219E-07  0.122E-03    1.46      10.1  T
   4   -103.9654887 -0.695937E-07  0.392E-04    1.46      31.4  T
   5   -103.9654887 -0.254342E-08  0.178E-04    1.46      69.0  T
     SCC iter.                  ...        0 min,  0.025 sec
     gradient                   ...        0 min,  0.080 sec
 * total energy  :  -102.6714432 Eh     change       -0.1493296E-04 Eh
   gradient norm :     0.0021901 Eh/α   predicted    -0.8682104E-05 ( -41.86%)
   displ. norm   :     0.2251695 α      lambda       -0.3847097E-04
   maximum displ.:     0.1300340 α      in ANC's #4, #18, #6, ...

........................................................................
.............................. CYCLE   28 ..............................
........................................................................

 iter      E             dE          RMSdq      gap      omega  full diag
   1   -103.9659255 -0.103966E+03  0.314E-02    1.46       0.0  T
   2   -103.9659260 -0.463718E-06  0.185E-02    1.46       1.0  T
   3   -103.9659257  0.342984E-06  0.301E-03    1.46       4.1  T
   4   -103.9659261 -0.485634E-06  0.930E-04    1.46      13.2  T
   5   -103.9659262 -0.124966E-07  0.433E-04    1.46      28.4  T
     SCC iter.                  ...        0 min,  0.050 sec
     gradient                   ...        0 min,  0.090 sec
 * total energy  :  -102.6714704 Eh     change       -0.2724334E-04 Eh
   gradient norm :     0.0018412 Eh/α   predicted    -0.2021129E-04 ( -25.81%)
   displ. norm   :     0.2577121 α      lambda       -0.2543599E-04
   maximum displ.:     0.1505830 α      in ANC's #4, #18, #7, ...

........................................................................
.............................. CYCLE   29 ..............................
........................................................................

 iter      E             dE          RMSdq      gap      omega  full diag
   1   -103.9662308 -0.103966E+03  0.350E-02    1.46       0.0  T
   2   -103.9662314 -0.541998E-06  0.205E-02    1.46       1.0  T
   3   -103.9662310  0.401439E-06  0.328E-03    1.46       3.8  T
   4   -103.9662315 -0.564192E-06  0.113E-03    1.46      10.9  T
   5   -103.9662316 -0.203803E-07  0.479E-04    1.46      25.7  T
   6   -103.9662316 -0.987956E-08  0.153E-04    1.46      80.2  T
     SCC iter.                  ...        0 min,  0.029 sec
     gradient                   ...        0 min,  0.088 sec
 * total energy  :  -102.6714956 Eh     change       -0.2513702E-04 Eh
   gradient norm :     0.0026147 Eh/α   predicted    -0.1309474E-04 ( -47.91%)
   displ. norm   :     0.1121532 α      lambda       -0.3284138E-04
   maximum displ.:     0.0609301 α      in ANC's #4, #18, #1, ...

........................................................................
.............................. CYCLE   30 ..............................
........................................................................

 iter      E             dE          RMSdq      gap      omega  full diag
   1   -103.9673655 -0.103967E+03  0.164E-02    1.46       0.0  T
   2   -103.9673658 -0.343248E-06  0.942E-03    1.46       1.3  T
   3   -103.9673658  0.425588E-07  0.188E-03    1.46       6.5  T
   4   -103.9673658 -0.688102E-07  0.835E-04    1.46      14.7  T
   5   -103.9673659 -0.265544E-07  0.309E-04    1.46      39.9  T
     SCC iter.                  ...        0 min,  0.058 sec
     gradient                   ...        0 min,  0.092 sec
 * total energy  :  -102.6715178 Eh     change       -0.2227168E-04 Eh
   gradient norm :     0.0023362 Eh/α   predicted    -0.1662732E-04 ( -25.34%)
   displ. norm   :     0.4004845 α      lambda       -0.6169062E-04
   maximum displ.:     0.2260943 α      in ANC's #4, #18, #6, ...

........................................................................
.............................. CYCLE   31 ..............................
........................................................................

 iter      E             dE          RMSdq      gap      omega  full diag
   1   -103.9649807 -0.103965E+03  0.533E-02    1.46       0.0  T
   2   -103.9649823 -0.155883E-05  0.312E-02    1.46       1.0  T
   3   -103.9649820  0.228135E-06  0.397E-03    1.46       3.1  T
   4   -103.9649825 -0.462778E-06  0.199E-03    1.46       6.2  T
   5   -103.9649826 -0.131242E-06  0.756E-04    1.46      16.3  T
   6   -103.9649826 -0.154992E-07  0.238E-04    1.46      51.7  T
     SCC iter.                  ...        0 min,  0.029 sec
     gradient                   ...        0 min,  0.093 sec
 * total energy  :  -102.6715453 Eh     change       -0.2749837E-04 Eh
   gradient norm :     0.0047230 Eh/α   predicted    -0.3579863E-04 (  30.18%)
   displ. norm   :     0.0958483 α      lambda       -0.4972821E-04
   maximum displ.:     0.0520023 α      in ANC's #4, #18, #10, ...

........................................................................
.............................. CYCLE   32 ..............................
........................................................................

 iter      E             dE          RMSdq      gap      omega  full diag
   1   -103.9665600 -0.103967E+03  0.163E-02    1.46       0.0  T
   2   -103.9665606 -0.557735E-06  0.937E-03    1.46       1.3  T
   3   -103.9665605  0.719310E-07  0.216E-03    1.46       5.7  T
   4   -103.9665606 -0.121888E-06  0.763E-04    1.46      16.1  T
   5   -103.9665607 -0.211839E-07  0.325E-04    1.46      37.9  T
     SCC iter.                  ...        0 min,  0.054 sec
     gradient                   ...        0 min,  0.061 sec
 * total energy  :  -102.6715724 Eh     change       -0.2710683E-04 Eh
   gradient norm :     0.0019769 Eh/α   predicted    -0.2509778E-04 (  -7.41%)
   displ. norm   :     0.2530197 α      lambda       -0.3295798E-04
   maximum displ.:     0.1284866 α      in ANC's #18, #4, #1, ...

........................................................................
.............................. CYCLE   33 ..............................
........................................................................

 iter      E             dE          RMSdq      gap      omega  full diag
   1   -103.9659944 -0.103966E+03  0.346E-02    1.46       0.0  T
   2   -103.9659951 -0.685914E-06  0.202E-02    1.46       1.0  T
   3   -103.9659951  0.543618E-07  0.295E-03    1.47       4.2  T
   4   -103.9659953 -0.188080E-06  0.128E-03    1.47       9.6  T
   5   -103.9659953 -0.239968E-07  0.505E-04    1.47      24.4  T
   6   -103.9659953 -0.944600E-08  0.147E-04    1.47      83.9  T
     SCC iter.                  ...        0 min,  0.029 sec
     gradient                   ...        0 min,  0.092 sec
 * total energy  :  -102.6716053 Eh     change       -0.3283900E-04 Eh
   gradient norm :     0.0025255 Eh/α   predicted    -0.1694814E-04 ( -48.39%)
   displ. norm   :     0.1143522 α      lambda       -0.1975106E-04
   maximum displ.:     0.0601769 α      in ANC's #18, #4, #1, ...

........................................................................
.............................. CYCLE   34 ..............................
........................................................................

 iter      E             dE          RMSdq      gap      omega  full diag
   1   -103.9658273 -0.103966E+03  0.153E-02    1.47       0.0  T
   2   -103.9658275 -0.153083E-06  0.895E-03    1.47       1.4  T
   3   -103.9658274  0.560517E-07  0.156E-03    1.47       7.9  T
   4   -103.9658275 -0.829219E-07  0.636E-04    1.47      19.4  T
   5   -103.9658275 -0.111769E-07  0.257E-04    1.47      47.9  T
     SCC iter.                  ...        0 min,  0.064 sec
     gradient                   ...        0 min,  0.093 sec
 * total energy  :  -102.6716212 Eh     change       -0.1591939E-04 Eh
   gradient norm :     0.0025141 Eh/α   predicted    -0.1000961E-04 ( -37.12%)
   displ. norm   :     0.1684119 α      lambda       -0.4038749E-04
   maximum displ.:     0.0825302 α      in ANC's #18, #5, #4, ...

........................................................................
.............................. CYCLE   35 ..............................
........................................................................

 iter      E             dE          RMSdq      gap      omega  full diag
   1   -103.9663569 -0.103966E+03  0.252E-02    1.47       0.0  T
   2   -103.9663577 -0.747659E-06  0.145E-02    1.47       1.0  T
   3   -103.9663572  0.468813E-06  0.399E-03    1.47       3.1  T
   4   -103.9663578 -0.605099E-06  0.148E-03    1.47       8.3  T
   5   -103.9663579 -0.696645E-07  0.571E-04    1.47      21.6  T
   6   -103.9663579 -0.933267E-08  0.198E-04    1.47      62.0  T
     SCC iter.                  ...        0 min,  0.029 sec
     gradient                   ...        0 min,  0.088 sec
 * total energy  :  -102.6716459 Eh     change       -0.2475532E-04 Eh
   gradient norm :     0.0019050 Eh/α   predicted    -0.2076935E-04 ( -16.10%)
   displ. norm   :     0.0994983 α      lambda       -0.1396584E-04
   maximum displ.:     0.0503127 α      in ANC's #18, #5, #4, ...

........................................................................
.............................. CYCLE   36 ..............................
........................................................................

 iter      E             dE          RMSdq      gap      omega  full diag
   1   -103.9663667 -0.103966E+03  0.147E-02    1.47       0.0  T
   2   -103.9663670 -0.280309E-06  0.856E-03    1.47       1.4  T
   3   -103.9663669  0.136292E-06  0.225E-03    1.47       5.5  T
   4   -103.9663670 -0.171626E-06  0.879E-04    1.46      14.0  T
   5   -103.9663671 -0.318495E-07  0.348E-04    1.47      35.4  T
     SCC iter.                  ...        0 min,  0.052 sec
     gradient                   ...        0 min,  0.091 sec
 * total energy  :  -102.6716616 Eh     change       -0.1567283E-04 Eh
   gradient norm :     0.0021619 Eh/α   predicted    -0.7016131E-05 ( -55.23%)
   displ. norm   :     0.0715957 α      lambda       -0.2401577E-04
   maximum displ.:     0.0395098 α      in ANC's #5, #9, #8, ...

........................................................................
.............................. CYCLE   37 ..............................
........................................................................

 iter      E             dE          RMSdq      gap      omega  full diag
   1   -103.9669755 -0.103967E+03  0.123E-02    1.47       0.0  T
   2   -103.9669758 -0.247861E-06  0.721E-03    1.46       1.7  T
   3   -103.9669757  0.876116E-07  0.188E-03    1.46       6.5  T
   4   -103.9669758 -0.117928E-06  0.675E-04    1.46      18.2  T
   5   -103.9669758 -0.191398E-07  0.279E-04    1.46      44.1  T
     SCC iter.                  ...        0 min,  0.025 sec
     gradient                   ...        0 min,  0.094 sec
 * total energy  :  -102.6716778 Eh     change       -0.1615051E-04 Eh
   gradient norm :     0.0020149 Eh/α   predicted    -0.1207347E-04 ( -25.24%)
   displ. norm   :     0.2507720 α      lambda       -0.4462610E-04
   maximum displ.:     0.1289903 α      in ANC's #18, #4, #5, ...

........................................................................
.............................. CYCLE   38 ..............................
........................................................................

 iter      E             dE          RMSdq      gap      omega  full diag
   1   -103.9649580 -0.103965E+03  0.332E-02    1.46       0.0  T
   2   -103.9649592 -0.117623E-05  0.195E-02    1.46       1.0  T
   3   -103.9649589  0.289780E-06  0.361E-03    1.46       3.4  T
   4   -103.9649594 -0.463116E-06  0.126E-03    1.46       9.7  T
   5   -103.9649594 -0.536660E-07  0.575E-04    1.46      21.4  T
   6   -103.9649595 -0.408501E-08  0.177E-04    1.46      69.5  T
     SCC iter.                  ...        0 min,  0.056 sec
     gradient                   ...        0 min,  0.058 sec
 * total energy  :  -102.6716901 Eh     change       -0.1231245E-04 Eh
   gradient norm :     0.0048889 Eh/α   predicted    -0.2371676E-04 (  92.62%)
   displ. norm   :     0.0617596 α      lambda       -0.3120421E-04
   maximum displ.:     0.0349287 α      in ANC's #4, #18, #1, ...

........................................................................
.............................. CYCLE   39 ..............................
........................................................................

 iter      E             dE          RMSdq      gap      omega  full diag
   1   -103.9663543 -0.103966E+03  0.103E-02    1.46       0.0  T
   2   -103.9663546 -0.300522E-06  0.597E-03    1.46       2.1  T
   3   -103.9663546 -0.352004E-08  0.138E-03    1.46       8.9  T
   4   -103.9663546 -0.166803E-07  0.430E-04    1.46      28.6  T
   5   -103.9663546 -0.505476E-08  0.220E-04    1.46      56.0  T
     SCC iter.                  ...        0 min,  0.025 sec
     gradient                   ...        0 min,  0.079 sec
 * total energy  :  -102.6717091 Eh     change       -0.1903183E-04 Eh
   gradient norm :     0.0026764 Eh/α   predicted    -0.1566633E-04 ( -17.68%)
   displ. norm   :     0.0851527 α      lambda       -0.2203025E-04
   maximum displ.:     0.0432243 α      in ANC's #5, #18, #6, ...

........................................................................
.............................. CYCLE   40 ..............................
........................................................................

 iter      E             dE          RMSdq      gap      omega  full diag
   1   -103.9668058 -0.103967E+03  0.127E-02    1.46       0.0  T
   2   -103.9668060 -0.204836E-06  0.734E-03    1.46       1.7  T
   3   -103.9668059  0.815308E-07  0.180E-03    1.46       6.8  T
   4   -103.9668060 -0.115585E-06  0.592E-04    1.46      20.8  T
   5   -103.9668061 -0.926549E-08  0.268E-04    1.46      46.0  T
     SCC iter.                  ...        0 min,  0.025 sec
     gradient                   ...        0 min,  0.094 sec
 * total energy  :  -102.6717277 Eh     change       -0.1863739E-04 Eh
   gradient norm :     0.0017765 Eh/α   predicted    -0.1109674E-04 ( -40.46%)
   displ. norm   :     0.4616731 α      lambda       -0.5392795E-04
   maximum displ.:     0.2281558 α      in ANC's #18, #5, #6, ...

........................................................................
.............................. CYCLE   41 ..............................
........................................................................

 iter      E             dE          RMSdq      gap      omega  full diag
   1   -103.9649406 -0.103965E+03  0.646E-02    1.46       0.0  T
   2   -103.9649441 -0.351612E-05  0.374E-02    1.46       1.0  T
   3   -103.9649428  0.128000E-05  0.758E-03    1.46       1.6  T
   4   -103.9649448 -0.196665E-05  0.278E-03    1.46       4.4  T
   5   -103.9649449 -0.174085E-06  0.116E-03    1.46      10.6  T
   6   -103.9649450 -0.375161E-07  0.337E-04    1.46      36.5  T
   7   -103.9649450 -0.396942E-08  0.156E-04    1.46      78.7  T
     SCC iter.                  ...        0 min,  0.062 sec
     gradient                   ...        0 min,  0.092 sec
 * total energy  :  -102.6717469 Eh     change       -0.1915231E-04 Eh
   gradient norm :     0.0048037 Eh/α   predicted    -0.2952594E-04 (  54.16%)
   displ. norm   :     0.1207289 α      lambda       -0.4477917E-04
   maximum displ.:     0.0648341 α      in ANC's #18, #4, #5, ...

........................................................................
.............................. CYCLE   42 ..............................
........................................................................

 iter      E             dE          RMSdq      gap      omega  full diag
   1   -103.9668139 -0.103967E+03  0.175E-02    1.46       0.0  T
   2   -103.9668144 -0.548879E-06  0.101E-02    1.46       1.2  T
   3   -103.9668143  0.101663E-06  0.238E-03    1.46       5.2  T
   4   -103.9668145 -0.160021E-06  0.806E-04    1.46      15.3  T
   5   -103.9668145 -0.246886E-07  0.392E-04    1.46      31.4  T
     SCC iter.                  ...        0 min,  0.025 sec
     gradient                   ...        0 min,  0.082 sec
 * total energy  :  -102.6717676 Eh     change       -0.2070439E-04 Eh
   gradient norm :     0.0016630 Eh/α   predicted    -0.2271229E-04 (   9.70%)
   displ. norm   :     0.0535208 α      lambda       -0.7322395E-05
   maximum displ.:     0.0277725 α      in ANC's #5, #18, #1, ...
 * RMSD in coord.:     0.2867485 α      energy gain  -0.4636488E-03 Eh

generating ANC from exact Hessian ...
Using Lindh-Hessian (1995)
 Shifting diagonal of input Hessian by    9.9067292908187315E-003
 Lowest  eigenvalues of input Hessian
    0.000000    0.000000    0.000000    0.000000    0.000000    0.000000
    0.010000    0.010065    0.010129    0.010476    0.010912    0.011102
    0.011128    0.011644    0.011931    0.012039    0.012346    0.012850
 Highest eigenvalues
    2.100053    2.201873    2.352772    2.435289    2.717228    3.524948


........................................................................
.............................. CYCLE   43 ..............................
........................................................................

 iter      E             dE          RMSdq      gap      omega  full diag
   1   -103.9667972 -0.103967E+03  0.778E-03    1.46       0.0  T
   2   -103.9667973 -0.779943E-07  0.461E-03    1.46       2.7  T
   3   -103.9667972  0.210415E-07  0.994E-04    1.46      12.4  T
   4   -103.9667973 -0.312935E-07  0.383E-04    1.46      32.2  T
     SCC iter.                  ...        0 min,  0.059 sec
     gradient                   ...        0 min,  0.098 sec
 * total energy  :  -102.6717767 Eh     change       -0.9133570E-05 Eh
   gradient norm :     0.0009146 Eh/α   predicted     0.0000000E+00 (-100.00%)
   displ. norm   :     0.0238235 α      lambda       -0.5038985E-05
   maximum displ.:     0.0134177 α      in ANC's #18, #12, #10, ...

........................................................................
.............................. CYCLE   44 ..............................
........................................................................

 iter      E             dE          RMSdq      gap      omega  full diag
   1   -103.9670694 -0.103967E+03  0.425E-03    1.46       0.0  T
   2   -103.9670694 -0.324908E-07  0.247E-03    1.46       5.0  T
   3   -103.9670694  0.155374E-07  0.694E-04    1.46      17.7  T
   4   -103.9670694 -0.207283E-07  0.215E-04    1.46      57.3  T
     SCC iter.                  ...        0 min,  0.020 sec
     gradient                   ...        0 min,  0.109 sec
 * total energy  :  -102.6717836 Eh     change       -0.6821000E-05 Eh
   gradient norm :     0.0005160 Eh/α   predicted    -0.2606153E-05 ( -61.79%)
   displ. norm   :     0.1471652 α      lambda       -0.2504081E-04
   maximum displ.:     0.0845882 α      in ANC's #18, #12, #10, ...

........................................................................
.............................. CYCLE   45 ..............................
........................................................................

 iter      E             dE          RMSdq      gap      omega  full diag
   1   -103.9671532 -0.103967E+03  0.233E-02    1.46       0.0  T
   2   -103.9671537 -0.543322E-06  0.137E-02    1.46       1.0  T
   3   -103.9671533  0.379865E-06  0.325E-03    1.46       3.8  T
   4   -103.9671539 -0.516952E-06  0.955E-04    1.46      12.9  T
   5   -103.9671539 -0.285549E-07  0.473E-04    1.46      26.0  T
     SCC iter.                  ...        0 min,  0.058 sec
     gradient                   ...        0 min,  0.104 sec
 * total energy  :  -102.6718107 Eh     change       -0.2714205E-04 Eh
   gradient norm :     0.0013888 Eh/α   predicted    -0.1264110E-04 ( -53.43%)
   displ. norm   :     0.1829711 α      lambda       -0.1975102E-04
   maximum displ.:     0.1125844 α      in ANC's #18, #12, #10, ...

........................................................................
.............................. CYCLE   46 ..............................
........................................................................

 iter      E             dE          RMSdq      gap      omega  full diag
   1   -103.9663061 -0.103966E+03  0.282E-02    1.46       0.0  T
   2   -103.9663067 -0.650530E-06  0.166E-02    1.46       1.0  T
   3   -103.9663061  0.609266E-06  0.384E-03    1.46       3.2  T
   4   -103.9663069 -0.818666E-06  0.100E-03    1.46      12.3  T
   5   -103.9663069 -0.233729E-07  0.522E-04    1.46      23.6  T
   6   -103.9663069 -0.620108E-08  0.165E-04    1.46      74.7  T
     SCC iter.                  ...        0 min,  0.081 sec
     gradient                   ...        0 min,  0.099 sec
 * total energy  :  -102.6718290 Eh     change       -0.1825744E-04 Eh
   gradient norm :     0.0020338 Eh/α   predicted    -0.1002286E-04 ( -45.10%)
   displ. norm   :     0.0537046 α      lambda       -0.9520106E-05
   maximum displ.:     0.0346767 α      in ANC's #18, #12, #10, ...

........................................................................
.............................. CYCLE   47 ..............................
........................................................................

 iter      E             dE          RMSdq      gap      omega  full diag
   1   -103.9663738 -0.103966E+03  0.819E-03    1.46       0.0  T
   2   -103.9663738 -0.420585E-07  0.484E-03    1.46       2.5  T
   3   -103.9663738  0.643615E-07  0.110E-03    1.46      11.1  T
   4   -103.9663739 -0.806263E-07  0.264E-04    1.46      46.6  T
   5   -103.9663739 -0.118033E-08  0.136E-04    1.46      90.7  T
     SCC iter.                  ...        0 min,  0.073 sec
     gradient                   ...        0 min,  0.105 sec
 * total energy  :  -102.6718370 Eh     change       -0.8027612E-05 Eh
   gradient norm :     0.0016829 Eh/α   predicted    -0.4776520E-05 ( -40.50%)
   displ. norm   :     0.1901847 α      lambda       -0.2316270E-04
   maximum displ.:     0.1262840 α      in ANC's #18, #12, #8, ...

........................................................................
.............................. CYCLE   48 ..............................
........................................................................

 iter      E             dE          RMSdq      gap      omega  full diag
   1   -103.9663685 -0.103966E+03  0.289E-02    1.45       0.0  T
   2   -103.9663690 -0.486820E-06  0.171E-02    1.45       1.0  T
   3   -103.9663681  0.820289E-06  0.395E-03    1.45       3.1  T
   4   -103.9663691 -0.100485E-05  0.964E-04    1.46      12.8  T
   5   -103.9663692 -0.188892E-07  0.462E-04    1.45      26.6  T
   6   -103.9663692 -0.292540E-08  0.175E-04    1.45      70.5  T
     SCC iter.                  ...        0 min,  0.029 sec
     gradient                   ...        0 min,  0.143 sec
 * total energy  :  -102.6718533 Eh     change       -0.1629021E-04 Eh
   gradient norm :     0.0022791 Eh/α   predicted    -0.1179388E-04 ( -27.60%)
   displ. norm   :     0.0296199 α      lambda       -0.9591578E-05
   maximum displ.:     0.0144262 α      in ANC's #12, #10, #18, ...

........................................................................
.............................. CYCLE   49 ..............................
........................................................................

 iter      E             dE          RMSdq      gap      omega  full diag
   1   -103.9669907 -0.103967E+03  0.584E-03    1.46       0.0  T
   2   -103.9669908 -0.954067E-07  0.329E-03    1.46       3.7  T
   3   -103.9669908  0.204357E-07  0.106E-03    1.46      11.6  T
   4   -103.9669908 -0.331065E-07  0.378E-04    1.46      32.6  T
   5   -103.9669908 -0.564232E-08  0.159E-04    1.46      77.3  T
     SCC iter.                  ...        0 min,  0.025 sec
     gradient                   ...        0 min,  0.093 sec
 * total energy  :  -102.6718592 Eh     change       -0.5951476E-05 Eh
   gradient norm :     0.0016233 Eh/α   predicted    -0.4800781E-05 ( -19.33%)
   displ. norm   :     0.0826174 α      lambda       -0.1252220E-04
   maximum displ.:     0.0533339 α      in ANC's #18, #8, #6, ...

........................................................................
.............................. CYCLE   50 ..............................
........................................................................

 iter      E             dE          RMSdq      gap      omega  full diag
   1   -103.9668931 -0.103967E+03  0.124E-02    1.46       0.0  T
   2   -103.9668932 -0.110810E-06  0.719E-03    1.46       1.7  T
   3   -103.9668932  0.618795E-07  0.141E-03    1.46       8.7  T
   4   -103.9668932 -0.786033E-07  0.569E-04    1.46      21.6  T
   5   -103.9668933 -0.112932E-07  0.205E-04    1.46      60.1  T
     SCC iter.                  ...        0 min,  0.064 sec
     gradient                   ...        0 min,  0.105 sec
 * total energy  :  -102.6718723 Eh     change       -0.1310182E-04 Eh
   gradient norm :     0.0011331 Eh/α   predicted    -0.6280369E-05 ( -52.06%)
   displ. norm   :     0.1451839 α      lambda       -0.1291215E-04
   maximum displ.:     0.0980902 α      in ANC's #18, #6, #8, ...

........................................................................
.............................. CYCLE   51 ..............................
........................................................................

 iter      E             dE          RMSdq      gap      omega  full diag
   1   -103.9663501 -0.103966E+03  0.207E-02    1.46       0.0  T
   2   -103.9663503 -0.194748E-06  0.123E-02    1.46       1.0  T
   3   -103.9663502  0.831798E-07  0.164E-03    1.46       7.5  T
   4   -103.9663503 -0.114451E-06  0.667E-04    1.46      18.5  T
   5   -103.9663503 -0.139714E-07  0.286E-04    1.46      43.1  T
     SCC iter.                  ...        0 min,  0.058 sec
     gradient                   ...        0 min,  0.113 sec
 * total energy  :  -102.6718824 Eh     change       -0.1009407E-04 Eh
   gradient norm :     0.0021053 Eh/α   predicted    -0.6519428E-05 ( -35.41%)
   displ. norm   :     0.0316992 α      lambda       -0.8100083E-05
   maximum displ.:     0.0141235 α      in ANC's #6, #18, #5, ...

........................................................................
.............................. CYCLE   52 ..............................
........................................................................

 iter      E             dE          RMSdq      gap      omega  full diag
   1   -103.9666618 -0.103967E+03  0.526E-03    1.46       0.0  T
   2   -103.9666619 -0.686225E-07  0.306E-03    1.46       4.0  T
   3   -103.9666618  0.420992E-07  0.114E-03    1.46      10.8  T
   4   -103.9666619 -0.587609E-07  0.266E-04    1.46      46.3  T
   5   -103.9666619 -0.284972E-08  0.124E-04    1.46      99.5  T
     SCC iter.                  ...        0 min,  0.070 sec
     gradient                   ...        0 min,  0.058 sec
 * total energy  :  -102.6718888 Eh     change       -0.6411683E-05 Eh
   gradient norm :     0.0015230 Eh/α   predicted    -0.4056003E-05 ( -36.74%)
   displ. norm   :     0.1664826 α      lambda       -0.1620720E-04
   maximum displ.:     0.1017184 α      in ANC's #18, #6, #24, ...

........................................................................
.............................. CYCLE   53 ..............................
........................................................................

 iter      E             dE          RMSdq      gap      omega  full diag
   1   -103.9664551 -0.103966E+03  0.224E-02    1.46       0.0  T
   2   -103.9664555 -0.380540E-06  0.133E-02    1.46       1.0  T
   3   -103.9664549  0.547616E-06  0.334E-03    1.46       3.7  T
   4   -103.9664556 -0.655172E-06  0.736E-04    1.46      16.7  T
   5   -103.9664556 -0.256573E-07  0.349E-04    1.46      35.3  T
     SCC iter.                  ...        0 min,  0.025 sec
     gradient                   ...        0 min,  0.106 sec
 * total energy  :  -102.6718993 Eh     change       -0.1046028E-04 Eh
   gradient norm :     0.0019616 Eh/α   predicted    -0.8204613E-05 ( -21.56%)
   displ. norm   :     0.0359945 α      lambda       -0.9992707E-05
   maximum displ.:     0.0156675 α      in ANC's #12, #5, #6, ...

........................................................................
.............................. CYCLE   54 ..............................
........................................................................

 iter      E             dE          RMSdq      gap      omega  full diag
   1   -103.9670970 -0.103967E+03  0.860E-03    1.46       0.0  T
   2   -103.9670972 -0.189888E-06  0.477E-03    1.46       2.6  T
   3   -103.9670972  0.377537E-07  0.147E-03    1.46       8.4  T
   4   -103.9670972 -0.569066E-07  0.572E-04    1.46      21.5  T
   5   -103.9670972 -0.129111E-07  0.223E-04    1.46      55.1  T
     SCC iter.                  ...        0 min,  0.058 sec
     gradient                   ...        0 min,  0.100 sec
 * total energy  :  -102.6719047 Eh     change       -0.5405200E-05 Eh
   gradient norm :     0.0011458 Eh/α   predicted    -0.5003656E-05 (  -7.43%)
   displ. norm   :     0.0749965 α      lambda       -0.7349860E-05
   maximum displ.:     0.0537384 α      in ANC's #18, #6, #12, ...

........................................................................
.............................. CYCLE   55 ..............................
........................................................................

 iter      E             dE          RMSdq      gap      omega  full diag
   1   -103.9666229 -0.103967E+03  0.111E-02    1.46       0.0  T
   2   -103.9666230 -0.112768E-06  0.655E-03    1.46       1.9  T
   3   -103.9666230  0.366378E-07  0.114E-03    1.46      10.8  T
   4   -103.9666230 -0.508052E-07  0.418E-04    1.46      29.5  T
   5   -103.9666230 -0.621570E-08  0.186E-04    1.46      66.3  T
     SCC iter.                  ...        0 min,  0.070 sec
     gradient                   ...        0 min,  0.100 sec
 * total energy  :  -102.6719114 Eh     change       -0.6648443E-05 Eh
   gradient norm :     0.0012772 Eh/α   predicted    -0.3695555E-05 ( -44.41%)
   displ. norm   :     0.0385273 α      lambda       -0.4535081E-05
   maximum displ.:     0.0225729 α      in ANC's #18, #1, #9, ...

........................................................................
.............................. CYCLE   56 ..............................
........................................................................

 iter      E             dE          RMSdq      gap      omega  full diag
   1   -103.9666868 -0.103967E+03  0.736E-03    1.46       0.0  T
   2   -103.9666869 -0.546378E-07  0.424E-03    1.46       2.9  T
   3   -103.9666868  0.456899E-07  0.112E-03    1.46      11.0  T
   4   -103.9666869 -0.601129E-07  0.357E-04    1.46      34.5  T
   5   -103.9666869 -0.282282E-08  0.168E-04    1.46      73.1  T
     SCC iter.                  ...        0 min,  0.025 sec
     gradient                   ...        0 min,  0.099 sec
 * total energy  :  -102.6719157 Eh     change       -0.4393748E-05 Eh
   gradient norm :     0.0011547 Eh/α   predicted    -0.2273586E-05 ( -48.25%)
   displ. norm   :     0.0625163 α      lambda       -0.3376692E-05
   maximum displ.:     0.0404438 α      in ANC's #18, #6, #1, ...

........................................................................
.............................. CYCLE   57 ..............................
........................................................................

 iter      E             dE          RMSdq      gap      omega  full diag
   1   -103.9666335 -0.103967E+03  0.818E-03    1.46       0.0  T
   2   -103.9666335 -0.231285E-07  0.488E-03    1.46       2.5  T
   3   -103.9666335  0.124622E-07  0.602E-04    1.46      20.4  T
   4   -103.9666335 -0.173774E-07  0.226E-04    1.46      54.5  T
     SCC iter.                  ...        0 min,  0.020 sec
     gradient                   ...        0 min,  0.107 sec
 * total energy  :  -102.6719196 Eh     change       -0.3838554E-05 Eh
   gradient norm :     0.0011060 Eh/α   predicted    -0.1694399E-05 ( -55.86%)
   displ. norm   :     0.0761311 α      lambda       -0.4755535E-05
   maximum displ.:     0.0447396 α      in ANC's #18, #1, #6, ...

........................................................................
.............................. CYCLE   58 ..............................
........................................................................

 iter      E             dE          RMSdq      gap      omega  full diag
   1   -103.9668866 -0.103967E+03  0.998E-03    1.46       0.0  T
   2   -103.9668867 -0.540907E-07  0.596E-03    1.46       2.1  T
   3   -103.9668866  0.471436E-07  0.970E-04    1.46      12.7  T
   4   -103.9668867 -0.586020E-07  0.278E-04    1.46      44.2  T
     SCC iter.                  ...        0 min,  0.059 sec
     gradient                   ...        0 min,  0.101 sec
 * total energy  :  -102.6719243 Eh     change       -0.4684480E-05 Eh
   gradient norm :     0.0007308 Eh/α   predicted    -0.2387141E-05 ( -49.04%)
   displ. norm   :     0.1307793 α      lambda       -0.3758479E-05
   maximum displ.:     0.0841817 α      in ANC's #18, #1, #6, ...

   *** GEOMETRY OPTIMIZATION CONVERGED AFTER 58 ITERATIONS ***

------------------------------------------------------------------------
 total energy gain   :        -0.0206371 Eh      -12.9500 kcal/mol
 total RMSD          :         0.6198366 a0        0.3280 Å
 total power (kW/mol):        -0.9341864 (step)   -5.7578 (real)
------------------------------------------------------------------------

 ANCopt (total)                0 d,  0 h,  0 min,  9.410 sec
 optimizer setup                ...        0 min,  0.000 sec (  0.001%)
 model hessian                  ...        0 min,  0.134 sec (  1.426%)
 ANC generation                 ...        0 min,  0.011 sec (  0.120%)
 coordinate transformation      ...        0 min,  0.001 sec (  0.011%)
 single point calculation       ...        0 min,  9.193 sec ( 97.692%)
 optimization log               ...        0 min,  0.032 sec (  0.345%)
 hessian update                 ...        0 min,  0.001 sec (  0.015%)
 rational function              ...        0 min,  0.007 sec (  0.071%)

================
 final structure:
================
66
 xtb: 6.7.1 (edcfbbe)
C           -6.84617862878945        2.07370371283915       -1.32135838799597
C           -6.02568533690533        1.09233518042405       -0.49522147070930
C           -5.51822076742882        1.73837563505852        0.80100403617655
C           -4.77376893677396        0.76170260243401        1.63574599021871
N           -5.28425181271180        0.03413414065497        2.60579615697119
C           -4.29973785888489       -0.75420825072906        3.09453663874343
C           -4.50796262020587       -1.70479684086611        4.21285957351741
C           -3.12928630972194       -0.50793793580184        2.39838665773693
N           -3.46739232811354        0.46182703659980        1.46663861130712
N           -2.52756543912018        0.96943763905617        0.61247458931560
C           -1.25271229279326        0.50579234757085        0.72154443195649
C           -0.22485721866946        1.08743366942475       -0.15885947433265
C           -0.48220457038875        1.62892892341742       -1.43417608142187
C            0.58398922949176        2.09457348798114       -2.20428282879537
C            1.87912668461029        2.03560060700917       -1.72523147555858
C            2.12332505145194        1.51755885662657       -0.46870555331458
S            3.81669136942439        1.43980200917206        0.11013980355299
O            4.56380038082290        2.46844533586392       -0.55324552820740
N            4.29498570806771       -0.03454351391126       -0.54405886411255
C            3.76249022258867       -1.16602162494668        0.19196673586091
C            4.13758954117471       -2.46765417292786       -0.53360072089828
[...]
          coordinate file            : /rds/general/user/hgt20/home/callum/QDESCP/Vardenafil_rdkit_conf_24/Vardenafil_rdkit_conf_24.xyz
          omp threads                :                     1


           -------------------------------------------------
          |                 G F N 2 - x T B                 |
           -------------------------------------------------

        Reference                      10.1021/acs.jctc.8b01176
      * Hamiltonian:
        H0-scaling (s, p, d)           1.850000    2.230000    2.230000
        zeta-weighting                 0.500000
      * Dispersion:
        s8                             2.700000
        a1                             0.520000
        a2                             5.000000
        s9                             5.000000
      * Repulsion:
        kExp                           1.500000    1.000000
        rExp                           1.000000
      * Coulomb:
        alpha                          2.000000
        third order                    shell-resolved
        anisotropic                    true
        a3                             3.000000
        a5                             4.000000
        cn-shift                       1.200000
        cn-exp                         4.000000
        max-rad                        5.000000


          ...................................................
          :                      SETUP                      :
          :.................................................:
          :  # basis functions                 174          :
          :  # atomic orbitals                 173          :
          :  # shells                          101          :
          :  # electrons                       184          :
          :  max. iterations                   250          :
          :  Hamiltonian                  GFN2-xTB          :
          :  restarted?                      false          :
          :  GBSA solvation                  false          :
          :  PC potential                    false          :
          :  electronic temp.          300.0000000     K    :
          :  accuracy                    1.0000000          :
          :  -> integral cutoff          0.2500000E+02      :
          :  -> integral neglect         0.1000000E-07      :
          :  -> SCF convergence          0.1000000E-05 Eh   :
          :  -> wf. convergence          0.1000000E-03 e    :
          :  Broyden damping             0.4000000          :
          :  net charge                          0          :
          :  unpaired electrons                  2          :
          ...................................................

 iter      E             dE          RMSdq      gap      omega  full diag
   1   -103.5509602 -0.103551E+03  0.407E+00    0.72       0.0  T
   2   -103.7519379 -0.200978E+00  0.279E+00    0.71       1.0  T
   3   -103.6463089  0.105629E+00  0.188E+00    0.73       1.0  T
   4   -103.6573742 -0.110653E-01  0.139E+00    0.43       1.0  T
   5   -103.8228702 -0.165496E+00  0.745E-01    0.81       1.0  T
   6   -103.8383053 -0.154352E-01  0.598E-01    0.74       1.0  T
   7   -103.8523666 -0.140613E-01  0.411E-01    0.83       1.0  T
   8   -103.7613455  0.910211E-01  0.773E-01    0.70       1.0  T
   9   -103.8582210 -0.968755E-01  0.363E-01    0.73       1.0  T
  10   -103.8625489 -0.432791E-02  0.289E-01    0.72       1.0  T
  11   -103.8748692 -0.123203E-01  0.817E-02    0.73       1.0  T
  12   -103.8430235  0.318457E-01  0.418E-01    0.71       1.0  T
  13   -103.8758136 -0.327901E-01  0.264E-02    0.71       1.0  T
  14   -103.8758957 -0.821378E-04  0.942E-03    0.72       1.3  T
  15   -103.8758965 -0.835953E-06  0.563E-03    0.72       2.2  T
  16   -103.8757867  0.109855E-03  0.241E-02    0.72       1.0  T
  17   -103.8758791 -0.923780E-04  0.994E-03    0.72       1.2  T
  18   -103.8758981 -0.190492E-04  0.255E-03    0.72       4.8  T
  19   -103.8758991 -0.943142E-06  0.124E-03    0.72       9.9  T
  20   -103.8758994 -0.298858E-06  0.281E-04    0.72      43.7  T
  21   -103.8758994  0.125370E-07  0.377E-04    0.72      32.6  T

   *** convergence criteria satisfied after 21 iterations ***

         #    Occupation            Energy/Eh            Energy/eV
      -------------------------------------------------------------
         1        2.0000           -0.7661640             -20.8484
       ...           ...                  ...                  ...
        87        2.0000           -0.4037408             -10.9863
        88        2.0000           -0.3990751             -10.8594
        89        2.0000           -0.3908892             -10.6366
        90        1.9652           -0.3803229             -10.3491
        91        1.7502           -0.3782105             -10.2916
        92        1.2845           -0.3762896             -10.2394
        93        1.0000           -0.2671460              -7.2694 (HOMO)
        94        0.0000           -0.2407320              -6.5507 (LUMO)
        95                         -0.2319108              -6.3106
        96                         -0.2066692              -5.6238
        97                         -0.1788754              -4.8674
        98                         -0.1227271              -3.3396
       ...                                ...                  ...
       173                          1.2430105              33.8240
      -------------------------------------------------------------
                  HL-Gap            0.0264140 Eh            0.7188 eV
             Fermi-level           -0.3155523 Eh           -8.5866 eV

 transition dipole moment (au) for excitation:          92          93
     X       Y       Z   
  -0.1411  -0.1374   0.0890  total (au/Debye):    0.216   0.549
 dE (eV)             :    2.970
 oscillator strength :  0.48075E-02

 SCC (total)                   0 d,  0 h,  0 min,  0.405 sec
 SCC setup                      ...        0 min,  0.001 sec (  0.181%)
 Dispersion                     ...        0 min,  0.001 sec (  0.264%)
 classical contributions        ...        0 min,  0.000 sec (  0.086%)
 integral evaluation            ...        0 min,  0.015 sec (  3.817%)
 iterations                     ...        0 min,  0.264 sec ( 65.131%)
 molecular gradient             ...        0 min,  0.110 sec ( 27.240%)
 printout                       ...        0 min,  0.013 sec (  3.279%)

         :::::::::::::::::::::::::::::::::::::::::::::::::::::
         ::                     SUMMARY                     ::
         :::::::::::::::::::::::::::::::::::::::::::::::::::::
         :: total energy            -102.580936924371 Eh    ::
         :: gradient norm              0.130837180338 Eh/a0 ::
         :: HOMO-LUMO gap              0.718761105487 eV    ::
         ::.................................................::
         :: SCC energy              -103.875470355189 Eh    ::
         :: -> isotropic ES            0.135899521234 Eh    ::
         :: -> anisotropic ES          0.000857396798 Eh    ::
         :: -> anisotropic XC          0.040898566183 Eh    ::
         :: -> dispersion             -0.076122055927 Eh    ::
         :: repulsion energy           1.294533430818 Eh    ::
         :: add. restraining           0.000000000000 Eh    ::
         :: total charge              -0.000000000085 e     ::
         :::::::::::::::::::::::::::::::::::::::::::::::::::::

           -------------------------------------------------
          |                Property Printout                |
           -------------------------------------------------

    * Orbital Energies and Occupations

         #    Occupation            Energy/Eh            Energy/eV
      -------------------------------------------------------------
         1        2.0000           -0.7661640             -20.8484
       ...           ...                  ...                  ...
        81        2.0000           -0.4330385             -11.7836
        82        2.0000           -0.4272927             -11.6272
        83        2.0000           -0.4129862             -11.2379
        84        2.0000           -0.4102888             -11.1645
        85        2.0000           -0.4071511             -11.0791
        86        2.0000           -0.4048727             -11.0171
        87        2.0000           -0.4037408             -10.9863
        88        2.0000           -0.3990751             -10.8594
        89        2.0000           -0.3908892             -10.6366
        90        1.9652           -0.3803229             -10.3491
        91        1.7502           -0.3782105             -10.2916
        92        1.2845           -0.3762896             -10.2394
        93        1.0000           -0.2671460              -7.2694 (HOMO)
        94        0.0000           -0.2407320              -6.5507 (LUMO)
        95                         -0.2319108              -6.3106
        96                         -0.2066692              -5.6238
        97                         -0.1788754              -4.8674
        98                         -0.1227271              -3.3396
        99                         -0.1161911              -3.1617
       100                         -0.0984387              -2.6787
       101                         -0.0717257              -1.9518
       102                         -0.0618630              -1.6834
       103                         -0.0475932              -1.2951
       104                         -0.0345216              -0.9394
       ...                                ...                  ...
       173                          1.2430105              33.8240
      -------------------------------------------------------------
                  HL-Gap            0.0264140 Eh            0.7188 eV
             Fermi-level           -0.3155523 Eh           -8.5866 eV

     #   Z          covCN         q      C6AA      α(0)
     1   6 C        3.752    -0.106    22.580     6.776
     2   6 C        3.802    -0.053    21.517     6.604
     3   6 C        3.805    -0.069    21.808     6.648
     4   6 C        3.130     0.103    25.525     8.271
     5   7 N        1.927    -0.267    27.766     7.813
     6   6 C        3.147     0.075    26.072     8.353
     7   6 C        3.755    -0.116    22.768     6.804
     8   6 C        3.065    -0.013    28.270     8.719
     9   7 N        2.946     0.050    20.359     6.701
    10   7 N        2.768    -0.112    23.438     7.190
    11   6 C        2.856     0.125    25.258     8.237
    12   6 C        2.982    -0.039    28.951     8.826
    13   6 C        2.859     0.127    25.219     8.231
    14   6 C        2.918    -0.068    29.700     8.937
    15   6 C        2.963    -0.053    29.320     8.882
    16   6 C        2.966    -0.101    30.531     9.063
    17  16 S        3.934     1.100   103.821    17.149
    18   8 O        0.860    -0.561    25.175     6.727
    19   7 N        2.735    -0.288    27.412     7.776
    20   6 C        3.875     0.007    20.420     6.425
    21   6 C        3.769    -0.005    20.703     6.484
    22   7 N        2.727    -0.122    23.643     7.222
    23   6 C        3.769    -0.006    20.711     6.486
    24   6 C        3.868     0.012    20.332     6.412
    25   6 C        3.747     0.003    20.599     6.474
    26   6 C        3.752    -0.115    22.757     6.803
    27   8 O        0.860    -0.571    25.419     6.760
    28   6 C        2.962    -0.043    29.063     8.843
    29   8 O        1.704    -0.290    18.826     5.858
    30   6 C        3.687     0.084    19.371     6.300
    31   6 C        3.751    -0.114    22.737     6.800
    32   7 N        1.845    -0.242    27.173     7.726
    33   6 C        2.778     0.266    22.518     7.772
    34   8 O        0.859    -0.381    21.309     6.189
    35   1 H        0.925     0.034     2.534     2.490
    36   1 H        0.925     0.043     2.411     2.428
    37   1 H        0.925     0.041     2.435     2.440
    38   1 H        0.924     0.032     2.563     2.503
    39   1 H        0.924     0.046     2.373     2.409
    40   1 H        0.925     0.070     2.089     2.260
    41   1 H        0.924     0.040     2.455     2.451
    42   1 H        0.925     0.073     2.049     2.239
    43   1 H        0.925     0.065     2.145     2.290
    44   1 H        0.925     0.065     2.138     2.287
    45   1 H        0.860     0.203     1.091     1.637
    46   1 H        0.926     0.041     2.440     2.443
    47   1 H        0.926     0.049     2.333     2.389
    48   1 H        0.923     0.044     2.394     2.420
    49   1 H        0.924     0.057     2.238     2.340
    50   1 H        0.924     0.060     2.200     2.320
    51   1 H        0.925     0.064     2.154     2.295
    52   1 H        0.924     0.055     2.254     2.348
    53   1 H        0.924     0.063     2.166     2.302
    54   1 H        0.925     0.069     2.101     2.267
    55   1 H        0.923     0.032     2.561     2.503
    56   1 H        0.924     0.046     2.365     2.405
    57   1 H        0.923     0.037     2.490     2.468
    58   1 H        0.925     0.054     2.267     2.355
    59   1 H        0.925     0.051     2.308     2.376
    60   1 H        0.925     0.047     2.358     2.401
    61   1 H        0.926     0.068     2.110     2.271
    62   1 H        0.924     0.035     2.517     2.481
    63   1 H        0.924     0.037     2.493     2.469
    64   1 H        0.925     0.051     2.307     2.375
    65   1 H        0.925     0.055     2.253     2.347
    66   1 H        0.925     0.055     2.256     2.349

 Mol. C6AA /au·bohr⁶  :      48259.898559
 Mol. C8AA /au·bohr⁸  :    1143590.783975
 Mol. α(0) /au        :        335.616142


Wiberg/Mayer (AO) data.
largest (>0.10) Wiberg bond orders for each atom

 ---------------------------------------------------------------------------
     #   Z sym  total        # sym  WBO       # sym  WBO       # sym  WBO
 ---------------------------------------------------------------------------
     1   6 C    3.995 --     2 C    1.019    36 H    0.987    37 H    0.986
                            35 H    0.986
     2   6 C    3.992 --     1 C    1.019     3 C    0.984    39 H    0.978
                            38 H    0.977
     3   6 C    3.993 --     4 C    1.017     2 C    0.984    41 H    0.967
                            40 H    0.967
     4   6 C    3.931 --     5 N    1.427     9 N    1.244     3 C    1.017
     5   7 N    3.039 --     4 C    1.427     6 C    1.296
     6   6 C    3.928 --     8 C    1.409     5 N    1.296     7 C    1.038
     7   6 C    3.987 --     6 C    1.038    42 H    0.975    43 H    0.967
                            44 H    0.962
     8   6 C    3.839 --     6 C    1.409     9 N    1.121    33 C    0.996
     9   7 N    3.631 --     4 C    1.244     8 C    1.121    10 N    1.030
    10   7 N    3.363 --    11 C    1.118     9 N    1.030    45 H    0.909
    11   6 C    3.905 --    32 N    1.410    12 C    1.128    10 N    1.118
    12   6 C    3.945 --    28 C    1.310    13 C    1.237    11 C    1.128
    13   6 C    3.913 --    14 C    1.417    12 C    1.237    29 O    1.050
    14   6 C    3.971 --    13 C    1.417    15 C    1.386    46 H    0.964
    15   6 C    3.914 --    14 C    1.386    16 C    1.367    47 H    0.966
    16   6 C    3.949 --    28 C    1.456    15 C    1.367    17 S    0.749
    17  16 S    4.955 --    18 O    1.638    27 O    1.615    19 N    0.867
                            16 C    0.749
    18   8 O    1.929 --    17 S    1.638    27 O    0.110
    19   7 N    3.144 --    20 C    0.999    24 C    0.992    17 S    0.867
    20   6 C    3.950 --    19 N    0.999    21 C    0.972    49 H    0.966
                            48 H    0.959
    21   6 C    3.971 --    22 N    1.014    20 C    0.972    50 H    0.967
                            51 H    0.967
    22   7 N    3.122 --    23 C    1.014    21 C    1.014    25 C    0.998
    23   6 C    3.971 --    22 N    1.014    24 C    0.972    52 H    0.968
                            53 H    0.966
    24   6 C    3.949 --    19 N    0.992    23 C    0.972    54 H    0.968
                            55 H    0.964
    25   6 C    3.971 --    26 C    1.011    22 N    0.998    56 H    0.973
                            57 H    0.955
    26   6 C    3.987 --    25 C    1.011    58 H    0.986    59 H    0.984
                            60 H    0.984
    27   8 O    1.918 --    17 S    1.615    18 O    0.110
    28   6 C    3.971 --    16 C    1.456    12 C    1.310    61 H    0.959
    29   8 O    2.219 --    13 C    1.050    30 C    0.956
    30   6 C    3.943 --    31 C    1.016    63 H    0.969    62 H    0.968
                            29 O    0.956
    31   6 C    3.992 --    30 C    1.016    66 H    0.985    64 H    0.984
                            65 H    0.983
    32   7 N    3.037 --    11 C    1.410    33 C    1.162    34 O    0.196
    33   6 C    3.898 --    34 O    1.584    32 N    1.162     8 C    0.996
    34   8 O    1.997 --    33 C    1.584    32 N    0.196
    35   1 H    0.999 --     1 C    0.986
    36   1 H    0.998 --     1 C    0.987
    37   1 H    0.997 --     1 C    0.986
    38   1 H    0.999 --     2 C    0.977
    39   1 H    0.998 --     2 C    0.978
    40   1 H    0.994 --     3 C    0.967
    41   1 H    0.998 --     3 C    0.967
    42   1 H    0.993 --     7 C    0.975
    43   1 H    0.991 --     7 C    0.967
    44   1 H    0.990 --     7 C    0.962
    45   1 H    0.958 --    10 N    0.909
    46   1 H    0.997 --    14 C    0.964
    47   1 H    0.997 --    15 C    0.966
    48   1 H    0.991 --    20 C    0.959
    49   1 H    0.996 --    20 C    0.966
    50   1 H    0.992 --    21 C    0.967
    51   1 H    0.994 --    21 C    0.967
    52   1 H    0.995 --    23 C    0.968
    53   1 H    0.991 --    23 C    0.966
    54   1 H    0.995 --    24 C    0.968
    55   1 H    0.992 --    24 C    0.964
    56   1 H    0.998 --    25 C    0.973
    57   1 H    0.983 --    25 C    0.955
    58   1 H    0.996 --    26 C    0.986
    59   1 H    0.997 --    26 C    0.984
    60   1 H    0.998 --    26 C    0.984
    61   1 H    0.994 --    28 C    0.959
    62   1 H    0.998 --    30 C    0.968
    63   1 H    0.998 --    30 C    0.969
    64   1 H    0.997 --    31 C    0.984
    65   1 H    0.997 --    31 C    0.983
    66   1 H    0.997 --    31 C    0.985
 ---------------------------------------------------------------------------

Topologies differ in total number of bonds
Writing topology from bond orders to xtbtopo.mol

molecular dipole:
                 x           y           z       tot (Debye)
 q only:       -0.581      -1.108      -2.703
   full:       -0.357      -0.569      -2.930       7.642
molecular quadrupole (traceless):
                xx          xy          yy          xz          yz          zz
 q only:       26.290     -48.637     -11.004      -0.098      -1.857     -15.286
  q+dip:       25.312     -46.470     -12.578       7.777      -2.169     -12.734
   full:       24.091     -46.803     -10.381       8.768      -0.561     -13.710


           -------------------------------------------------
          | TOTAL ENERGY             -102.580936924371 Eh   |
          | GRADIENT NORM               0.130837180338 Eh/α |
          | HOMO-LUMO GAP               0.718761105487 eV   |
           -------------------------------------------------

------------------------------------------------------------------------
 * finished run on 2025/05/15 at 16:23:11.623     
------------------------------------------------------------------------
 total:
 * wall-time:     0 d,  0 h,  0 min,  0.428 sec
 *  cpu-time:     0 d,  0 h,  0 min,  0.211 sec
 * ratio c/w:     0.493 speedup
 SCF:
 * wall-time:     0 d,  0 h,  0 min,  0.407 sec
 *  cpu-time:     0 d,  0 h,  0 min,  0.192 sec
 * ratio c/w:     0.470 speedup


