66
 energy: -102.671924271451 gnorm: 0.000732287033 xtb: 6.7.1 (edcfbbe)
C           -6.84617862878945        2.07370371283915       -1.32135838799597
C           -6.02568533690533        1.09233518042405       -0.49522147070930
C           -5.51822076742882        1.73837563505852        0.80100403617655
C           -4.77376893677396        0.76170260243401        1.63574599021871
N           -5.28425181271180        0.03413414065497        2.60579615697119
C           -4.29973785888489       -0.75420825072906        3.09453663874343
C           -4.50796262020587       -1.70479684086611        4.21285957351741
C           -3.12928630972194       -0.50793793580184        2.39838665773693
N           -3.46739232811354        0.46182703659980        1.46663861130712
N           -2.52756543912018        0.96943763905617        0.61247458931560
C           -1.25271229279326        0.50579234757085        0.72154443195649
C           -0.22485721866946        1.08743366942475       -0.15885947433265
C           -0.48220457038875        1.62892892341742       -1.43417608142187
C            0.58398922949176        2.09457348798114       -2.20428282879537
C            1.87912668461029        2.03560060700917       -1.72523147555858
C            2.12332505145194        1.51755885662657       -0.46870555331458
S            3.81669136942439        1.43980200917206        0.11013980355299
O            4.56380038082290        2.46844533586392       -0.55324552820740
N            4.29498570806771       -0.03454351391126       -0.54405886411255
C            3.76249022258867       -1.16602162494668        0.19196673586091
C            4.13758954117471       -2.46765417292786       -0.53360072089828
N            5.55988183938842       -2.61071290980555       -0.76970592120534
C            6.05003167372492       -1.43721806240398       -1.46243217558888
C            5.73422979877221       -0.13241286029456       -0.72247385321164
C            6.33144723923292       -2.99985597599877        0.40231252529632
C            6.19790783375865       -4.49805389546655        0.66131509639374
O            3.82708506258836        1.40505747833562        1.54444834013764
C            1.08756814276141        1.04811375470896        0.30729730800591
O           -1.77411449971859        1.66474467208860       -1.85820322849811
C           -2.05789555774803        2.04447577595720       -3.20025461774559
C           -3.54695310369397        1.85029173557153       -3.43350201127906
N           -0.87824574759244       -0.38852904135742        1.56188077246336
C           -1.76411346163000       -1.01071655524251        2.44321684370339
O           -1.39100030091998       -1.90157642742048        3.17364934597892
H           -6.26431772511206        2.96190755215538       -1.56159656324172
H           -7.72815824218119        2.38738534268543       -0.76868679610491
H           -7.16937382945050        1.61272351495583       -2.25132080123443
H           -5.17819929730519        0.73034864354155       -1.08287162948654
H           -6.64018968593660        0.22945900200525       -0.23476423792952
H           -6.37060793271027        2.08941085355513        1.38280699296069
H           -4.88199207828777        2.59764326150829        0.56754743050586
H           -3.60492070878660       -2.29003797003771        4.36094058091177
H           -5.34686180830645       -2.36188603328311        3.99222632659286
H           -4.74162704121337       -1.15979165536591        5.12650646591572
H           -2.82691777803123        1.57153074549191       -0.14233906907610
H            0.40854443757788        2.51140026221936       -3.18239933715861
H            2.70948031556678        2.40216172960074       -2.30635898745715
H            4.14603454741884       -1.16570669439325        1.22128894249951
H            2.67733359193859       -1.06349990368338        0.23226529072247
H            3.64307518082334       -2.47555402564583       -1.50964642052326
H            3.77784191288439       -3.31862971980522        0.04397308290617
H            7.12768160361874       -1.52782003198211       -1.60954138649659
H            5.56385651334019       -1.40975639680530       -2.44231197772519
H            6.04679347070152        0.73851999786989       -1.29818320614364
H            6.24818727030421       -0.11420662819930        0.24953734272260
H            7.38031629450986       -2.77580653259880        0.19364348090440
H            6.04471583721726       -2.44616365476881        1.30823917120563
H            6.43328008715429       -5.04941884365283       -0.24464747111916
H            6.88486376922716       -4.79921209602158        1.44801651972953
H            5.18965304171025       -4.75774460553339        0.97157360841035
H            1.27508192852067        0.65128963312586        1.29209368546748
H           -1.78437065495615        3.09579202845414       -3.35478560047134
H           -1.48149133154429        1.41777686990053       -3.89076878375487
H           -3.79169905322355        2.11458908458717       -4.45782110887378
H           -4.12234767701443        2.48252728417329       -2.76302764439948
H           -3.82176794449680        0.81247245231906       -3.26398916472918
