----- Optimization -----
      -----------------------------------------------------------      
     |                   =====================                   |     
     |                           x T B                           |     
     |                   =====================                   |     
     |                         S. Grimme                         |     
     |          Mulliken Center for Theoretical Chemistry        |     
     |                    University of Bonn                     |     
      -----------------------------------------------------------      

   * xtb version 6.7.1 (edcfbbe) compiled by 'conda@3ef47c1a292c' on 2024-11-25

   xtb is free software: you can redistribute it and/or modify it under
   the terms of the GNU Lesser General Public License as published by
   the Free Software Foundation, either version 3 of the License, or
   (at your option) any later version.
   
   xtb is distributed in the hope that it will be useful,
   but WITHOUT ANY WARRANTY; without even the implied warranty of
   MERCHANTABILITY or FITNESS FOR A PARTICULAR PURPOSE.  See the
   GNU Lesser General Public License for more details.
   
   Cite this work as:
   * C. Bannwarth, E. Caldeweyher, S. Ehlert, A. Hansen, P. Pracht,
     J. Seibert, S. Spicher, S. Grimme, WIREs Comput. Mol. Sci., 2020, 11,
     e01493. DOI: 10.1002/wcms.1493
   
   for GFN2-xTB:
   * C. Bannwarth, S. Ehlert and S. Grimme., J. Chem. Theory Comput., 2019,
     15, 1652-1671. DOI: 10.1021/acs.jctc.8b01176
   for GFN1-xTB:
   * S. Grimme, C. Bannwarth, P. Shushkov, J. Chem. Theory Comput., 2017,
     13, 1989-2009. DOI: 10.1021/acs.jctc.7b00118
   for GFN0-xTB:
   * P. Pracht, E. Caldeweyher, S. Ehlert, S. Grimme, ChemRxiv, 2019, preprint.
     DOI: 10.26434/chemrxiv.8326202.v1
   for GFN-FF:
   * S. Spicher and S. Grimme, Angew. Chem. Int. Ed., 2020, 59, 15665-15673.
     DOI: 10.1002/anie.202004239
   
   for ALPB and GBSA implicit solvation:
   * S. Ehlert, M. Stahn, S. Spicher, S. Grimme, J. Chem. Theory Comput.,
     2021, 17, 4250-4261. DOI: 10.1021/acs.jctc.1c00471
   
   for ddCOSMO and CPCM-X implicit solvation:
   * M. Stahn, S. Ehlert, S. Grimme, J. Phys. Chem. A,
     2023, XX, XXXX-XXXX. DOI: 10.1021/acs.jpca.3c04382
   
   for DFT-D4:
   * E. Caldeweyher, C. Bannwarth and S. Grimme, J. Chem. Phys., 2017,
     147, 034112. DOI: 10.1063/1.4993215
   * E. Caldeweyher, S. Ehlert, A. Hansen, H. Neugebauer, S. Spicher,
     C. Bannwarth and S. Grimme, J. Chem. Phys., 2019, 150, 154122.
     DOI: 10.1063/1.5090222
   * E. Caldeweyher, J.-M. Mewes, S. Ehlert and S. Grimme, Phys. Chem. Chem. Phys.
     2020, 22, 8499-8512. DOI: 10.1039/D0CP00502A
   
   for sTDA-xTB:
   * S. Grimme and C. Bannwarth, J. Chem. Phys., 2016, 145, 054103.
     DOI: 10.1063/1.4959605
   
   in the mass-spec context:
   * V. Asgeirsson, C. Bauer and S. Grimme, Chem. Sci., 2017, 8, 4879.
     DOI: 10.1039/c7sc00601b
   * J. Koopman and S. Grimme, ACS Omega 2019, 4, 12, 15120-15133.
     DOI: 10.1021/acsomega.9b02011
   
   for metadynamics refer to:
   * S. Grimme, J. Chem. Theory Comput., 2019, 155, 2847-2862
     DOI: 10.1021/acs.jctc.9b00143
   
   for SPH calculations refer to:
   * S. Spicher and S. Grimme, J. Chem. Theory Comput., 2021, 17, 1701-1714
     DOI: 10.1021/acs.jctc.0c01306
   
   for ONIOM refer to:
   * C. Plett, A. Katbashev, S. Ehlert, S. Grimme, M. Bursch,
     Phys. Chem. Chem. Phys., 2023, 25, 17860-17868. DOI: 10.1039/D3CP02178E
   
   for DIPRO refer to:
   * J. Kohn, N. Gildemeister, S. Grimme, D. Fazzi, A. Hansen,
     J. Chem. Phys., 2023, just accepted.
   
   for PTB refer to:
   * S. Grimme, M. Mueller, A. Hansen, J. Chem. Phys., 2023, 158, 124111.
     DOI: 10.1063/5.0137838
   
   with help from (in alphabetical order)
   P. Atkinson, C. Bannwarth, F. Bohle, G. Brandenburg, E. Caldeweyher
   M. Checinski, S. Dohm, S. Ehlert, S. Ehrlich, I. Gerasimov, C. Hölzer
   A. Katbashev, J. Kohn, J. Koopman, C. Lavigne, S. Lehtola, F. März, M. Müller,
   F. Musil, H. Neugebauer, J. Pisarek, C. Plett, P. Pracht, F. Pultar,
   J. Seibert, P. Shushkov, S. Spicher, M. Stahn, M. Steiner, T. Strunk,
   J. Stückrath, T. Rose, and J. Unsleber
   
 * started run on 2025/05/15 at 16:05:51.049     
   ID    Z sym.   atoms
    1    6 C      1-8, 10, 11, 13-16
    2    7 N      9, 12
    3    8 O      17
    4    1 H      18-39

           -------------------------------------------------
          |                Calculation Setup                |
           -------------------------------------------------

          program call               : xtb /rds/general/user/hgt20/home/callum/QDESCP/Lidocaine_rdkit_conf_15/Lidocaine_rdkit_conf_15.xyz --opt normal --acc 1 --gfn 2 --chrg 0 --uhf 0 -P 1
          hostname                   : login-c
          coordinate file            : /rds/general/user/hgt20/home/callum/QDESCP/Lidocaine_rdkit_conf_15/Lidocaine_rdkit_conf_15.xyz
          omp threads                :                     1


           -------------------------------------------------
          |                 G F N 2 - x T B                 |
           -------------------------------------------------

        Reference                      10.1021/acs.jctc.8b01176
      * Hamiltonian:
        H0-scaling (s, p, d)           1.850000    2.230000    2.230000
        zeta-weighting                 0.500000
      * Dispersion:
        s8                             2.700000
        a1                             0.520000
        a2                             5.000000
        s9                             5.000000
      * Repulsion:
        kExp                           1.500000    1.000000
        rExp                           1.000000
      * Coulomb:
        alpha                          2.000000
        third order                    shell-resolved
        anisotropic                    true
        a3                             3.000000
        a5                             4.000000
        cn-shift                       1.200000
        cn-exp                         4.000000
        max-rad                        5.000000


          ...................................................
          :                      SETUP                      :
          :.................................................:
          :  # basis functions                  90          :
          :  # atomic orbitals                  90          :
          :  # shells                           56          :
          :  # electrons                        94          :
          :  max. iterations                   250          :
          :  Hamiltonian                  GFN2-xTB          :
          :  restarted?                      false          :
          :  GBSA solvation                  false          :
          :  PC potential                    false          :
          :  electronic temp.          300.0000000     K    :
          :  accuracy                    1.0000000          :
          :  -> integral cutoff          0.2500000E+02      :
          :  -> integral neglect         0.1000000E-07      :
          :  -> SCF convergence          0.1000000E-05 Eh   :
          :  -> wf. convergence          0.1000000E-03 e    :
          :  Broyden damping             0.4000000          :
          :  net charge                          0          :
          :  unpaired electrons                  0          :
          ...................................................

 iter      E             dE          RMSdq      gap      omega  full diag
   1    -51.7433535 -0.517434E+02  0.330E+00    3.43       0.0  T
   2    -51.8271715 -0.838180E-01  0.187E+00    3.71       1.0  T
   3    -51.8298281 -0.265661E-02  0.938E-01    3.60       1.0  T
   4    -51.8321574 -0.232930E-02  0.229E-01    3.40       1.0  T
   5    -51.8336259 -0.146852E-02  0.862E-02    3.46       1.0  T
   6    -51.8337662 -0.140240E-03  0.426E-02    3.46       1.0  T
   7    -51.8337859 -0.197511E-04  0.192E-02    3.46       1.0  T
   8    -51.8337907 -0.474772E-05  0.494E-03    3.46       3.2  T
   9    -51.8337908 -0.124213E-06  0.191E-03    3.46       8.4  T
  10    -51.8337908 -0.460511E-07  0.106E-03    3.46      15.1  T
  11    -51.8337908 -0.824367E-08  0.430E-04    3.46      37.2  T
  12    -51.8337908 -0.106922E-08  0.869E-05    3.46     184.3  T

   *** convergence criteria satisfied after 12 iterations ***

         #    Occupation            Energy/Eh            Energy/eV
      -------------------------------------------------------------
         1        2.0000           -0.6919288             -18.8283
       ...           ...                  ...                  ...
        41        2.0000           -0.4315934             -11.7443
        42        2.0000           -0.4199586             -11.4277
        43        2.0000           -0.4192021             -11.4071
        44        2.0000           -0.3924568             -10.6793
        45        2.0000           -0.3816315             -10.3847
        46        2.0000           -0.3694419             -10.0530
        47        2.0000           -0.3594379              -9.7808 (HOMO)
        48                         -0.2321780              -6.3179 (LUMO)
        49                         -0.2169003              -5.9022
        50                         -0.1949577              -5.3051
        51                         -0.0932008              -2.5361
        52                         -0.0110246              -0.3000
       ...                                ...                  ...
        90                          0.6379513              17.3595
      -------------------------------------------------------------
                  HL-Gap            0.1272599 Eh            3.4629 eV
             Fermi-level           -0.2958080 Eh           -8.0493 eV

 SCC (total)                   0 d,  0 h,  0 min,  0.042 sec
 SCC setup                      ...        0 min,  0.000 sec (  0.706%)
 Dispersion                     ...        0 min,  0.000 sec (  0.850%)
 classical contributions        ...        0 min,  0.000 sec (  0.304%)
 integral evaluation            ...        0 min,  0.006 sec ( 13.560%)
 iterations                     ...        0 min,  0.018 sec ( 43.488%)
 molecular gradient             ...        0 min,  0.017 sec ( 40.750%)
 printout                       ...        0 min,  0.000 sec (  0.325%)

         :::::::::::::::::::::::::::::::::::::::::::::::::::::
         ::                     SUMMARY                     ::
         :::::::::::::::::::::::::::::::::::::::::::::::::::::
         :: total energy             -51.121431247361 Eh    ::
         :: gradient norm              0.058168934618 Eh/a0 ::
         :: HOMO-LUMO gap              3.462918790699 eV    ::
         ::.................................................::
         :: SCC energy               -51.833449653657 Eh    ::
         :: -> isotropic ES            0.046192242196 Eh    ::
         :: -> anisotropic ES          0.008979657367 Eh    ::
         :: -> anisotropic XC          0.028612566509 Eh    ::
         :: -> dispersion             -0.036748564303 Eh    ::
         :: repulsion energy           0.712018406296 Eh    ::
         :: add. restraining           0.000000000000 Eh    ::
         :: total charge               0.000000000000 e     ::
         :::::::::::::::::::::::::::::::::::::::::::::::::::::

      ----------------------------------------------------------- 
     |                   =====================                   |
     |                        A N C O P T                        |
     |                   =====================                   |
     |               Approximate Normal Coordinate               |
     |                Rational Function Optimizer                |
      ----------------------------------------------------------- 
      ----------------------------------------------------------- 
     |                   =====================                   |
     |                        A N C O P T                        |
     |                   =====================                   |
     |               Approximate Normal Coordinate               |
     |                Rational Function Optimizer                |
      ----------------------------------------------------------- 

          ...................................................
          :                      SETUP                      :
          :.................................................:
          :   optimization level            normal          :
          :   max. optcycles                   200          :
          :   ANC micro-cycles                  20          :
          :   degrees of freedom               111          :
          :.................................................:
          :   RF solver                   davidson          :
          :   write xtbopt.log                true          :
          :   linear?                        false          :
          :   energy convergence         0.5000000E-05 Eh   :
          :   grad. convergence          0.1000000E-02 Eh/α :
          :   maxmium RF displ.          1.0000000          :
          :   Hlow (freq-cutoff)         0.1000000E-01      :
          :   Hmax (freq-cutoff)         5.0000000          :
          :   S6 in model hess.         20.0000000          :
          ...................................................

generating ANC from exact Hessian ...
Using Lindh-Hessian (1995)
 Shifting diagonal of input Hessian by    9.7396308497956774E-003
 Lowest  eigenvalues of input Hessian
    0.000000    0.000000    0.000000    0.000000    0.000000    0.000000
    0.010000    0.010189    0.010453    0.011086    0.011981    0.012473
    0.013242    0.014882    0.015014    0.015219    0.016767    0.017091
 Highest eigenvalues
    1.554840    1.798989    1.819534    1.933217    2.003400    2.248020


........................................................................
.............................. CYCLE    1 ..............................
........................................................................

 iter      E             dE          RMSdq      gap      omega  full diag
   1    -51.8337908 -0.518338E+02  0.464E-05    3.46       0.0  T
   2    -51.8337908 -0.132019E-10  0.266E-05    3.46     603.1  T
   3    -51.8337908 -0.793676E-11  0.174E-05    3.46     919.7  T
     SCC iter.                  ...        0 min,  0.005 sec
     gradient                   ...        0 min,  0.017 sec
 * total energy  :   -51.1214312 Eh     change       -0.9061552E-10 Eh
   gradient norm :     0.0581692 Eh/α   predicted     0.0000000E+00 (-100.00%)
   displ. norm   :     0.2951568 α      lambda       -0.9336480E-02
   maximum displ.:     0.1025119 α      in ANC's #34, #15, #31, ...

........................................................................
.............................. CYCLE    2 ..............................
........................................................................

 iter      E             dE          RMSdq      gap      omega  full diag
   1    -51.8712458 -0.518712E+02  0.190E-01    3.52       0.0  T
   2    -51.8712947 -0.489084E-04  0.113E-01    3.51       1.0  T
   3    -51.8712842  0.105134E-04  0.283E-02    3.51       1.0  T
   4    -51.8713019 -0.177347E-04  0.518E-03    3.51       3.1  T
   5    -51.8713024 -0.445441E-06  0.285E-03    3.51       5.6  T
   6    -51.8713024 -0.581384E-07  0.136E-03    3.51      11.8  T
   7    -51.8713025 -0.391573E-07  0.425E-04    3.51      37.6  T
   8    -51.8713025 -0.142936E-08  0.172E-04    3.51      92.9  T
     SCC iter.                  ...        0 min,  0.012 sec
     gradient                   ...        0 min,  0.020 sec
 * total energy  :   -51.1276430 Eh     change       -0.6211755E-02 Eh
   gradient norm :     0.0203065 Eh/α   predicted    -0.5075146E-02 ( -18.30%)
   displ. norm   :     0.2835955 α      lambda       -0.2447637E-02
   maximum displ.:     0.1070466 α      in ANC's #15, #8, #17, ...

........................................................................
.............................. CYCLE    3 ..............................
........................................................................

 iter      E             dE          RMSdq      gap      omega  full diag
   1    -51.8876111 -0.518876E+02  0.109E-01    3.50       0.0  T
   2    -51.8876417 -0.305497E-04  0.645E-02    3.50       1.0  T
   3    -51.8876382  0.351205E-05  0.212E-02    3.50       1.0  T
   4    -51.8876443 -0.616633E-05  0.515E-03    3.49       3.1  T
   5    -51.8876453 -0.948359E-06  0.181E-03    3.49       8.9  T
   6    -51.8876453 -0.240017E-07  0.904E-04    3.50      17.7  T
   7    -51.8876453 -0.911297E-08  0.218E-04    3.50      73.3  T
     SCC iter.                  ...        0 min,  0.010 sec
     gradient                   ...        0 min,  0.017 sec
 * total energy  :   -51.1292407 Eh     change       -0.1597677E-02 Eh
   gradient norm :     0.0106031 Eh/α   predicted    -0.1322899E-02 ( -17.20%)
   displ. norm   :     0.2865009 α      lambda       -0.9847007E-03
   maximum displ.:     0.1130136 α      in ANC's #15, #8, #17, ...

........................................................................
.............................. CYCLE    4 ..............................
........................................................................

 iter      E             dE          RMSdq      gap      omega  full diag
   1    -51.8908357 -0.518908E+02  0.833E-02    3.46       0.0  T
   2    -51.8908535 -0.178199E-04  0.489E-02    3.47       1.0  T
   3    -51.8908515  0.202851E-05  0.166E-02    3.47       1.0  T
   4    -51.8908550 -0.347890E-05  0.454E-03    3.47       3.5  T
   5    -51.8908557 -0.673016E-06  0.137E-03    3.47      11.7  T
   6    -51.8908557 -0.567997E-08  0.578E-04    3.47      27.7  T
   7    -51.8908557 -0.313347E-08  0.197E-04    3.47      81.5  T
     SCC iter.                  ...        0 min,  0.010 sec
     gradient                   ...        0 min,  0.018 sec
 * total energy  :   -51.1299933 Eh     change       -0.7526227E-03 Eh
   gradient norm :     0.0116743 Eh/α   predicted    -0.5327654E-03 ( -29.21%)
   displ. norm   :     0.3958892 α      lambda       -0.9878314E-03
   maximum displ.:     0.1441760 α      in ANC's #15, #8, #3, ...

........................................................................
.............................. CYCLE    5 ..............................
........................................................................

 iter      E             dE          RMSdq      gap      omega  full diag
   1    -51.8892512 -0.518893E+02  0.112E-01    3.43       0.0  T
   2    -51.8892681 -0.169739E-04  0.661E-02    3.44       1.0  T
   3    -51.8892616  0.652088E-05  0.201E-02    3.43       1.0  T
   4    -51.8892706 -0.897393E-05  0.491E-03    3.43       3.3  T
   5    -51.8892713 -0.674543E-06  0.173E-03    3.43       9.2  T
   6    -51.8892713 -0.811046E-08  0.662E-04    3.43      24.2  T
   7    -51.8892713 -0.320494E-08  0.264E-04    3.43      60.5  T
     SCC iter.                  ...        0 min,  0.010 sec
     gradient                   ...        0 min,  0.021 sec
 * total energy  :   -51.1306654 Eh     change       -0.6720596E-03 Eh
   gradient norm :     0.0137870 Eh/α   predicted    -0.5713298E-03 ( -14.99%)
   displ. norm   :     0.2535747 α      lambda       -0.4556025E-03
   maximum displ.:     0.1009741 α      in ANC's #8, #3, #13, ...

........................................................................
.............................. CYCLE    6 ..............................
........................................................................

 iter      E             dE          RMSdq      gap      omega  full diag
   1    -51.8883921 -0.518884E+02  0.668E-02    3.44       0.0  T
   2    -51.8883955 -0.336445E-05  0.385E-02    3.43       1.0  T
   3    -51.8883922  0.332481E-05  0.126E-02    3.43       1.3  T
   4    -51.8883965 -0.436973E-05  0.207E-03    3.43       7.7  T
   5    -51.8883966 -0.709061E-07  0.939E-04    3.43      17.0  T
   6    -51.8883966 -0.323867E-08  0.413E-04    3.43      38.8  T
     SCC iter.                  ...        0 min,  0.009 sec
     gradient                   ...        0 min,  0.018 sec
 * total energy  :   -51.1309783 Eh     change       -0.3129578E-03 Eh
   gradient norm :     0.0096986 Eh/α   predicted    -0.2424537E-03 ( -22.53%)
   displ. norm   :     0.1853407 α      lambda       -0.2509075E-03
   maximum displ.:     0.0833148 α      in ANC's #8, #3, #13, ...

........................................................................
.............................. CYCLE    7 ..............................
........................................................................

 iter      E             dE          RMSdq      gap      omega  full diag
   1    -51.8886196 -0.518886E+02  0.489E-02    3.45       0.0  T
   2    -51.8886239 -0.439814E-05  0.282E-02    3.44       1.0  T
   3    -51.8886229  0.102722E-05  0.970E-03    3.44       1.7  T
   4    -51.8886244 -0.152387E-05  0.236E-03    3.44       6.8  T
   5    -51.8886246 -0.163252E-06  0.684E-04    3.44      23.4  T
   6    -51.8886246 -0.136023E-08  0.326E-04    3.44      49.2  T
     SCC iter.                  ...        0 min,  0.009 sec
     gradient                   ...        0 min,  0.017 sec
 * total energy  :   -51.1311530 Eh     change       -0.1746997E-03 Eh
   gradient norm :     0.0047367 Eh/α   predicted    -0.1297635E-03 ( -25.72%)
   displ. norm   :     0.1537057 α      lambda       -0.1381701E-03
   maximum displ.:     0.0757467 α      in ANC's #8, #3, #13, ...

........................................................................
.............................. CYCLE    8 ..............................
........................................................................

 iter      E             dE          RMSdq      gap      omega  full diag
   1    -51.8896823 -0.518897E+02  0.371E-02    3.46       0.0  T
   2    -51.8896853 -0.300057E-05  0.214E-02    3.45       1.0  T
   3    -51.8896850  0.385812E-06  0.713E-03    3.45       2.2  T
   4    -51.8896856 -0.609900E-06  0.179E-03    3.45       8.9  T
   5    -51.8896857 -0.112027E-06  0.499E-04    3.45      32.1  T
   6    -51.8896857 -0.967262E-09  0.208E-04    3.45      77.1  T
     SCC iter.                  ...        0 min,  0.009 sec
     gradient                   ...        0 min,  0.017 sec
 * total energy  :   -51.1312487 Eh     change       -0.9572828E-04 Eh
   gradient norm :     0.0037209 Eh/α   predicted    -0.7071801E-04 ( -26.13%)
   displ. norm   :     0.1420374 α      lambda       -0.8168622E-04
   maximum displ.:     0.0686921 α      in ANC's #8, #13, #1, ...

........................................................................
.............................. CYCLE    9 ..............................
........................................................................

 iter      E             dE          RMSdq      gap      omega  full diag
   1    -51.8901815 -0.518902E+02  0.317E-02    3.46       0.0  T
   2    -51.8901820 -0.539899E-06  0.186E-02    3.46       1.0  T
   3    -51.8901814  0.598608E-06  0.428E-03    3.46       3.7  T
   4    -51.8901821 -0.732017E-06  0.883E-04    3.46      18.1  T
   5    -51.8901821 -0.200026E-07  0.384E-04    3.46      41.7  T
     SCC iter.                  ...        0 min,  0.008 sec
     gradient                   ...        0 min,  0.017 sec
 * total energy  :   -51.1313042 Eh     change       -0.5541030E-04 Eh
   gradient norm :     0.0031894 Eh/α   predicted    -0.4166822E-04 ( -24.80%)
   displ. norm   :     0.1256742 α      lambda       -0.6273521E-04
   maximum displ.:     0.0553733 α      in ANC's #6, #1, #13, ...

........................................................................
.............................. CYCLE   10 ..............................
........................................................................

 iter      E             dE          RMSdq      gap      omega  full diag
   1    -51.8917362 -0.518917E+02  0.232E-02    3.47       0.0  T
   2    -51.8917367 -0.555413E-06  0.138E-02    3.46       1.2  T
   3    -51.8917367  0.709806E-07  0.264E-03    3.47       6.1  T
   4    -51.8917368 -0.120724E-06  0.766E-04    3.47      20.9  T
   5    -51.8917368 -0.156897E-07  0.343E-04    3.47      46.7  T
     SCC iter.                  ...        0 min,  0.007 sec
     gradient                   ...        0 min,  0.018 sec
 * total energy  :   -51.1313425 Eh     change       -0.3837978E-04 Eh
   gradient norm :     0.0051667 Eh/α   predicted    -0.3186699E-04 ( -16.97%)
   displ. norm   :     0.1316372 α      lambda       -0.5036634E-04
   maximum displ.:     0.0606278 α      in ANC's #13, #1, #8, ...

........................................................................
.............................. CYCLE   11 ..............................
........................................................................

 iter      E             dE          RMSdq      gap      omega  full diag
   1    -51.8910501 -0.518911E+02  0.250E-02    3.46       0.0  T
   2    -51.8910510 -0.884614E-06  0.148E-02    3.46       1.1  T
   3    -51.8910507  0.288890E-06  0.413E-03    3.46       3.9  T
   4    -51.8910511 -0.365876E-06  0.991E-04    3.46      16.2  T
   5    -51.8910511 -0.397847E-07  0.296E-04    3.46      54.2  T
     SCC iter.                  ...        0 min,  0.008 sec
     gradient                   ...        0 min,  0.019 sec
 * total energy  :   -51.1313755 Eh     change       -0.3300049E-04 Eh
   gradient norm :     0.0030442 Eh/α   predicted    -0.2563417E-04 ( -22.32%)
   displ. norm   :     0.1307409 α      lambda        0.6742663E-05
   maximum displ.:     0.0602075 α      in ANC's #13, #1, #8, ...

........................................................................
.............................. CYCLE   12 ..............................
........................................................................

 iter      E             dE          RMSdq      gap      omega  full diag
   1    -51.8900057 -0.518900E+02  0.250E-02    3.45       0.0  T
   2    -51.8900066 -0.878959E-06  0.148E-02    3.46       1.1  T
   3    -51.8900063  0.274678E-06  0.408E-03    3.45       3.9  T
   4    -51.8900067 -0.354303E-06  0.972E-04    3.46      16.5  T
   5    -51.8900067 -0.366604E-07  0.319E-04    3.46      50.3  T
     SCC iter.                  ...        0 min,  0.007 sec
     gradient                   ...        0 min,  0.017 sec
 * total energy  :   -51.1313703 Eh     change        0.5212049E-05 Eh
   gradient norm :     0.0042773 Eh/α   predicted     0.3428332E-05 ( -34.22%)
   displ. norm   :     0.0657390 α      lambda       -0.6349124E-04
   maximum displ.:     0.0345873 α      in ANC's #8, #17, #14, ...

........................................................................
.............................. CYCLE   13 ..............................
........................................................................

 iter      E             dE          RMSdq      gap      omega  full diag
   1    -51.8914618 -0.518915E+02  0.231E-02    3.46       0.0  T
   2    -51.8914623 -0.446738E-06  0.133E-02    3.46       1.2  T
   3    -51.8914622  0.912225E-07  0.258E-03    3.46       6.2  T
   4    -51.8914623 -0.147679E-06  0.885E-04    3.46      18.1  T
   5    -51.8914624 -0.193220E-07  0.392E-04    3.46      40.8  T
     SCC iter.                  ...        0 min,  0.008 sec
     gradient                   ...        0 min,  0.018 sec
 * total energy  :   -51.1314037 Eh     change       -0.3337260E-04 Eh
   gradient norm :     0.0024987 Eh/α   predicted    -0.3188617E-04 (  -4.45%)
   displ. norm   :     0.0418319 α      lambda       -0.3123200E-04
   maximum displ.:     0.0208741 α      in ANC's #11, #12, #8, ...

........................................................................
.............................. CYCLE   14 ..............................
........................................................................

 iter      E             dE          RMSdq      gap      omega  full diag
   1    -51.8913758 -0.518914E+02  0.162E-02    3.46       0.0  T
   2    -51.8913762 -0.394653E-06  0.967E-03    3.46       1.7  T
   3    -51.8913760  0.244879E-06  0.304E-03    3.46       5.3  T
   4    -51.8913763 -0.315717E-06  0.691E-04    3.46      23.2  T
   5    -51.8913763 -0.166408E-07  0.264E-04    3.46      60.5  T
     SCC iter.                  ...        0 min,  0.008 sec
     gradient                   ...        0 min,  0.018 sec
 * total energy  :   -51.1314226 Eh     change       -0.1887500E-04 Eh
   gradient norm :     0.0021838 Eh/α   predicted    -0.1564824E-04 ( -17.10%)
   displ. norm   :     0.0636757 α      lambda       -0.1801127E-04
   maximum displ.:     0.0402962 α      in ANC's #1, #13, #6, ...

........................................................................
.............................. CYCLE   15 ..............................
........................................................................

 iter      E             dE          RMSdq      gap      omega  full diag
   1    -51.8908205 -0.518908E+02  0.151E-02    3.46       0.0  T
   2    -51.8908207 -0.200341E-06  0.879E-03    3.46       1.8  T
   3    -51.8908206  0.605642E-07  0.203E-03    3.46       7.9  T
   4    -51.8908207 -0.871416E-07  0.473E-04    3.46      33.8  T
   5    -51.8908207 -0.603664E-08  0.206E-04    3.46      77.6  T
     SCC iter.                  ...        0 min,  0.008 sec
     gradient                   ...        0 min,  0.017 sec
 * total energy  :   -51.1314361 Eh     change       -0.1352255E-04 Eh
   gradient norm :     0.0014203 Eh/α   predicted    -0.9050612E-05 ( -33.07%)
   displ. norm   :     0.1318374 α      lambda       -0.1619873E-04
   maximum displ.:     0.0858040 α      in ANC's #1, #13, #6, ...

........................................................................
.............................. CYCLE   16 ..............................
........................................................................

 iter      E             dE          RMSdq      gap      omega  full diag
   1    -51.8899016 -0.518899E+02  0.289E-02    3.46       0.0  T
   2    -51.8899019 -0.373724E-06  0.169E-02    3.46       1.0  T
   3    -51.8899019  0.743632E-07  0.241E-03    3.46       6.6  T
   4    -51.8899020 -0.131666E-06  0.578E-04    3.46      27.7  T
   5    -51.8899020 -0.457185E-08  0.328E-04    3.46      48.8  T
     SCC iter.                  ...        0 min,  0.007 sec
     gradient                   ...        0 min,  0.017 sec
 * total energy  :   -51.1314485 Eh     change       -0.1244560E-04 Eh
   gradient norm :     0.0017060 Eh/α   predicted    -0.8165398E-05 ( -34.39%)
   displ. norm   :     0.0381806 α      lambda       -0.6696151E-05
   maximum displ.:     0.0259066 α      in ANC's #1, #7, #15, ...

........................................................................
.............................. CYCLE   17 ..............................
........................................................................

 iter      E             dE          RMSdq      gap      omega  full diag
   1    -51.8903748 -0.518904E+02  0.846E-03    3.46       0.0  T
   2    -51.8903749 -0.619787E-07  0.496E-03    3.46       3.2  T
   3    -51.8903748  0.536325E-07  0.156E-03    3.46      10.3  T
   4    -51.8903749 -0.685111E-07  0.275E-04    3.46      58.2  T
   5    -51.8903749 -0.144917E-08  0.112E-04    3.46     142.6  T
     SCC iter.                  ...        0 min,  0.008 sec
     gradient                   ...        0 min,  0.017 sec
 * total energy  :   -51.1314561 Eh     change       -0.7513588E-05 Eh
   gradient norm :     0.0013057 Eh/α   predicted    -0.3354173E-05 ( -55.36%)
   displ. norm   :     0.0678569 α      lambda       -0.8657986E-05
   maximum displ.:     0.0427789 α      in ANC's #1, #7, #15, ...

........................................................................
.............................. CYCLE   18 ..............................
........................................................................

 iter      E             dE          RMSdq      gap      omega  full diag
   1    -51.8910641 -0.518911E+02  0.144E-02    3.47       0.0  T
   2    -51.8910644 -0.224140E-06  0.854E-03    3.46       1.9  T
   3    -51.8910642  0.123116E-06  0.264E-03    3.47       6.1  T
   4    -51.8910644 -0.158206E-06  0.545E-04    3.47      29.4  T
   5    -51.8910644 -0.704777E-08  0.178E-04    3.47      90.2  T
     SCC iter.                  ...        0 min,  0.007 sec
     gradient                   ...        0 min,  0.017 sec
 * total energy  :   -51.1314627 Eh     change       -0.6631591E-05 Eh
   gradient norm :     0.0012367 Eh/α   predicted    -0.4339172E-05 ( -34.57%)
   displ. norm   :     0.0368511 α      lambda       -0.2696647E-05
   maximum displ.:     0.0270432 α      in ANC's #1, #7, #15, ...

........................................................................
.............................. CYCLE   19 ..............................
........................................................................

 iter      E             dE          RMSdq      gap      omega  full diag
   1    -51.8909878 -0.518910E+02  0.784E-03    3.46       0.0  T
   2    -51.8909879 -0.108490E-06  0.459E-03    3.46       3.5  T
   3    -51.8909879  0.134633E-07  0.131E-03    3.47      12.2  T
   4    -51.8909879 -0.234981E-07  0.304E-04    3.47      52.7  T
   5    -51.8909879 -0.236528E-08  0.106E-04    3.47     151.0  T
     SCC iter.                  ...        0 min,  0.007 sec
     gradient                   ...        0 min,  0.017 sec
 * total energy  :   -51.1314652 Eh     change       -0.2546534E-05 Eh
   gradient norm :     0.0005810 Eh/α   predicted    -0.1350392E-05 ( -46.97%)
   displ. norm   :     0.0231476 α      lambda       -0.1685388E-05
   maximum displ.:     0.0175102 α      in ANC's #1, #2, #13, ...

   *** GEOMETRY OPTIMIZATION CONVERGED AFTER 19 ITERATIONS ***

------------------------------------------------------------------------
 total energy gain   :        -0.0100340 Eh       -6.2964 kcal/mol
 total RMSD          :         0.3216642 a0        0.1702 Å
 total power (kW/mol):        -1.3865382 (step)  -40.9390 (real)
------------------------------------------------------------------------

 ANCopt (total)                0 d,  0 h,  0 min,  0.644 sec
 optimizer setup                ...        0 min,  0.000 sec (  0.012%)
 model hessian                  ...        0 min,  0.019 sec (  2.916%)
 ANC generation                 ...        0 min,  0.001 sec (  0.209%)
 coordinate transformation      ...        0 min,  0.000 sec (  0.018%)
 single point calculation       ...        0 min,  0.617 sec ( 95.886%)
 optimization log               ...        0 min,  0.003 sec (  0.461%)
 hessian update                 ...        0 min,  0.000 sec (  0.035%)
 rational function              ...        0 min,  0.001 sec (  0.211%)

================
 final structure:
================
39
 xtb: 6.7.1 (edcfbbe)
C           -1.33253209369651        2.42972814688130       -0.58682953157794
C           -2.32990914614972        1.55785236774535        0.11907593766328
C           -3.52806121689385        2.08914379678499        0.56814932299062
C           -4.45592888252337        1.29256918048499        1.21470485682044
C           -4.20138340950622       -0.05382216348405        1.38567223848656
C           -3.01882202420075       -0.62751734477376        0.93528319770026
C           -2.80544213186867       -2.10098645257784        1.07163571487095
C           -2.06748200016051        0.19840136765333        0.32953663055758
N           -0.84302579761433       -0.32559940709468       -0.13500728680489
C            0.06167259595729       -1.05799142483800        0.55932393022217
C            1.28792630892752       -1.37936918058780       -0.29815942558802
N            1.81287538321380       -0.16119699305478       -0.88725373361225
C            2.62229437879772       -0.36070190760740       -2.07344415675315
C            3.95910047714222       -1.09006017233629       -1.90465955117829
C            2.31984233111437        0.79260072792029        0.08922044724987
C            3.24004693840229        0.26066495199930        1.19251198750566
O           -0.06095883478387       -1.43546593074924        1.70342001920978
H           -1.21534383992650        2.12276968997138       -1.62743808840161
H           -0.35634424656775        2.37532182648835       -0.10788227874267
H           -1.66362446200522        3.46473674774360       -0.57629112386665
H           -3.73205655156180        3.13904350378715        0.41520571538100
H           -5.38109789686903        1.71990185828084        1.57128684560417
H           -4.93695323836155       -0.68178162587912        1.86681091708194
H           -2.05907225412726       -2.30502567883612        1.83832673850339
H           -2.43540545695051       -2.52112647930433        0.13697487176319
H           -3.73406552802280       -2.59713339467412        1.34156271921184
H           -0.47716000610009        0.08279345653163       -0.98610483716027
H            2.00740140489548       -1.92755218516696        0.32462096331251
H            0.96574075856186       -2.04077407817753       -1.10867310212403
H            2.00469497924504       -0.92234602223115       -2.78313338447004
H            2.80674807116108        0.62700553426331       -2.50730932788971
H            3.81713968658350       -2.04191131941996       -1.39862003865142
H            4.39095064924984       -1.28306448262650       -2.88381114523209
H            4.66333132548980       -0.48844380709691       -1.33642004056269
H            2.83130205201263        1.58099032325467       -0.46828127326333
H            1.44982702398555        1.24296318307039        0.58289584383150
H            2.68884879903099       -0.38775408237625        1.86858581163543
H            3.62022304821300        1.10162309013656        1.76745349896009
H            4.08470280590604       -0.28868562010500        0.78706011731359

 Bond Distances (Angstroems)
 ---------------------------
C1-C2=1.5011         C1-H18=1.0912        C1-H19=1.0887        C1-H20=1.0867        C2-C1=1.5011         C2-C3=1.3855         
C2-C8=1.4005         C3-C2=1.3855         C3-C4=1.3833         C3-H21=1.0804        C4-C3=1.3833         C4-C5=1.3809         
C4-H22=1.0797        C5-C4=1.3809         C5-C6=1.3894         C5-H23=1.0802        C6-C5=1.3894         C6-C7=1.4951         
C6-C8=1.3979         C7-C6=1.4951         C7-H24=1.0893        C7-H25=1.0895        C7-H26=1.0869        C8-C2=1.4005         
C8-C6=1.3979         C8-N9=1.4106         N9-C8=1.4106         N9-C10=1.3553        N9-H27=1.0124        C10-N9=1.3553        
C10-C11=1.5304       C10-O17=1.2110       C11-C10=1.5304       C11-N12=1.4514       C11-H28=1.0982       C11-H29=1.0946       
N12-C11=1.4514       N12-C13=1.4498       N12-C15=1.4561       C13-N12=1.4498       C13-C14=1.5322       C13-H30=1.0957       
C13-H31=1.0945       C14-C13=1.5322       C14-H32=1.0873       C14-H33=1.0874       C14-H34=1.0866       C15-N12=1.4561       
C15-C16=1.5320       C15-H35=1.0927       C15-H36=1.0970       C16-C15=1.5320       C16-H37=1.0869       C16-H38=1.0873       
C16-H39=1.0861       O17-C10=1.2110       H18-C1=1.0912        H19-C1=1.0887        H20-C1=1.0867        H21-C3=1.0804        
H22-C4=1.0797        H23-C5=1.0802        H24-C7=1.0893        H25-C7=1.0895        H26-C7=1.0869        H27-N9=1.0124        
H28-C11=1.0982       H29-C11=1.0946       H30-C13=1.0957       H31-C13=1.0945       H32-C14=1.0873       H33-C14=1.0874       
H34-C14=1.0866       H35-C15=1.0927       H36-C15=1.0970       H37-C16=1.0869       H38-C16=1.0873       H39-C16=1.0861       
 C  H  Rav=1.0889 sigma=0.0051  Rmin=1.0797  Rmax=1.0982    21
 C  C  Rav=1.4480 sigma=0.0652  Rmin=1.3809  Rmax=1.5322    11
 N  H  Rav=1.0124 sigma=0.0000  Rmin=1.0124  Rmax=1.0124     1
 N  C  Rav=1.4246 sigma=0.0383  Rmin=1.3553  Rmax=1.4561     5
 O  C  Rav=1.2110 sigma=0.0000  Rmin=1.2110  Rmax=1.2110     1

 selected bond angles (degree)
 --------------------
H18-C1-C2=110.88               H19-C1-C2=111.09               H19-C1-H18=108.01              H20-C1-C2=110.25               
H20-C1-H18=108.05              H20-C1-H19=108.45              C3-C2-C1=120.29                C8-C2-C1=120.66                
C8-C2-C3=119.05                C4-C3-C2=120.71                H21-C3-C2=119.34               H21-C3-C4=119.94               
C5-C4-C3=119.72                H22-C4-C3=120.08               H22-C4-C5=120.20               C6-C5-C4=121.29                
H23-C5-C4=119.76               H23-C5-C6=118.94               C7-C6-C5=119.92                C8-C6-C5=118.41                
C8-C6-C7=121.65                H24-C7-C6=110.28               H25-C7-C6=110.50               H25-C7-H24=107.39              
H26-C7-C6=110.52               H26-C7-H24=108.97              H26-C7-H25=109.10              C6-C8-C2=120.74                
N9-C8-C2=118.28                N9-C8-C6=120.93                C10-N9-C8=127.70               H27-N9-C8=116.15               
H27-N9-C10=114.04              C11-C10-N9=111.18              O17-C10-N9=125.79              O17-C10-C11=123.03             

 selected dihedral angles (degree)
 ---------------------------------
C3-C2-C1-H18=245.85           C3-C2-C1-H19=125.73           C3-C2-C1-H20=  5.47           C8-C2-C1-H18= 65.63           
C8-C2-C1-H19=305.51           C8-C2-C1-H20=185.25           C4-C3-C2-C1=179.73            C4-C3-C2-C8=359.94            
H21-C3-C2-C1=359.30           H21-C3-C2-C8=179.52           C5-C4-C3-C2=358.37            C5-C4-C3-H21=178.80           
H22-C4-C3-C2=179.24           H22-C4-C3-H21=359.67          C6-C5-C4-C3=  0.84            C6-C5-C4-H22=179.97           
H23-C5-C4-C3=181.64           H23-C5-C4-H22=  0.77          C7-C6-C5-C4=183.22            C7-C6-C5-H23=  2.43           
C8-C6-C5-C4=  1.59            C8-C6-C5-H23=180.80           H24-C7-C6-C5=251.39           H24-C7-C6-C8= 73.07           
H25-C7-C6-C5=132.81           H25-C7-C6-C8=314.50           H26-C7-C6-C5= 11.95           H26-C7-C6-C8=193.63           
C6-C8-C2-C1=182.77            C6-C8-C2-C3=  2.55            N9-C8-C2-C1=  0.18            N9-C8-C2-C3=179.96            
C2-C8-C6-C5=356.71            C2-C8-C6-C7=175.05            N9-C8-C6-C5=179.37            N9-C8-C6-C7=357.70            
C10-N9-C8-C2=128.83           C10-N9-C8-C6=306.24           H27-N9-C8-C2=326.47           H27-N9-C8-C6=143.88           
C11-C10-N9-C8=182.46          C11-C10-N9-H27=345.13         O17-C10-N9-C8=  3.17          O17-C10-N9-H27=165.84         
           -------------------------------------------------
          |                Final Singlepoint                |
           -------------------------------------------------

          ...................................................
          :                      SETUP                      :
          :.................................................:
          :  # basis functions                  90          :
          :  # atomic orbitals                  90          :
          :  # shells                           56          :
          :  # electrons                        94          :
          :  max. iterations                   250          :
          :  Hamiltonian                  GFN2-xTB          :
          :  restarted?                      false          :
          :  GBSA solvation                  false          :
          :  PC potential                    false          :
          :  electronic temp.          300.0000000     K    :
          :  accuracy                    1.0000000          :
          :  -> integral cutoff          0.2500000E+02      :
          :  -> integral neglect         0.1000000E-07      :
          :  -> SCF convergence          0.1000000E-05 Eh   :
          :  -> wf. convergence          0.1000000E-03 e    :
          :  Broyden damping             0.4000000          :
          :  net charge                          0          :
          :  unpaired electrons                  0          :
          ...................................................

 iter      E             dE          RMSdq      gap      omega  full diag
   1    -51.8909879 -0.518910E+02  0.493E-05    3.47       0.0  T
   2    -51.8909879 -0.154472E-10  0.298E-05    3.47     536.9  T
   3    -51.8909879 -0.512301E-11  0.194E-05    3.47     824.4  T

   *** convergence criteria satisfied after 3 iterations ***

         #    Occupation            Energy/Eh            Energy/eV
      -------------------------------------------------------------
         1        2.0000           -0.6950773             -18.9140
       ...           ...                  ...                  ...
        41        2.0000           -0.4316798             -11.7466
        42        2.0000           -0.4228602             -11.5066
        43        2.0000           -0.4161940             -11.3252
        44        2.0000           -0.3938107             -10.7161
        45        2.0000           -0.3858432             -10.4993
        46        2.0000           -0.3756276             -10.2213
        47        2.0000           -0.3532870              -9.6134 (HOMO)
        48                         -0.2259383              -6.1481 (LUMO)
        49                         -0.2134624              -5.8086
        50                         -0.1941546              -5.2832
        51                         -0.0878716              -2.3911
        52                          0.0116151               0.3161
       ...                                ...                  ...
        90                          0.6800886              18.5062
      -------------------------------------------------------------
                  HL-Gap            0.1273487 Eh            3.4653 eV
             Fermi-level           -0.2896126 Eh           -7.8808 eV

 SCC (total)                   0 d,  0 h,  0 min,  0.029 sec
 SCC setup                      ...        0 min,  0.000 sec (  0.802%)
 Dispersion                     ...        0 min,  0.000 sec (  0.862%)
 classical contributions        ...        0 min,  0.000 sec (  0.409%)
 integral evaluation            ...        0 min,  0.006 sec ( 19.672%)
 iterations                     ...        0 min,  0.005 sec ( 16.620%)
 molecular gradient             ...        0 min,  0.018 sec ( 61.233%)
 printout                       ...        0 min,  0.000 sec (  0.379%)

         :::::::::::::::::::::::::::::::::::::::::::::::::::::
         ::                     SUMMARY                     ::
         :::::::::::::::::::::::::::::::::::::::::::::::::::::
         :: total energy             -51.131465233455 Eh    ::
         :: gradient norm              0.000581441737 Eh/a0 ::
         :: HOMO-LUMO gap              3.465333612054 eV    ::
         ::.................................................::
         :: SCC energy               -51.890632882465 Eh    ::
         :: -> isotropic ES            0.047060531465 Eh    ::
         :: -> anisotropic ES          0.007730271239 Eh    ::
         :: -> anisotropic XC          0.027112493879 Eh    ::
         :: -> dispersion             -0.037467782365 Eh    ::
         :: repulsion energy           0.759167649011 Eh    ::
         :: add. restraining           0.000000000000 Eh    ::
         :: total charge               0.000000000000 e     ::
         :::::::::::::::::::::::::::::::::::::::::::::::::::::

           -------------------------------------------------
          |                Property Printout                |
           -------------------------------------------------

    * Orbital Energies and Occupations

         #    Occupation            Energy/Eh            Energy/eV
      -------------------------------------------------------------
         1        2.0000           -0.6950773             -18.9140
       ...           ...                  ...                  ...
        35        2.0000           -0.4650897             -12.6557
        36        2.0000           -0.4522737             -12.3070
        37        2.0000           -0.4498018             -12.2397
        38        2.0000           -0.4481931             -12.1960
        39        2.0000           -0.4421564             -12.0317
        40        2.0000           -0.4344594             -11.8222
        41        2.0000           -0.4316798             -11.7466
        42        2.0000           -0.4228602             -11.5066
        43        2.0000           -0.4161940             -11.3252
        44        2.0000           -0.3938107             -10.7161
        45        2.0000           -0.3858432             -10.4993
        46        2.0000           -0.3756276             -10.2213
        47        2.0000           -0.3532870              -9.6134 (HOMO)
        48                         -0.2259383              -6.1481 (LUMO)
        49                         -0.2134624              -5.8086
        50                         -0.1941546              -5.2832
        51                         -0.0878716              -2.3911
        52                          0.0116151               0.3161
        53                          0.0195403               0.5317
        54                          0.0673075               1.8315
        55                          0.0780973               2.1251
        56                          0.0911199               2.4795
        57                          0.0996187               2.7108
        58                          0.1130606               3.0765
       ...                                ...                  ...
        90                          0.6800886              18.5062
      -------------------------------------------------------------
                  HL-Gap            0.1273487 Eh            3.4653 eV
             Fermi-level           -0.2896126 Eh           -7.8808 eV

     #   Z          covCN         q      C6AA      α(0)
     1   6 C        3.757    -0.108    22.626     6.782
     2   6 C        2.968    -0.004    28.118     8.698
     3   6 C        2.925    -0.045    29.113     8.848
     4   6 C        2.915    -0.038    28.944     8.822
     5   6 C        2.927    -0.044    29.081     8.844
     6   6 C        2.965     0.014    27.708     8.634
     7   6 C        3.758    -0.111    22.676     6.789
     8   6 C        2.914     0.055    26.759     8.483
     9   7 N        2.696    -0.165    24.575     7.363
    10   6 C        2.748     0.274    22.372     7.745
    11   6 C        3.757    -0.021    21.007     6.535
    12   7 N        2.726    -0.192    25.160     7.450
    13   6 C        3.745     0.010    20.476     6.455
    14   6 C        3.749    -0.109    22.645     6.787
    15   6 C        3.746     0.012    20.438     6.449
    16   6 C        3.750    -0.111    22.679     6.792
    17   8 O        0.857    -0.425    22.185     6.315
    18   1 H        0.924     0.040     2.453     2.449
    19   1 H        0.925     0.046     2.374     2.409
    20   1 H        0.925     0.046     2.372     2.408
    21   1 H        0.926     0.031     2.570     2.507
    22   1 H        0.926     0.032     2.560     2.502
    23   1 H        0.926     0.035     2.516     2.480
    24   1 H        0.925     0.081     1.965     2.192
    25   1 H        0.925     0.038     2.475     2.460
    26   1 H        0.925     0.040     2.455     2.450
    27   1 H        0.860     0.189     1.165     1.691
    28   1 H        0.923     0.043     2.416     2.431
    29   1 H        0.924     0.043     2.405     2.425
    30   1 H        0.924     0.029     2.604     2.523
    31   1 H        0.924     0.033     2.549     2.497
    32   1 H        0.925     0.037     2.491     2.468
    33   1 H        0.925     0.034     2.536     2.491
    34   1 H        0.925     0.037     2.487     2.466
    35   1 H        0.924     0.032     2.560     2.502
    36   1 H        0.924     0.026     2.650     2.546
    37   1 H        0.925     0.047     2.355     2.400
    38   1 H        0.925     0.034     2.536     2.491
    39   1 H        0.925     0.038     2.480     2.463

 Mol. C6AA /au·bohr⁶  :      13882.796334
 Mol. C8AA /au·bohr⁸  :     311501.347612
 Mol. α(0) /au        :        181.040814


Wiberg/Mayer (AO) data.
largest (>0.10) Wiberg bond orders for each atom

 ---------------------------------------------------------------------------
     #   Z sym  total        # sym  WBO       # sym  WBO       # sym  WBO
 ---------------------------------------------------------------------------
     1   6 C    3.996 --     2 C    1.025    20 H    0.984    19 H    0.970
                            18 H    0.969
     2   6 C    3.988 --     3 C    1.426     8 C    1.355     1 C    1.025
                             5 C    0.103
     3   6 C    3.990 --     4 C    1.428     2 C    1.426    21 H    0.968
                             6 C    0.101
     4   6 C    3.992 --     5 C    1.447     3 C    1.428    22 H    0.971
     5   6 C    3.991 --     4 C    1.447     6 C    1.406    23 H    0.968
                             2 C    0.103
     6   6 C    3.988 --     5 C    1.406     8 C    1.363     7 C    1.033
                             3 C    0.101
     7   6 C    3.994 --     6 C    1.033    26 H    0.984    25 H    0.974
                            24 H    0.953
     8   6 C    3.958 --     6 C    1.363     2 C    1.355     9 N    1.039
     9   7 N    3.478 --    10 C    1.228     8 C    1.039    27 H    0.919
                            17 O    0.182
    10   6 C    3.951 --    17 O    1.701     9 N    1.228    11 C    0.945
    11   6 C    3.985 --    12 N    1.002    28 H    0.962    29 H    0.958
                            10 C    0.945
    12   7 N    3.149 --    13 C    1.007    11 C    1.002    15 C    1.001
    13   6 C    3.986 --    12 N    1.007    14 C    1.003    30 H    0.972
                            31 H    0.972
    14   6 C    3.997 --    13 C    1.003    32 H    0.987    33 H    0.986
                            34 H    0.985
    15   6 C    3.985 --    16 C    1.006    12 N    1.001    35 H    0.974
                            36 H    0.967
    16   6 C    3.996 --    15 C    1.006    38 H    0.986    37 H    0.985
                            39 H    0.983
    17   8 O    2.021 --    10 C    1.701     9 N    0.182
    18   1 H    0.998 --     1 C    0.969
    19   1 H    0.998 --     1 C    0.970
    20   1 H    0.997 --     1 C    0.984
    21   1 H    0.998 --     3 C    0.968
    22   1 H    0.999 --     4 C    0.971
    23   1 H    0.998 --     5 C    0.968
    24   1 H    0.993 --     7 C    0.953
    25   1 H    0.998 --     7 C    0.974
    26   1 H    0.998 --     7 C    0.984
    27   1 H    0.964 --     9 N    0.919
    28   1 H    0.998 --    11 C    0.962
    29   1 H    0.998 --    11 C    0.958
    30   1 H    0.999 --    13 C    0.972
    31   1 H    0.998 --    13 C    0.972
    32   1 H    0.999 --    14 C    0.987
    33   1 H    0.999 --    14 C    0.986
    34   1 H    0.999 --    14 C    0.985
    35   1 H    0.999 --    15 C    0.974
    36   1 H    0.999 --    15 C    0.967
    37   1 H    0.998 --    16 C    0.985
    38   1 H    0.999 --    16 C    0.986
    39   1 H    0.998 --    16 C    0.983
 ---------------------------------------------------------------------------

Topologies differ in total number of bonds
Writing topology from bond orders to xtbtopo.mol

molecular dipole:
                 x           y           z       tot (Debye)
 q only:        0.114       0.460      -1.202
   full:        0.499       0.455      -1.425       4.007
molecular quadrupole (traceless):
                xx          xy          yy          xz          yz          zz
 q only:        3.857       0.568       0.757      -1.289       3.042      -4.614
  q+dip:        5.677      -0.442       2.169      -2.820       3.728      -7.846
   full:        5.002       0.193       1.525      -1.603       4.635      -6.527

           -------------------------------------------------
          |                Geometry Summary                 |
           -------------------------------------------------

      molecular mass/u    :      234.3378104
   center of mass at/Å    :       -0.4313053      -0.0272538       0.1744411
  moments of inertia/u·Å² :        0.5552196E+03   0.1953511E+04   0.2186130E+04
rotational constants/cm⁻¹ :        0.3036210E-01   0.8629404E-02   0.7711175E-02

 * 36 selected distances

     #   Z          #   Z                                           value/Å
     2   6 C        3   6 C                                       1.3854625
     3   6 C        4   6 C                                       1.3832946
     4   6 C        5   6 C                                       1.3808668
     5   6 C        6   6 C                                       1.3893985
     2   6 C        8   6 C                                       1.4004532
     6   6 C        8   6 C                                       1.3978980
     8   6 C        9   7 N                                       1.4105571
     9   7 N       10   6 C                                       1.3553499
    11   6 C       12   7 N                                       1.4513950
    12   7 N       13   6 C                                       1.4498308
    13   6 C       14   6 C                                       1.5321562 (max)
    12   7 N       15   6 C                                       1.4561071
    15   6 C       16   6 C                                       1.5319872
    10   6 C       17   8 O                                       1.2109837
     1   6 C       18   1 H                                       1.0912484
     1   6 C       19   1 H                                       1.0887118
     1   6 C       20   1 H                                       1.0867273
     3   6 C       21   1 H                                       1.0804145
     4   6 C       22   1 H                                       1.0796767
     5   6 C       23   1 H                                       1.0802272
     7   6 C       24   1 H                                       1.0892729
     7   6 C       25   1 H                                       1.0895118
     7   6 C       26   1 H                                       1.0869057
     9   7 N       27   1 H                                       1.0124276 (min)
    11   6 C       28   1 H                                       1.0981824
    11   6 C       29   1 H                                       1.0946198
    13   6 C       30   1 H                                       1.0956880
    13   6 C       31   1 H                                       1.0944535
    14   6 C       32   1 H                                       1.0873131
    14   6 C       33   1 H                                       1.0874205
    14   6 C       34   1 H                                       1.0866369
    15   6 C       35   1 H                                       1.0926837
    15   6 C       36   1 H                                       1.0970272
    16   6 C       37   1 H                                       1.0868959
    16   6 C       38   1 H                                       1.0873373
    16   6 C       39   1 H                                       1.0861036

 * 5 distinct bonds (by element types)

   Z      Z             #   av. dist./Å        max./Å        min./Å
   1 H    6 C          21     1.0889075     1.0981824     1.0796767
   6 C    6 C           8     1.4251896     1.5321562     1.3808668
   1 H    7 N           1     1.0124276     1.0124276     1.0124276
   6 C    7 N           5     1.4246480     1.4561071     1.3553499
   6 C    8 O           1     1.2109837     1.2109837     1.2109837


optimized geometry written to: xtbopt.xyz


           -------------------------------------------------
          | TOTAL ENERGY              -51.131465233455 Eh   |
          | GRADIENT NORM               0.000581441737 Eh/α |
          | HOMO-LUMO GAP               3.465333612054 eV   |
           -------------------------------------------------

------------------------------------------------------------------------
 * finished run on 2025/05/15 at 16:05:51.777     
------------------------------------------------------------------------
 total:
 * wall-time:     0 d,  0 h,  0 min,  0.728 sec
 *  cpu-time:     0 d,  0 h,  0 min,  0.712 sec
 * ratio c/w:     0.977 speedup
 SCF:
 * wall-time:     0 d,  0 h,  0 min,  0.043 sec
 *  cpu-time:     0 d,  0 h,  0 min,  0.042 sec
 * ratio c/w:     0.995 speedup
 ANC optimizer:
 * wall-time:     0 d,  0 h,  0 min,  0.674 sec
 *  cpu-time:     0 d,  0 h,  0 min,  0.659 sec
 * ratio c/w:     0.978 speedup



----- Single-point -----
      -----------------------------------------------------------      
     |                   =====================                   |     
     |                           x T B                           |     
     |                   =====================                   |     
     |                         S. Grimme                         |     
     |          Mulliken Center for Theoretical Chemistry        |     
     |                    University of Bonn                     |     
      -----------------------------------------------------------      

   * xtb version 6.7.1 (edcfbbe) compiled by 'conda@3ef47c1a292c' on 2024-11-25

   xtb is free software: you can redistribute it and/or modify it under
   the terms of the GNU Lesser General Public License as published by
   the Free Software Foundation, either version 3 of the License, or
   (at your option) any later version.
   
   xtb is distributed in the hope that it will be useful,
   but WITHOUT ANY WARRANTY; without even the implied warranty of
   MERCHANTABILITY or FITNESS FOR A PARTICULAR PURPOSE.  See the
   GNU Lesser General Public License for more details.
   
   Cite this work as:
   * C. Bannwarth, E. Caldeweyher, S. Ehlert, A. Hansen, P. Pracht,
     J. Seibert, S. Spicher, S. Grimme, WIREs Comput. Mol. Sci., 2020, 11,
     e01493. DOI: 10.1002/wcms.1493
   
   for GFN2-xTB:
   * C. Bannwarth, S. Ehlert and S. Grimme., J. Chem. Theory Comput., 2019,
     15, 1652-1671. DOI: 10.1021/acs.jctc.8b01176
   for GFN1-xTB:
   * S. Grimme, C. Bannwarth, P. Shushkov, J. Chem. Theory Comput., 2017,
     13, 1989-2009. DOI: 10.1021/acs.jctc.7b00118
   for GFN0-xTB:
   * P. Pracht, E. Caldeweyher, S. Ehlert, S. Grimme, ChemRxiv, 2019, preprint.
     DOI: 10.26434/chemrxiv.8326202.v1
   for GFN-FF:
   * S. Spicher and S. Grimme, Angew. Chem. Int. Ed., 2020, 59, 15665-15673.
     DOI: 10.1002/anie.202004239
   
   for ALPB and GBSA implicit solvation:
   * S. Ehlert, M. Stahn, S. Spicher, S. Grimme, J. Chem. Theory Comput.,
     2021, 17, 4250-4261. DOI: 10.1021/acs.jctc.1c00471
   
   for ddCOSMO and CPCM-X implicit solvation:
   * M. Stahn, S. Ehlert, S. Grimme, J. Phys. Chem. A,
     2023, XX, XXXX-XXXX. DOI: 10.1021/acs.jpca.3c04382
   
   for DFT-D4:
   * E. Caldeweyher, C. Bannwarth and S. Grimme, J. Chem. Phys., 2017,
     147, 034112. DOI: 10.1063/1.4993215
   * E. Caldeweyher, S. Ehlert, A. Hansen, H. Neugebauer, S. Spicher,
     C. Bannwarth and S. Grimme, J. Chem. Phys., 2019, 150, 154122.
     DOI: 10.1063/1.5090222
   * E. Caldeweyher, J.-M. Mewes, S. Ehlert and S. Grimme, Phys. Chem. Chem. Phys.
     2020, 22, 8499-8512. DOI: 10.1039/D0CP00502A
   
   for sTDA-xTB:
   * S. Grimme and C. Bannwarth, J. Chem. Phys., 2016, 145, 054103.
     DOI: 10.1063/1.4959605
   
   in the mass-spec context:
   * V. Asgeirsson, C. Bauer and S. Grimme, Chem. Sci., 2017, 8, 4879.
     DOI: 10.1039/c7sc00601b
   * J. Koopman and S. Grimme, ACS Omega 2019, 4, 12, 15120-15133.
     DOI: 10.1021/acsomega.9b02011
   
   for metadynamics refer to:
   * S. Grimme, J. Chem. Theory Comput., 2019, 155, 2847-2862
     DOI: 10.1021/acs.jctc.9b00143
   
   for SPH calculations refer to:
   * S. Spicher and S. Grimme, J. Chem. Theory Comput., 2021, 17, 1701-1714
     DOI: 10.1021/acs.jctc.0c01306
   
   for ONIOM refer to:
   * C. Plett, A. Katbashev, S. Ehlert, S. Grimme, M. Bursch,
     Phys. Chem. Chem. Phys., 2023, 25, 17860-17868. DOI: 10.1039/D3CP02178E
   
   for DIPRO refer to:
   * J. Kohn, N. Gildemeister, S. Grimme, D. Fazzi, A. Hansen,
     J. Chem. Phys., 2023, just accepted.
   
   for PTB refer to:
   * S. Grimme, M. Mueller, A. Hansen, J. Chem. Phys., 2023, 158, 124111.
     DOI: 10.1063/5.0137838
   
   with help from (in alphabetical order)
   P. Atkinson, C. Bannwarth, F. Bohle, G. Brandenburg, E. Caldeweyher
   M. Checinski, S. Dohm, S. Ehlert, S. Ehrlich, I. Gerasimov, C. Hölzer
   A. Katbashev, J. Kohn, J. Koopman, C. Lavigne, S. Lehtola, F. März, M. Müller,
   F. Musil, H. Neugebauer, J. Pisarek, C. Plett, P. Pracht, F. Pultar,
   J. Seibert, P. Shushkov, S. Spicher, M. Stahn, M. Steiner, T. Strunk,
   J. Stückrath, T. Rose, and J. Unsleber
   
 * started run on 2025/05/15 at 16:05:51.796     
   ID    Z sym.   atoms
    1    6 C      1-8, 10, 11, 13-16
    2    7 N      9, 12
    3    8 O      17
    4    1 H      18-39

           -------------------------------------------------
          |                Calculation Setup                |
           -------------------------------------------------

          program call               : xtb /rds/general/user/hgt20/home/callum/QDESCP/Lidocaine_rdkit_conf_15/Lidocaine_rdkit_conf_15.xyz --acc 1 --gfn 2 --chrg 0 --uhf 0 --etemp 300 --input /rds/general/user/hgt20/home/callum/QDESCP/Lidocaine_rdkit_conf_15/Lidocaine_rdkit_conf_15_xtb.inp -P 1
          hostname                   : login-c
          coordinate file            : /rds/general/user/hgt20/home/callum/QDESCP/Lidocaine_rdkit_conf_15/Lidocaine_rdkit_conf_15.xyz
          omp threads                :                     1


           -------------------------------------------------
          |                 G F N 2 - x T B                 |
           -------------------------------------------------

        Reference                      10.1021/acs.jctc.8b01176
      * Hamiltonian:
        H0-scaling (s, p, d)           1.850000    2.230000    2.230000
        zeta-weighting                 0.500000
      * Dispersion:
        s8                             2.700000
        a1                             0.520000
        a2                             5.000000
        s9                             5.000000
      * Repulsion:
        kExp                           1.500000    1.000000
        rExp                           1.000000
      * Coulomb:
        alpha                          2.000000
        third order                    shell-resolved
        anisotropic                    true
        a3                             3.000000
        a5                             4.000000
        cn-shift                       1.200000
        cn-exp                         4.000000
        max-rad                        5.000000

q/qsh data taken from xtbrestart
CAMM data taken from xtbrestart

          ...................................................
          :                      SETUP                      :
          :.................................................:
          :  # basis functions                  90          :
          :  # atomic orbitals                  90          :
          :  # shells                           56          :
          :  # electrons                        94          :
          :  max. iterations                   250          :
          :  Hamiltonian                  GFN2-xTB          :
          :  restarted?                       true          :
          :  GBSA solvation                  false          :
          :  PC potential                    false          :
          :  electronic temp.          300.0000000     K    :
          :  accuracy                    1.0000000          :
          :  -> integral cutoff          0.2500000E+02      :
          :  -> integral neglect         0.1000000E-07      :
          :  -> SCF convergence          0.1000000E-05 Eh   :
          :  -> wf. convergence          0.1000000E-03 e    :
          :  Broyden damping             0.4000000          :
          :  net charge                          0          :
          :  unpaired electrons                  0          :
          ...................................................

 iter      E             dE          RMSdq      gap      omega  full diag
   1    -51.8909879 -0.518910E+02  0.403E-06    3.47       0.0  T
   2    -51.8909879 -0.781597E-13  0.247E-06    3.47    6486.0  T
   3    -51.8909879 -0.362377E-12  0.131E-06    3.47   12226.1  T

   *** convergence criteria satisfied after 3 iterations ***

         #    Occupation            Energy/Eh            Energy/eV
      -------------------------------------------------------------
         1        2.0000           -0.6950772             -18.9140
       ...           ...                  ...                  ...
        41        2.0000           -0.4316798             -11.7466
        42        2.0000           -0.4228602             -11.5066
        43        2.0000           -0.4161939             -11.3252
        44        2.0000           -0.3938106             -10.7161
        45        2.0000           -0.3858431             -10.4993
        46        2.0000           -0.3756275             -10.2213
        47        2.0000           -0.3532869              -9.6134 (HOMO)
        48                         -0.2259382              -6.1481 (LUMO)
        49                         -0.2134624              -5.8086
        50                         -0.1941545              -5.2832
        51                         -0.0878716              -2.3911
        52                          0.0116152               0.3161
       ...                                ...                  ...
        90                          0.6800887              18.5062
      -------------------------------------------------------------
                  HL-Gap            0.1273487 Eh            3.4653 eV
             Fermi-level           -0.2896125 Eh           -7.8808 eV

 SCC (total)                   0 d,  0 h,  0 min,  0.030 sec
 SCC setup                      ...        0 min,  0.000 sec (  1.002%)
 Dispersion                     ...        0 min,  0.000 sec (  1.271%)
 classical contributions        ...        0 min,  0.000 sec (  0.434%)
 integral evaluation            ...        0 min,  0.006 sec ( 19.254%)
 iterations                     ...        0 min,  0.006 sec ( 18.511%)
 molecular gradient             ...        0 min,  0.018 sec ( 58.930%)
 printout                       ...        0 min,  0.000 sec (  0.573%)

         :::::::::::::::::::::::::::::::::::::::::::::::::::::
         ::                     SUMMARY                     ::
         :::::::::::::::::::::::::::::::::::::::::::::::::::::
         :: total energy             -51.131465233457 Eh    ::
         :: gradient norm              0.000581469284 Eh/a0 ::
         :: HOMO-LUMO gap              3.465333201404 eV    ::
         ::.................................................::
         :: SCC energy               -51.890632882468 Eh    ::
         :: -> isotropic ES            0.047060679211 Eh    ::
         :: -> anisotropic ES          0.007730268180 Eh    ::
         :: -> anisotropic XC          0.027112497185 Eh    ::
         :: -> dispersion             -0.037467781648 Eh    ::
         :: repulsion energy           0.759167649011 Eh    ::
         :: add. restraining           0.000000000000 Eh    ::
         :: total charge               0.000000000000 e     ::
         :::::::::::::::::::::::::::::::::::::::::::::::::::::

           -------------------------------------------------
          |                Property Printout                |
           -------------------------------------------------

    * Orbital Energies and Occupations

         #    Occupation            Energy/Eh            Energy/eV
      -------------------------------------------------------------
         1        2.0000           -0.6950772             -18.9140
       ...           ...                  ...                  ...
        35        2.0000           -0.4650896             -12.6557
        36        2.0000           -0.4522737             -12.3070
        37        2.0000           -0.4498018             -12.2397
        38        2.0000           -0.4481931             -12.1960
        39        2.0000           -0.4421564             -12.0317
        40        2.0000           -0.4344594             -11.8222
        41        2.0000           -0.4316798             -11.7466
        42        2.0000           -0.4228602             -11.5066
        43        2.0000           -0.4161939             -11.3252
        44        2.0000           -0.3938106             -10.7161
        45        2.0000           -0.3858431             -10.4993
        46        2.0000           -0.3756275             -10.2213
        47        2.0000           -0.3532869              -9.6134 (HOMO)
        48                         -0.2259382              -6.1481 (LUMO)
        49                         -0.2134624              -5.8086
        50                         -0.1941545              -5.2832
        51                         -0.0878716              -2.3911
        52                          0.0116152               0.3161
        53                          0.0195404               0.5317
        54                          0.0673076               1.8315
        55                          0.0780974               2.1251
        56                          0.0911200               2.4795
        57                          0.0996188               2.7108
        58                          0.1130606               3.0765
       ...                                ...                  ...
        90                          0.6800887              18.5062
      -------------------------------------------------------------
                  HL-Gap            0.1273487 Eh            3.4653 eV
             Fermi-level           -0.2896125 Eh           -7.8808 eV

     #   Z          covCN         q      C6AA      α(0)
     1   6 C        3.757    -0.108    22.626     6.782
     2   6 C        2.968    -0.004    28.118     8.698
     3   6 C        2.925    -0.045    29.113     8.848
     4   6 C        2.915    -0.038    28.944     8.822
     5   6 C        2.927    -0.044    29.081     8.844
     6   6 C        2.965     0.014    27.708     8.634
     7   6 C        3.758    -0.111    22.676     6.789
     8   6 C        2.914     0.055    26.759     8.483
     9   7 N        2.696    -0.165    24.575     7.363
    10   6 C        2.748     0.274    22.372     7.745
    11   6 C        3.757    -0.021    21.007     6.535
    12   7 N        2.726    -0.192    25.160     7.450
    13   6 C        3.745     0.010    20.476     6.455
    14   6 C        3.749    -0.109    22.645     6.787
    15   6 C        3.746     0.012    20.438     6.449
    16   6 C        3.750    -0.111    22.679     6.792
    17   8 O        0.857    -0.425    22.185     6.315
    18   1 H        0.924     0.040     2.453     2.449
    19   1 H        0.925     0.046     2.374     2.409
    20   1 H        0.925     0.046     2.372     2.408
    21   1 H        0.926     0.031     2.570     2.507
    22   1 H        0.926     0.032     2.560     2.502
    23   1 H        0.926     0.035     2.516     2.480
    24   1 H        0.925     0.081     1.965     2.192
    25   1 H        0.925     0.038     2.475     2.460
    26   1 H        0.925     0.040     2.455     2.450
    27   1 H        0.860     0.189     1.165     1.691
    28   1 H        0.923     0.043     2.416     2.431
    29   1 H        0.924     0.043     2.405     2.425
    30   1 H        0.924     0.029     2.604     2.523
    31   1 H        0.924     0.033     2.549     2.497
    32   1 H        0.925     0.037     2.491     2.468
    33   1 H        0.925     0.034     2.536     2.491
    34   1 H        0.925     0.037     2.487     2.466
    35   1 H        0.924     0.032     2.560     2.502
    36   1 H        0.924     0.026     2.650     2.546
    37   1 H        0.925     0.047     2.355     2.400
    38   1 H        0.925     0.034     2.536     2.491
    39   1 H        0.925     0.038     2.480     2.463

 Mol. C6AA /au·bohr⁶  :      13882.796417
 Mol. C8AA /au·bohr⁸  :     311501.348794
 Mol. α(0) /au        :        181.040815


Wiberg/Mayer (AO) data.
largest (>0.10) Wiberg bond orders for each atom

 ---------------------------------------------------------------------------
     #   Z sym  total        # sym  WBO       # sym  WBO       # sym  WBO
 ---------------------------------------------------------------------------
     1   6 C    3.996 --     2 C    1.025    20 H    0.984    19 H    0.970
                            18 H    0.969
     2   6 C    3.988 --     3 C    1.426     8 C    1.355     1 C    1.025
                             5 C    0.103
     3   6 C    3.990 --     4 C    1.428     2 C    1.426    21 H    0.968
                             6 C    0.101
     4   6 C    3.992 --     5 C    1.447     3 C    1.428    22 H    0.971
     5   6 C    3.991 --     4 C    1.447     6 C    1.406    23 H    0.968
                             2 C    0.103
     6   6 C    3.988 --     5 C    1.406     8 C    1.363     7 C    1.033
                             3 C    0.101
     7   6 C    3.994 --     6 C    1.033    26 H    0.984    25 H    0.974
                            24 H    0.953
     8   6 C    3.958 --     6 C    1.363     2 C    1.355     9 N    1.039
     9   7 N    3.478 --    10 C    1.228     8 C    1.039    27 H    0.919
                            17 O    0.182
    10   6 C    3.951 --    17 O    1.701     9 N    1.228    11 C    0.945
    11   6 C    3.985 --    12 N    1.002    28 H    0.962    29 H    0.958
                            10 C    0.945
    12   7 N    3.149 --    13 C    1.007    11 C    1.002    15 C    1.001
    13   6 C    3.986 --    12 N    1.007    14 C    1.003    30 H    0.972
                            31 H    0.972
    14   6 C    3.997 --    13 C    1.003    32 H    0.987    33 H    0.986
                            34 H    0.985
    15   6 C    3.985 --    16 C    1.006    12 N    1.001    35 H    0.974
                            36 H    0.967
    16   6 C    3.996 --    15 C    1.006    38 H    0.986    37 H    0.985
                            39 H    0.983
    17   8 O    2.021 --    10 C    1.701     9 N    0.182
    18   1 H    0.998 --     1 C    0.969
    19   1 H    0.998 --     1 C    0.970
    20   1 H    0.997 --     1 C    0.984
    21   1 H    0.998 --     3 C    0.968
    22   1 H    0.999 --     4 C    0.971
    23   1 H    0.998 --     5 C    0.968
    24   1 H    0.993 --     7 C    0.953
    25   1 H    0.998 --     7 C    0.974
    26   1 H    0.998 --     7 C    0.984
    27   1 H    0.964 --     9 N    0.919
    28   1 H    0.998 --    11 C    0.962
    29   1 H    0.998 --    11 C    0.958
    30   1 H    0.999 --    13 C    0.972
    31   1 H    0.998 --    13 C    0.972
    32   1 H    0.999 --    14 C    0.987
    33   1 H    0.999 --    14 C    0.986
    34   1 H    0.999 --    14 C    0.985
    35   1 H    0.999 --    15 C    0.974
    36   1 H    0.999 --    15 C    0.967
    37   1 H    0.998 --    16 C    0.985
[...]
   for GFN1-xTB:
   * S. Grimme, C. Bannwarth, P. Shushkov, J. Chem. Theory Comput., 2017,
     13, 1989-2009. DOI: 10.1021/acs.jctc.7b00118
   for GFN0-xTB:
   * P. Pracht, E. Caldeweyher, S. Ehlert, S. Grimme, ChemRxiv, 2019, preprint.
     DOI: 10.26434/chemrxiv.8326202.v1
   for GFN-FF:
   * S. Spicher and S. Grimme, Angew. Chem. Int. Ed., 2020, 59, 15665-15673.
     DOI: 10.1002/anie.202004239
   
   for ALPB and GBSA implicit solvation:
   * S. Ehlert, M. Stahn, S. Spicher, S. Grimme, J. Chem. Theory Comput.,
     2021, 17, 4250-4261. DOI: 10.1021/acs.jctc.1c00471
   
   for ddCOSMO and CPCM-X implicit solvation:
   * M. Stahn, S. Ehlert, S. Grimme, J. Phys. Chem. A,
     2023, XX, XXXX-XXXX. DOI: 10.1021/acs.jpca.3c04382
   
   for DFT-D4:
   * E. Caldeweyher, C. Bannwarth and S. Grimme, J. Chem. Phys., 2017,
     147, 034112. DOI: 10.1063/1.4993215
   * E. Caldeweyher, S. Ehlert, A. Hansen, H. Neugebauer, S. Spicher,
     C. Bannwarth and S. Grimme, J. Chem. Phys., 2019, 150, 154122.
     DOI: 10.1063/1.5090222
   * E. Caldeweyher, J.-M. Mewes, S. Ehlert and S. Grimme, Phys. Chem. Chem. Phys.
     2020, 22, 8499-8512. DOI: 10.1039/D0CP00502A
   
   for sTDA-xTB:
   * S. Grimme and C. Bannwarth, J. Chem. Phys., 2016, 145, 054103.
     DOI: 10.1063/1.4959605
   
   in the mass-spec context:
   * V. Asgeirsson, C. Bauer and S. Grimme, Chem. Sci., 2017, 8, 4879.
     DOI: 10.1039/c7sc00601b
   * J. Koopman and S. Grimme, ACS Omega 2019, 4, 12, 15120-15133.
     DOI: 10.1021/acsomega.9b02011
   
   for metadynamics refer to:
   * S. Grimme, J. Chem. Theory Comput., 2019, 155, 2847-2862
     DOI: 10.1021/acs.jctc.9b00143
   
   for SPH calculations refer to:
   * S. Spicher and S. Grimme, J. Chem. Theory Comput., 2021, 17, 1701-1714
     DOI: 10.1021/acs.jctc.0c01306
   
   for ONIOM refer to:
   * C. Plett, A. Katbashev, S. Ehlert, S. Grimme, M. Bursch,
     Phys. Chem. Chem. Phys., 2023, 25, 17860-17868. DOI: 10.1039/D3CP02178E
   
   for DIPRO refer to:
   * J. Kohn, N. Gildemeister, S. Grimme, D. Fazzi, A. Hansen,
     J. Chem. Phys., 2023, just accepted.
   
   for PTB refer to:
   * S. Grimme, M. Mueller, A. Hansen, J. Chem. Phys., 2023, 158, 124111.
     DOI: 10.1063/5.0137838
   
   with help from (in alphabetical order)
   P. Atkinson, C. Bannwarth, F. Bohle, G. Brandenburg, E. Caldeweyher
   M. Checinski, S. Dohm, S. Ehlert, S. Ehrlich, I. Gerasimov, C. Hölzer
   A. Katbashev, J. Kohn, J. Koopman, C. Lavigne, S. Lehtola, F. März, M. Müller,
   F. Musil, H. Neugebauer, J. Pisarek, C. Plett, P. Pracht, F. Pultar,
   J. Seibert, P. Shushkov, S. Spicher, M. Stahn, M. Steiner, T. Strunk,
   J. Stückrath, T. Rose, and J. Unsleber
   
 * started run on 2025/05/15 at 16:05:52.913     
   ID    Z sym.   atoms
    1    6 C      1-8, 10, 11, 13-16
    2    7 N      9, 12
    3    8 O      17
    4    1 H      18-39

           -------------------------------------------------
          |                Calculation Setup                |
           -------------------------------------------------

          program call               : xtb /rds/general/user/hgt20/home/callum/QDESCP/Lidocaine_rdkit_conf_15/Lidocaine_rdkit_conf_15.xyz --acc 1 --gfn 2 --chrg 0 --uhf 2 --etemp 300 --input /rds/general/user/hgt20/home/callum/QDESCP/Lidocaine_rdkit_conf_15/Lidocaine_rdkit_conf_15_xtb.inp -P 1
          hostname                   : login-c
          coordinate file            : /rds/general/user/hgt20/home/callum/QDESCP/Lidocaine_rdkit_conf_15/Lidocaine_rdkit_conf_15.xyz
          omp threads                :                     1


           -------------------------------------------------
          |                 G F N 2 - x T B                 |
           -------------------------------------------------

        Reference                      10.1021/acs.jctc.8b01176
      * Hamiltonian:
        H0-scaling (s, p, d)           1.850000    2.230000    2.230000
        zeta-weighting                 0.500000
      * Dispersion:
        s8                             2.700000
        a1                             0.520000
        a2                             5.000000
        s9                             5.000000
      * Repulsion:
        kExp                           1.500000    1.000000
        rExp                           1.000000
      * Coulomb:
        alpha                          2.000000
        third order                    shell-resolved
        anisotropic                    true
        a3                             3.000000
        a5                             4.000000
        cn-shift                       1.200000
        cn-exp                         4.000000
        max-rad                        5.000000


          ...................................................
          :                      SETUP                      :
          :.................................................:
          :  # basis functions                  90          :
          :  # atomic orbitals                  90          :
          :  # shells                           56          :
          :  # electrons                        94          :
          :  max. iterations                   250          :
          :  Hamiltonian                  GFN2-xTB          :
          :  restarted?                      false          :
          :  GBSA solvation                  false          :
          :  PC potential                    false          :
          :  electronic temp.          300.0000000     K    :
          :  accuracy                    1.0000000          :
          :  -> integral cutoff          0.2500000E+02      :
          :  -> integral neglect         0.1000000E-07      :
          :  -> SCF convergence          0.1000000E-05 Eh   :
          :  -> wf. convergence          0.1000000E-03 e    :
          :  Broyden damping             0.4000000          :
          :  net charge                          0          :
          :  unpaired electrons                  2          :
          ...................................................

 iter      E             dE          RMSdq      gap      omega  full diag
   1    -51.4432981 -0.514433E+02  0.316E+00    0.15       0.0  T
   2    -51.4186493  0.246488E-01  0.323E+00    1.30       1.0  T
   3    -51.5525148 -0.133865E+00  0.207E+00    0.15       1.0  T
   4    -51.4962897  0.562252E-01  0.242E+00    1.31       1.0  T
   5    -51.5885104 -0.922208E-01  0.168E+00    0.52       1.0  T
   6    -51.6837886 -0.952782E-01  0.105E+00    0.47       1.0  T
   7    -51.7207598 -0.369712E-01  0.676E-01    0.37       1.0  T
   8    -51.7297638 -0.900403E-02  0.525E-01    0.34       1.0  T
   9    -51.7336309 -0.386710E-02  0.351E-01    0.24       1.0  T
  10    -51.7361892 -0.255829E-02  0.322E-01    0.28       1.0  T
  11    -51.7400148 -0.382563E-02  0.204E-01    0.29       1.0  T
  12    -51.7423907 -0.237587E-02  0.868E-02    0.28       1.0  T
  13    -51.7428957 -0.505062E-03  0.168E-02    0.27       1.0  T
  14    -51.7428527  0.430216E-04  0.266E-02    0.27       1.0  T
  15    -51.7428881 -0.353949E-04  0.136E-02    0.27       1.2  T
  16    -51.7429020 -0.138751E-04  0.171E-03    0.27       9.4  T
  17    -51.7429021 -0.101804E-06  0.108E-03    0.27      14.8  T
  18    -51.7429021 -0.376028E-07  0.726E-04    0.27      22.1  T
  19    -51.7429022 -0.312863E-07  0.263E-04    0.27      61.0  T

   *** convergence criteria satisfied after 19 iterations ***

         #    Occupation            Energy/Eh            Energy/eV
      -------------------------------------------------------------
         1        2.0000           -0.6838942             -18.6097
       ...           ...                  ...                  ...
        42        2.0000           -0.4123064             -11.2194
        43        2.0000           -0.4065917             -11.0639
        44        2.0000           -0.3908821             -10.6364
        45        1.9985           -0.3748958             -10.2014
        46        1.9782           -0.3723003             -10.1308
        47        1.0233           -0.3651384              -9.9359
        48        0.9948           -0.2120105              -5.7691 (HOMO)
        49        0.0052           -0.2020213              -5.4973 (LUMO)
        50                         -0.1815333              -4.9398
        51                         -0.0753903              -2.0515
        52                         -0.0013512              -0.0368
        53                          0.0218816               0.5954
       ...                                ...                  ...
        90                          0.6924621              18.8429
      -------------------------------------------------------------
                  HL-Gap            0.0099892 Eh            0.2718 eV
             Fermi-level           -0.2878520 Eh           -7.8329 eV

 transition dipole moment (au) for excitation:          47          48
     X       Y       Z   
  -1.1875   0.6475   0.0757  total (au/Debye):    1.355   3.443
 dE (eV)             :    4.167
 oscillator strength :  0.26495E+00

 SCC (total)                   0 d,  0 h,  0 min,  0.059 sec
 SCC setup                      ...        0 min,  0.000 sec (  0.500%)
 Dispersion                     ...        0 min,  0.000 sec (  0.583%)
 classical contributions        ...        0 min,  0.000 sec (  0.207%)
 integral evaluation            ...        0 min,  0.006 sec (  9.716%)
 iterations                     ...        0 min,  0.028 sec ( 47.810%)
 molecular gradient             ...        0 min,  0.019 sec ( 32.516%)
 printout                       ...        0 min,  0.005 sec (  8.656%)

         :::::::::::::::::::::::::::::::::::::::::::::::::::::
         ::                     SUMMARY                     ::
         :::::::::::::::::::::::::::::::::::::::::::::::::::::
         :: total energy             -50.983379479507 Eh    ::
         :: gradient norm              0.148499692671 Eh/a0 ::
         :: HOMO-LUMO gap              0.271819275633 eV    ::
         ::.................................................::
         :: SCC energy               -51.742547128517 Eh    ::
         :: -> isotropic ES            0.045162995751 Eh    ::
         :: -> anisotropic ES          0.008184886359 Eh    ::
         :: -> anisotropic XC          0.024348042397 Eh    ::
         :: -> dispersion             -0.037377609112 Eh    ::
         :: repulsion energy           0.759167649011 Eh    ::
         :: add. restraining           0.000000000000 Eh    ::
         :: total charge              -0.000000000002 e     ::
         :::::::::::::::::::::::::::::::::::::::::::::::::::::

           -------------------------------------------------
          |                Property Printout                |
           -------------------------------------------------

    * Orbital Energies and Occupations

         #    Occupation            Energy/Eh            Energy/eV
      -------------------------------------------------------------
         1        2.0000           -0.6838942             -18.6097
       ...           ...                  ...                  ...
        36        2.0000           -0.4573659             -12.4456
        37        2.0000           -0.4531460             -12.3307
        38        2.0000           -0.4448658             -12.1054
        39        2.0000           -0.4429014             -12.0520
        40        2.0000           -0.4388513             -11.9418
        41        2.0000           -0.4244862             -11.5509
        42        2.0000           -0.4123064             -11.2194
        43        2.0000           -0.4065917             -11.0639
        44        2.0000           -0.3908821             -10.6364
        45        1.9985           -0.3748958             -10.2014
        46        1.9782           -0.3723003             -10.1308
        47        1.0233           -0.3651384              -9.9359
        48        0.9948           -0.2120105              -5.7691 (HOMO)
        49        0.0052           -0.2020213              -5.4973 (LUMO)
        50                         -0.1815333              -4.9398
        51                         -0.0753903              -2.0515
        52                         -0.0013512              -0.0368
        53                          0.0218816               0.5954
        54                          0.0561566               1.5281
        55                          0.0659444               1.7944
        56                          0.0928164               2.5257
        57                          0.1023600               2.7854
        58                          0.1031455               2.8067
        59                          0.1100493               2.9946
       ...                                ...                  ...
        90                          0.6924621              18.8429
      -------------------------------------------------------------
                  HL-Gap            0.0099892 Eh            0.2718 eV
             Fermi-level           -0.2878520 Eh           -7.8329 eV

     #   Z          covCN         q      C6AA      α(0)
     1   6 C        3.757    -0.106    22.575     6.774
     2   6 C        2.968    -0.017    28.424     8.745
     3   6 C        2.925    -0.043    29.064     8.841
     4   6 C        2.915    -0.049    29.210     8.863
     5   6 C        2.927    -0.055    29.357     8.886
     6   6 C        2.965     0.016    27.663     8.627
     7   6 C        3.758    -0.112    22.684     6.790
     8   6 C        2.914     0.045    26.998     8.520
     9   7 N        2.696    -0.146    24.163     7.301
    10   6 C        2.748     0.222    23.325     7.908
    11   6 C        3.757    -0.019    20.969     6.529
    12   7 N        2.726    -0.148    24.195     7.305
    13   6 C        3.745     0.006    20.538     6.465
    14   6 C        3.749    -0.109    22.656     6.789
    15   6 C        3.746     0.008    20.508     6.460
    16   6 C        3.750    -0.111    22.696     6.794
    17   8 O        0.857    -0.433    22.354     6.339
    18   1 H        0.924     0.034     2.530     2.487
    19   1 H        0.925     0.039     2.461     2.453
    20   1 H        0.925     0.043     2.412     2.429
    21   1 H        0.926     0.024     2.676     2.558
    22   1 H        0.926     0.021     2.718     2.578
    23   1 H        0.926     0.025     2.651     2.546
    24   1 H        0.925     0.090     1.874     2.141
    25   1 H        0.925     0.041     2.431     2.438
    26   1 H        0.925     0.039     2.457     2.451
    27   1 H        0.860     0.180     1.215     1.726
    28   1 H        0.923     0.053     2.284     2.364
    29   1 H        0.924     0.040     2.448     2.447
    30   1 H        0.924     0.038     2.473     2.459
    31   1 H        0.924     0.039     2.457     2.451
    32   1 H        0.925     0.042     2.419     2.432
    33   1 H        0.925     0.041     2.433     2.439
    34   1 H        0.925     0.042     2.423     2.434
    35   1 H        0.924     0.037     2.486     2.466
    36   1 H        0.924     0.043     2.406     2.426
    37   1 H        0.925     0.056     2.249     2.345
    38   1 H        0.925     0.040     2.442     2.444
    39   1 H        0.925     0.041     2.437     2.441

 Mol. C6AA /au·bohr⁶  :      13857.520440
 Mol. C8AA /au·bohr⁸  :     311343.755677
 Mol. α(0) /au        :        180.892930


Wiberg/Mayer (AO) data.
largest (>0.10) Wiberg bond orders for each atom

 ---------------------------------------------------------------------------
     #   Z sym  total        # sym  WBO       # sym  WBO       # sym  WBO
 ---------------------------------------------------------------------------
     1   6 C    3.996 --     2 C    1.027    20 H    0.984    18 H    0.967
                            19 H    0.966
     2   6 C    3.948 --     3 C    1.544     8 C    1.130     1 C    1.027
     3   6 C    3.970 --     2 C    1.544     4 C    1.276    21 H    0.969
     4   6 C    3.814 --     3 C    1.276     5 C    1.265    22 H    0.972
     5   6 C    3.968 --     6 C    1.530     4 C    1.265    23 H    0.968
     6   6 C    3.959 --     5 C    1.530     8 C    1.153     7 C    1.042
     7   6 C    3.991 --     6 C    1.042    26 H    0.984    25 H    0.969
                            24 H    0.938
     8   6 C    3.814 --     6 C    1.153     9 N    1.153     2 C    1.130
                            10 C    0.110
     9   7 N    3.492 --     8 C    1.153    10 C    1.121    27 H    0.920
                            17 O    0.119
    10   6 C    3.895 --    17 O    1.562     9 N    1.121    11 C    0.916
                             8 C    0.110
    11   6 C    3.964 --    12 N    1.009    29 H    0.960    28 H    0.954
                            10 C    0.916
    12   7 N    3.236 --    11 C    1.009    13 C    1.004    15 C    1.003
    13   6 C    3.975 --    12 N    1.004    14 C    0.998    31 H    0.971
                            30 H    0.970
    14   6 C    3.981 --    13 C    0.998    32 H    0.986    34 H    0.984
                            33 H    0.984
    15   6 C    3.978 --    12 N    1.003    16 C    1.000    35 H    0.974
                            36 H    0.959
    16   6 C    3.983 --    15 C    1.000    38 H    0.984    37 H    0.984
                            39 H    0.982
    17   8 O    2.035 --    10 C    1.562     9 N    0.119
    18   1 H    0.998 --     1 C    0.967
    19   1 H    0.998 --     1 C    0.966
    20   1 H    0.998 --     1 C    0.984
    21   1 H    0.998 --     3 C    0.969
    22   1 H    0.999 --     4 C    0.972
    23   1 H    0.998 --     5 C    0.968
    24   1 H    0.990 --     7 C    0.938
    25   1 H    0.997 --     7 C    0.969
    26   1 H    0.998 --     7 C    0.984
    27   1 H    0.967 --     9 N    0.920
    28   1 H    0.990 --    11 C    0.954
    29   1 H    0.995 --    11 C    0.960
    30   1 H    0.997 --    13 C    0.970
    31   1 H    0.997 --    13 C    0.971
    32   1 H    0.998 --    14 C    0.986
    33   1 H    0.997 --    14 C    0.984
    34   1 H    0.998 --    14 C    0.984
    35   1 H    0.999 --    15 C    0.974
    36   1 H    0.996 --    15 C    0.959
    37   1 H    0.997 --    16 C    0.984
    38   1 H    0.998 --    16 C    0.984
    39   1 H    0.998 --    16 C    0.982
 ---------------------------------------------------------------------------

Topologies differ in total number of bonds
Writing topology from bond orders to xtbtopo.mol

molecular dipole:
                 x           y           z       tot (Debye)
 q only:        1.118       0.296      -1.475
   full:        1.476       0.320      -1.755       5.885
molecular quadrupole (traceless):
                xx          xy          yy          xz          yz          zz
 q only:        2.917       2.002       0.537      -0.879       3.349      -3.454
  q+dip:        4.645       0.907       1.875      -2.433       4.333      -6.520
   full:        3.898       1.437       1.336      -1.232       4.908      -5.234


           -------------------------------------------------
          | TOTAL ENERGY              -50.983379479507 Eh   |
          | GRADIENT NORM               0.148499692671 Eh/α |
          | HOMO-LUMO GAP               0.271819275633 eV   |
           -------------------------------------------------

------------------------------------------------------------------------
 * finished run on 2025/05/15 at 16:05:52.983     
------------------------------------------------------------------------
 total:
 * wall-time:     0 d,  0 h,  0 min,  0.070 sec
 *  cpu-time:     0 d,  0 h,  0 min,  0.069 sec
 * ratio c/w:     0.976 speedup
 SCF:
 * wall-time:     0 d,  0 h,  0 min,  0.059 sec
 *  cpu-time:     0 d,  0 h,  0 min,  0.059 sec
 * ratio c/w:     0.993 speedup


