39
 energy: -51.131465233455 gnorm: 0.000581441737 xtb: 6.7.1 (edcfbbe)
C           -1.33253209369651        2.42972814688130       -0.58682953157794
C           -2.32990914614972        1.55785236774535        0.11907593766328
C           -3.52806121689385        2.08914379678499        0.56814932299062
C           -4.45592888252337        1.29256918048499        1.21470485682044
C           -4.20138340950622       -0.05382216348405        1.38567223848656
C           -3.01882202420075       -0.62751734477376        0.93528319770026
C           -2.80544213186867       -2.10098645257784        1.07163571487095
C           -2.06748200016051        0.19840136765333        0.32953663055758
N           -0.84302579761433       -0.32559940709468       -0.13500728680489
C            0.06167259595729       -1.05799142483800        0.55932393022217
C            1.28792630892752       -1.37936918058780       -0.29815942558802
N            1.81287538321380       -0.16119699305478       -0.88725373361225
C            2.62229437879772       -0.36070190760740       -2.07344415675315
C            3.95910047714222       -1.09006017233629       -1.90465955117829
C            2.31984233111437        0.79260072792029        0.08922044724987
C            3.24004693840229        0.26066495199930        1.19251198750566
O           -0.06095883478387       -1.43546593074924        1.70342001920978
H           -1.21534383992650        2.12276968997138       -1.62743808840161
H           -0.35634424656775        2.37532182648835       -0.10788227874267
H           -1.66362446200522        3.46473674774360       -0.57629112386665
H           -3.73205655156180        3.13904350378715        0.41520571538100
H           -5.38109789686903        1.71990185828084        1.57128684560417
H           -4.93695323836155       -0.68178162587912        1.86681091708194
H           -2.05907225412726       -2.30502567883612        1.83832673850339
H           -2.43540545695051       -2.52112647930433        0.13697487176319
H           -3.73406552802280       -2.59713339467412        1.34156271921184
H           -0.47716000610009        0.08279345653163       -0.98610483716027
H            2.00740140489548       -1.92755218516696        0.32462096331251
H            0.96574075856186       -2.04077407817753       -1.10867310212403
H            2.00469497924504       -0.92234602223115       -2.78313338447004
H            2.80674807116108        0.62700553426331       -2.50730932788971
H            3.81713968658350       -2.04191131941996       -1.39862003865142
H            4.39095064924984       -1.28306448262650       -2.88381114523209
H            4.66333132548980       -0.48844380709691       -1.33642004056269
H            2.83130205201263        1.58099032325467       -0.46828127326333
H            1.44982702398555        1.24296318307039        0.58289584383150
H            2.68884879903099       -0.38775408237625        1.86858581163543
H            3.62022304821300        1.10162309013656        1.76745349896009
H            4.08470280590604       -0.28868562010500        0.78706011731359
