66
 energy: -102.674472320396 gnorm: 0.000548108880 xtb: 6.7.1 (edcfbbe)
C           -8.05615808330121       -0.98650353295605        0.84986587172409
C           -7.23489578520636       -0.45857945540252       -0.31855192591889
C           -5.75089810029633       -0.37597623505043        0.03095116721060
C           -4.95470305397422        0.15662699437621       -1.10767035655293
N           -5.40641617053426        0.53535428290363       -2.28343857297809
C           -4.34789316188340        0.95234215193900       -3.01756845174885
C           -4.48011249356000        1.45989036641165       -4.40427079473492
C           -3.19090625452018        0.82659305039190       -2.26871548000675
N           -3.61463587380765        0.31467745171597       -1.05274595884964
N           -2.72808235737376        0.06519964705662       -0.04499612618607
C           -1.40769422654091        0.28688118336704       -0.28521057097774
C           -0.44920546369409       -0.00539579446863        0.79523180406935
C           -0.73286726547227       -0.78557960076993        1.93745564145885
C            0.27286202659640       -1.01512070946412        2.87431732476789
C            1.53597929947690       -0.47804159254697        2.70275270005620
C            1.80743472202445        0.29036408523845        1.58833944948593
S            3.42653594919327        1.03677733029219        1.38433881315552
O            3.29914097584344        2.45260639102359        1.56085791248479
N            3.68384479415056        0.72579921800799       -0.23423455012593
C            4.20015487277092       -0.59534180333886       -0.51072282027305
C            5.71781470896123       -0.66016165525648       -0.33269794739852
N            6.35894089683083        0.35172119841469       -1.15764829441225
C            5.88075724495350        1.66952106261810       -0.77252928868395
C            4.37191136536919        1.75260083821438       -0.98670196822378
C            7.80882861995645        0.24946063744858       -1.10322998566734
C            8.47555778979981        0.99558334871451       -2.25355681189011
O            4.33359594959921        0.33267470577970        2.25295207242764
C            0.83144666025404        0.52308541984979        0.64636754132399
O           -1.98956593526542       -1.29299023501752        2.07044868525904
C           -2.30608845721086       -2.15235601949019        3.15859119256594
C           -3.75001245950561       -2.59516413172869        2.97880955925348
N           -0.95110720098816        0.75937828677872       -1.38924255124650
C           -1.76992700872129        1.07214376778057       -2.47467061119353
O           -1.29865028155699        1.50656542544447       -3.50258407346424
H           -9.10698158596506       -1.04092679106120        0.57885595884204
H           -7.96070613369563       -0.33257832013678        1.71458901948588
H           -7.72519375558646       -1.98332032345739        1.13553754220886
H           -7.35517628720723       -1.10699657404931       -1.18618201443006
H           -7.58253829621572        0.53370441880268       -0.60466540758188
H           -5.38038878456990       -1.37275636155953        0.29862454167974
H           -5.61441778890571        0.27463370798338        0.90302433515085
H           -5.01189826166901        0.73592660789982       -5.01802679596396
H           -5.05223873135120        2.38623285296714       -4.40949576150202
H           -3.49182363213999        1.64271647105752       -4.81556738664638
H           -3.05906912935165       -0.39049262888297        0.79502672370029
H            0.07479825266763       -1.61201718329623        3.74951693060528
H            2.31954506346790       -0.65087519678681        3.42313731565174
H            3.93265290969287       -0.84637428092585       -1.54108598818767
H            3.71091020265224       -1.29240953835294        0.17185201840854
H            6.07367928633198       -1.64425086059822       -0.64819084897431
H            5.95028152031208       -0.52322016847677        0.73656354303558
H            6.09705430732278        1.88255464249566        0.29111423058031
H            6.37299964097366        2.42106327885998       -1.38998046851002
H            3.98828654212207        2.71372874011587       -0.64594673615850
H            4.13122438779325        1.60830329586381       -2.04337717899190
H            8.06095721624034       -0.81104486301556       -1.18690098299467
H            8.20386632114334        0.61371819214984       -0.13867920807617
H            8.01382636912670        0.70573615579714       -3.19309723223560
H            9.53264501930799        0.74475960302214       -2.28748389081941
H            8.38701734952485        2.07215921754139       -2.13922216241952
H            1.04320066226776        1.11191695113203       -0.23080612942071
H           -2.18828747847819       -1.61340001658420        4.10656794743337
H           -1.63846927193386       -3.02196552236757        3.15262552310459
H           -3.86721438235261       -3.11345018660058        2.03034219437420
H           -4.41606897256689       -1.73604136810538        2.99777100451798
H           -4.02735880135265       -3.26967002968492        3.78306676939579
