----- Optimization -----
      -----------------------------------------------------------      
     |                   =====================                   |     
     |                           x T B                           |     
     |                   =====================                   |     
     |                         S. Grimme                         |     
     |          Mulliken Center for Theoretical Chemistry        |     
     |                    University of Bonn                     |     
      -----------------------------------------------------------      

   * xtb version 6.7.1 (edcfbbe) compiled by 'conda@3ef47c1a292c' on 2024-11-25

   xtb is free software: you can redistribute it and/or modify it under
   the terms of the GNU Lesser General Public License as published by
   the Free Software Foundation, either version 3 of the License, or
   (at your option) any later version.
   
   xtb is distributed in the hope that it will be useful,
   but WITHOUT ANY WARRANTY; without even the implied warranty of
   MERCHANTABILITY or FITNESS FOR A PARTICULAR PURPOSE.  See the
   GNU Lesser General Public License for more details.
   
   Cite this work as:
   * C. Bannwarth, E. Caldeweyher, S. Ehlert, A. Hansen, P. Pracht,
     J. Seibert, S. Spicher, S. Grimme, WIREs Comput. Mol. Sci., 2020, 11,
     e01493. DOI: 10.1002/wcms.1493
   
   for GFN2-xTB:
   * C. Bannwarth, S. Ehlert and S. Grimme., J. Chem. Theory Comput., 2019,
     15, 1652-1671. DOI: 10.1021/acs.jctc.8b01176
   for GFN1-xTB:
   * S. Grimme, C. Bannwarth, P. Shushkov, J. Chem. Theory Comput., 2017,
     13, 1989-2009. DOI: 10.1021/acs.jctc.7b00118
   for GFN0-xTB:
   * P. Pracht, E. Caldeweyher, S. Ehlert, S. Grimme, ChemRxiv, 2019, preprint.
     DOI: 10.26434/chemrxiv.8326202.v1
   for GFN-FF:
   * S. Spicher and S. Grimme, Angew. Chem. Int. Ed., 2020, 59, 15665-15673.
     DOI: 10.1002/anie.202004239
   
   for ALPB and GBSA implicit solvation:
   * S. Ehlert, M. Stahn, S. Spicher, S. Grimme, J. Chem. Theory Comput.,
     2021, 17, 4250-4261. DOI: 10.1021/acs.jctc.1c00471
   
   for ddCOSMO and CPCM-X implicit solvation:
   * M. Stahn, S. Ehlert, S. Grimme, J. Phys. Chem. A,
     2023, XX, XXXX-XXXX. DOI: 10.1021/acs.jpca.3c04382
   
   for DFT-D4:
   * E. Caldeweyher, C. Bannwarth and S. Grimme, J. Chem. Phys., 2017,
     147, 034112. DOI: 10.1063/1.4993215
   * E. Caldeweyher, S. Ehlert, A. Hansen, H. Neugebauer, S. Spicher,
     C. Bannwarth and S. Grimme, J. Chem. Phys., 2019, 150, 154122.
     DOI: 10.1063/1.5090222
   * E. Caldeweyher, J.-M. Mewes, S. Ehlert and S. Grimme, Phys. Chem. Chem. Phys.
     2020, 22, 8499-8512. DOI: 10.1039/D0CP00502A
   
   for sTDA-xTB:
   * S. Grimme and C. Bannwarth, J. Chem. Phys., 2016, 145, 054103.
     DOI: 10.1063/1.4959605
   
   in the mass-spec context:
   * V. Asgeirsson, C. Bauer and S. Grimme, Chem. Sci., 2017, 8, 4879.
     DOI: 10.1039/c7sc00601b
   * J. Koopman and S. Grimme, ACS Omega 2019, 4, 12, 15120-15133.
     DOI: 10.1021/acsomega.9b02011
   
   for metadynamics refer to:
   * S. Grimme, J. Chem. Theory Comput., 2019, 155, 2847-2862
     DOI: 10.1021/acs.jctc.9b00143
   
   for SPH calculations refer to:
   * S. Spicher and S. Grimme, J. Chem. Theory Comput., 2021, 17, 1701-1714
     DOI: 10.1021/acs.jctc.0c01306
   
   for ONIOM refer to:
   * C. Plett, A. Katbashev, S. Ehlert, S. Grimme, M. Bursch,
     Phys. Chem. Chem. Phys., 2023, 25, 17860-17868. DOI: 10.1039/D3CP02178E
   
   for DIPRO refer to:
   * J. Kohn, N. Gildemeister, S. Grimme, D. Fazzi, A. Hansen,
     J. Chem. Phys., 2023, just accepted.
   
   for PTB refer to:
   * S. Grimme, M. Mueller, A. Hansen, J. Chem. Phys., 2023, 158, 124111.
     DOI: 10.1063/5.0137838
   
   with help from (in alphabetical order)
   P. Atkinson, C. Bannwarth, F. Bohle, G. Brandenburg, E. Caldeweyher
   M. Checinski, S. Dohm, S. Ehlert, S. Ehrlich, I. Gerasimov, C. Hölzer
   A. Katbashev, J. Kohn, J. Koopman, C. Lavigne, S. Lehtola, F. März, M. Müller,
   F. Musil, H. Neugebauer, J. Pisarek, C. Plett, P. Pracht, F. Pultar,
   J. Seibert, P. Shushkov, S. Spicher, M. Stahn, M. Steiner, T. Strunk,
   J. Stückrath, T. Rose, and J. Unsleber
   
 * started run on 2025/05/15 at 16:35:35.016     
   ID    Z sym.   atoms
    1    7 N      1, 23
    2    6 C      2-22, 24
    3    1 H      25-42

           -------------------------------------------------
          |                Calculation Setup                |
           -------------------------------------------------

          program call               : xtb /rds/general/user/hgt20/home/callum/QDESCP/Bifonazole_rdkit_conf_8/Bifonazole_rdkit_conf_8.xyz --opt normal --acc 1 --gfn 2 --chrg 0 --uhf 0 -P 1
          hostname                   : login-c
          coordinate file            : /rds/general/user/hgt20/home/callum/QDESCP/Bifonazole_rdkit_conf_8/Bifonazole_rdkit_conf_8.xyz
          omp threads                :                     1


           -------------------------------------------------
          |                 G F N 2 - x T B                 |
           -------------------------------------------------

        Reference                      10.1021/acs.jctc.8b01176
      * Hamiltonian:
        H0-scaling (s, p, d)           1.850000    2.230000    2.230000
        zeta-weighting                 0.500000
      * Dispersion:
        s8                             2.700000
        a1                             0.520000
        a2                             5.000000
        s9                             5.000000
      * Repulsion:
        kExp                           1.500000    1.000000
        rExp                           1.000000
      * Coulomb:
        alpha                          2.000000
        third order                    shell-resolved
        anisotropic                    true
        a3                             3.000000
        a5                             4.000000
        cn-shift                       1.200000
        cn-exp                         4.000000
        max-rad                        5.000000


          ...................................................
          :                      SETUP                      :
          :.................................................:
          :  # basis functions                 114          :
          :  # atomic orbitals                 114          :
          :  # shells                           66          :
          :  # electrons                       116          :
          :  max. iterations                   250          :
          :  Hamiltonian                  GFN2-xTB          :
          :  restarted?                      false          :
          :  GBSA solvation                  false          :
          :  PC potential                    false          :
          :  electronic temp.          300.0000000     K    :
          :  accuracy                    1.0000000          :
          :  -> integral cutoff          0.2500000E+02      :
          :  -> integral neglect         0.1000000E-07      :
          :  -> SCF convergence          0.1000000E-05 Eh   :
          :  -> wf. convergence          0.1000000E-03 e    :
          :  Broyden damping             0.4000000          :
          :  net charge                          0          :
          :  unpaired electrons                  0          :
          ...................................................

 iter      E             dE          RMSdq      gap      omega  full diag
   1    -63.0969220 -0.630969E+02  0.416E+00    3.78       0.0  T
   2    -63.1633057 -0.663837E-01  0.260E+00    3.18       1.0  T
   3    -63.1513456  0.119601E-01  0.109E+00    3.41       1.0  T
   4    -63.1671524 -0.158067E-01  0.407E-01    3.22       1.0  T
   5    -63.1735857 -0.643336E-02  0.938E-02    3.24       1.0  T
   6    -63.1737855 -0.199743E-03  0.394E-02    3.23       1.0  T
   7    -63.1738314 -0.458897E-04  0.184E-02    3.23       1.0  T
   8    -63.1738331 -0.167572E-05  0.616E-03    3.23       2.5  T
   9    -63.1738341 -0.107506E-05  0.153E-03    3.23      10.1  T
  10    -63.1738342 -0.550977E-07  0.714E-04    3.23      21.6  T
  11    -63.1738342 -0.152527E-07  0.262E-04    3.23      58.8  T

   *** convergence criteria satisfied after 11 iterations ***

         #    Occupation            Energy/Eh            Energy/eV
      -------------------------------------------------------------
         1        2.0000           -0.6736042             -18.3297
       ...           ...                  ...                  ...
        52        2.0000           -0.4122619             -11.2182
        53        2.0000           -0.4105090             -11.1705
        54        2.0000           -0.4072592             -11.0821
        55        2.0000           -0.4054735             -11.0335
        56        2.0000           -0.3913877             -10.6502
        57        2.0000           -0.3769726             -10.2579
        58        2.0000           -0.3692739             -10.0485 (HOMO)
        59                         -0.2506782              -6.8213 (LUMO)
        60                         -0.2415637              -6.5733
        61                         -0.2379318              -6.4745
        62                         -0.2353884              -6.4052
        63                         -0.2292997              -6.2396
       ...                                ...                  ...
       114                          0.6475560              17.6209
      -------------------------------------------------------------
                  HL-Gap            0.1185957 Eh            3.2272 eV
             Fermi-level           -0.3099760 Eh           -8.4349 eV

 SCC (total)                   0 d,  0 h,  0 min,  0.078 sec
 SCC setup                      ...        0 min,  0.000 sec (  0.459%)
 Dispersion                     ...        0 min,  0.001 sec (  0.659%)
 classical contributions        ...        0 min,  0.000 sec (  0.186%)
 integral evaluation            ...        0 min,  0.008 sec (  9.955%)
 iterations                     ...        0 min,  0.025 sec ( 31.746%)
 molecular gradient             ...        0 min,  0.044 sec ( 56.735%)
 printout                       ...        0 min,  0.000 sec (  0.250%)

         :::::::::::::::::::::::::::::::::::::::::::::::::::::
         ::                     SUMMARY                     ::
         :::::::::::::::::::::::::::::::::::::::::::::::::::::
         :: total energy             -62.111853565686 Eh    ::
         :: gradient norm              0.051939646403 Eh/a0 ::
         :: HOMO-LUMO gap              3.227152001242 eV    ::
         ::.................................................::
         :: SCC energy               -63.173617120548 Eh    ::
         :: -> isotropic ES            0.013461211636 Eh    ::
         :: -> anisotropic ES          0.007762528449 Eh    ::
         :: -> anisotropic XC          0.045807946560 Eh    ::
         :: -> dispersion             -0.048573888127 Eh    ::
         :: repulsion energy           1.061763554862 Eh    ::
         :: add. restraining           0.000000000000 Eh    ::
         :: total charge              -0.000000000000 e     ::
         :::::::::::::::::::::::::::::::::::::::::::::::::::::

      ----------------------------------------------------------- 
     |                   =====================                   |
     |                        A N C O P T                        |
     |                   =====================                   |
     |               Approximate Normal Coordinate               |
     |                Rational Function Optimizer                |
      ----------------------------------------------------------- 
      ----------------------------------------------------------- 
     |                   =====================                   |
     |                        A N C O P T                        |
     |                   =====================                   |
     |               Approximate Normal Coordinate               |
     |                Rational Function Optimizer                |
      ----------------------------------------------------------- 

          ...................................................
          :                      SETUP                      :
          :.................................................:
          :   optimization level            normal          :
          :   max. optcycles                   200          :
          :   ANC micro-cycles                  20          :
          :   degrees of freedom               120          :
          :.................................................:
          :   RF solver                   davidson          :
          :   write xtbopt.log                true          :
          :   linear?                        false          :
          :   energy convergence         0.5000000E-05 Eh   :
          :   grad. convergence          0.1000000E-02 Eh/α :
          :   maxmium RF displ.          1.0000000          :
          :   Hlow (freq-cutoff)         0.1000000E-01      :
          :   Hmax (freq-cutoff)         5.0000000          :
          :   S6 in model hess.         20.0000000          :
          ...................................................

generating ANC from exact Hessian ...
Using Lindh-Hessian (1995)
 Shifting diagonal of input Hessian by    9.7475772823105763E-003
 Lowest  eigenvalues of input Hessian
    0.000000    0.000000    0.000000    0.000000    0.000000    0.000000
    0.010000    0.010397    0.010532    0.010813    0.011067    0.011632
    0.011903    0.012132    0.012520    0.016746    0.017599    0.020479
 Highest eigenvalues
    1.925573    1.935689    1.936693    1.967289    2.003722    2.088781


........................................................................
.............................. CYCLE    1 ..............................
........................................................................

 iter      E             dE          RMSdq      gap      omega  full diag
   1    -63.1738342 -0.631738E+02  0.102E-04    3.23       0.0  T
   2    -63.1738342 -0.146734E-09  0.651E-05    3.23     236.9  T
   3    -63.1738342 -0.144482E-09  0.325E-05    3.23     474.2  T
     SCC iter.                  ...        0 min,  0.007 sec
     gradient                   ...        0 min,  0.056 sec
 * total energy  :   -62.1118536 Eh     change       -0.6669794E-09 Eh
   gradient norm :     0.0519387 Eh/α   predicted     0.0000000E+00 (-100.00%)
   displ. norm   :     0.3086640 α      lambda       -0.8952791E-02
   maximum displ.:     0.1095951 α      in ANC's #14, #13, #62, ...

........................................................................
.............................. CYCLE    2 ..............................
........................................................................

 iter      E             dE          RMSdq      gap      omega  full diag
   1    -63.2374582 -0.632375E+02  0.155E-01    3.25       0.0  T
   2    -63.2374790 -0.207261E-04  0.939E-02    3.24       1.0  T
   3    -63.2374204  0.585690E-04  0.372E-02    3.24       1.0  T
   4    -63.2374891 -0.686838E-04  0.647E-03    3.24       2.4  T
   5    -63.2374908 -0.176440E-05  0.235E-03    3.24       6.6  T
   6    -63.2374909 -0.485900E-07  0.123E-03    3.24      12.5  T
   7    -63.2374909 -0.256439E-07  0.299E-04    3.24      51.6  T
   8    -63.2374909 -0.108274E-08  0.120E-04    3.24     128.3  T
     SCC iter.                  ...        0 min,  0.017 sec
     gradient                   ...        0 min,  0.025 sec
 * total energy  :   -62.1176817 Eh     change       -0.5828158E-02 Eh
   gradient norm :     0.0150632 Eh/α   predicted    -0.4903403E-02 ( -15.87%)
   displ. norm   :     0.3008970 α      lambda       -0.2047529E-02
   maximum displ.:     0.1377255 α      in ANC's #9, #14, #12, ...

........................................................................
.............................. CYCLE    3 ..............................
........................................................................

 iter      E             dE          RMSdq      gap      omega  full diag
   1    -63.2647379 -0.632647E+02  0.820E-02    3.24       0.0  T
   2    -63.2647510 -0.130532E-04  0.509E-02    3.24       1.0  T
   3    -63.2647350  0.160083E-04  0.224E-02    3.25       1.0  T
   4    -63.2647556 -0.206263E-04  0.514E-03    3.24       3.0  T
   5    -63.2647568 -0.119902E-05  0.123E-03    3.24      12.5  T
   6    -63.2647568 -0.279471E-07  0.610E-04    3.24      25.3  T
   7    -63.2647568 -0.376071E-08  0.182E-04    3.24      84.8  T
     SCC iter.                  ...        0 min,  0.039 sec
     gradient                   ...        0 min,  0.026 sec
 * total energy  :   -62.1189960 Eh     change       -0.1314270E-02 Eh
   gradient norm :     0.0062820 Eh/α   predicted    -0.1117320E-02 ( -14.99%)
   displ. norm   :     0.2677415 α      lambda       -0.6988054E-03
   maximum displ.:     0.1518134 α      in ANC's #9, #6, #14, ...

........................................................................
.............................. CYCLE    4 ..............................
........................................................................

 iter      E             dE          RMSdq      gap      omega  full diag
   1    -63.2696038 -0.632696E+02  0.643E-02    3.24       0.0  T
   2    -63.2696079 -0.416587E-05  0.391E-02    3.24       1.0  T
   3    -63.2695993  0.867678E-05  0.141E-02    3.24       1.1  T
   4    -63.2696094 -0.101522E-04  0.281E-03    3.24       5.5  T
   5    -63.2696098 -0.336794E-06  0.738E-04    3.24      20.9  T
   6    -63.2696098 -0.594191E-08  0.392E-04    3.24      39.4  T
     SCC iter.                  ...        0 min,  0.013 sec
     gradient                   ...        0 min,  0.026 sec
 * total energy  :   -62.1195067 Eh     change       -0.5107144E-03 Eh
   gradient norm :     0.0053746 Eh/α   predicted    -0.3744561E-03 ( -26.68%)
   displ. norm   :     0.3143291 α      lambda       -0.5003951E-03
   maximum displ.:     0.1925317 α      in ANC's #9, #6, #3, ...

........................................................................
.............................. CYCLE    5 ..............................
........................................................................

 iter      E             dE          RMSdq      gap      omega  full diag
   1    -63.2675614 -0.632676E+02  0.813E-02    3.23       0.0  T
   2    -63.2675631 -0.167965E-05  0.480E-02    3.23       1.0  T
   3    -63.2675595  0.356130E-05  0.884E-03    3.24       1.7  T
   4    -63.2675637 -0.418221E-05  0.194E-03    3.23       8.0  T
   5    -63.2675638 -0.103810E-06  0.835E-04    3.23      18.5  T
   6    -63.2675638 -0.803986E-09  0.358E-04    3.23      43.1  T
     SCC iter.                  ...        0 min,  0.013 sec
     gradient                   ...        0 min,  0.025 sec
 * total energy  :   -62.1198542 Eh     change       -0.3475223E-03 Eh
   gradient norm :     0.0038020 Eh/α   predicted    -0.2749186E-03 ( -20.89%)
   displ. norm   :     0.2418834 α      lambda       -0.2409500E-03
   maximum displ.:     0.1357461 α      in ANC's #9, #3, #6, ...

........................................................................
.............................. CYCLE    6 ..............................
........................................................................

 iter      E             dE          RMSdq      gap      omega  full diag
   1    -63.2646790 -0.632647E+02  0.666E-02    3.22       0.0  T
   2    -63.2646796 -0.538068E-06  0.390E-02    3.22       1.0  T
   3    -63.2646796  0.261813E-07  0.259E-03    3.22       6.0  T
   4    -63.2646798 -0.250518E-06  0.117E-03    3.23      13.2  T
   5    -63.2646798 -0.120494E-07  0.361E-04    3.23      42.7  T
   6    -63.2646798 -0.515150E-08  0.111E-04    3.23     138.6  T
     SCC iter.                  ...        0 min,  0.013 sec
     gradient                   ...        0 min,  0.053 sec
 * total energy  :   -62.1200396 Eh     change       -0.1853669E-03 Eh
   gradient norm :     0.0037837 Eh/α   predicted    -0.1275272E-03 ( -31.20%)
   displ. norm   :     0.2843638 α      lambda       -0.2331008E-03
   maximum displ.:     0.1440620 α      in ANC's #3, #9, #8, ...

........................................................................
.............................. CYCLE    7 ..............................
........................................................................

 iter      E             dE          RMSdq      gap      omega  full diag
   1    -63.2625826 -0.632626E+02  0.821E-02    3.21       0.0  T
   2    -63.2625835 -0.972130E-06  0.480E-02    3.21       1.0  T
   3    -63.2625828  0.731791E-06  0.504E-03    3.21       3.1  T
   4    -63.2625839 -0.113530E-05  0.146E-03    3.21      10.6  T
   5    -63.2625840 -0.225580E-07  0.647E-04    3.21      23.8  T
   6    -63.2625840 -0.255032E-08  0.183E-04    3.21      84.4  T
     SCC iter.                  ...        0 min,  0.013 sec
     gradient                   ...        0 min,  0.026 sec
 * total energy  :   -62.1202092 Eh     change       -0.1695544E-03 Eh
   gradient norm :     0.0038152 Eh/α   predicted    -0.1259767E-03 ( -25.70%)
   displ. norm   :     0.2281932 α      lambda       -0.1491480E-03
   maximum displ.:     0.1256836 α      in ANC's #3, #8, #6, ...

........................................................................
.............................. CYCLE    8 ..............................
........................................................................

 iter      E             dE          RMSdq      gap      omega  full diag
   1    -63.2630788 -0.632631E+02  0.685E-02    3.20       0.0  T
   2    -63.2630795 -0.637925E-06  0.401E-02    3.20       1.0  T
   3    -63.2630785  0.957237E-06  0.501E-03    3.20       3.1  T
   4    -63.2630798 -0.127055E-05  0.113E-03    3.20      13.6  T
   5    -63.2630798 -0.120733E-07  0.523E-04    3.20      29.5  T
   6    -63.2630798 -0.161959E-08  0.199E-04    3.20      77.5  T
     SCC iter.                  ...        0 min,  0.035 sec
     gradient                   ...        0 min,  0.026 sec
 * total energy  :   -62.1203161 Eh     change       -0.1069241E-03 Eh
   gradient norm :     0.0027322 Eh/α   predicted    -0.7845747E-04 ( -26.62%)
   displ. norm   :     0.1660215 α      lambda       -0.8760965E-04
   maximum displ.:     0.0998874 α      in ANC's #3, #8, #6, ...

........................................................................
.............................. CYCLE    9 ..............................
........................................................................

 iter      E             dE          RMSdq      gap      omega  full diag
   1    -63.2650542 -0.632651E+02  0.506E-02    3.19       0.0  T
   2    -63.2650545 -0.270390E-06  0.296E-02    3.19       1.0  T
   3    -63.2650538  0.668024E-06  0.373E-03    3.19       4.1  T
   4    -63.2650547 -0.834405E-06  0.727E-04    3.19      21.2  T
   5    -63.2650547 -0.212472E-08  0.378E-04    3.19      40.8  T
     SCC iter.                  ...        0 min,  0.011 sec
     gradient                   ...        0 min,  0.046 sec
 * total energy  :   -62.1203798 Eh     change       -0.6367440E-04 Eh
   gradient norm :     0.0016237 Eh/α   predicted    -0.4501274E-04 ( -29.31%)
   displ. norm   :     0.2240592 α      lambda       -0.5966041E-04
   maximum displ.:     0.1375844 α      in ANC's #3, #8, #5, ...

........................................................................
.............................. CYCLE   10 ..............................
........................................................................

 iter      E             dE          RMSdq      gap      omega  full diag
   1    -63.2671106 -0.632671E+02  0.649E-02    3.17       0.0  T
   2    -63.2671111 -0.470487E-06  0.380E-02    3.17       1.0  T
   3    -63.2671100  0.105905E-05  0.463E-03    3.17       3.3  T
   4    -63.2671113 -0.131301E-05  0.950E-04    3.17      16.2  T
   5    -63.2671114 -0.135010E-07  0.485E-04    3.17      31.8  T
   6    -63.2671114 -0.186511E-08  0.157E-04    3.17      98.1  T
     SCC iter.                  ...        0 min,  0.013 sec
     gradient                   ...        0 min,  0.026 sec
 * total energy  :   -62.1204407 Eh     change       -0.6094864E-04 Eh
   gradient norm :     0.0021968 Eh/α   predicted    -0.3049674E-04 ( -49.96%)
   displ. norm   :     0.1215179 α      lambda       -0.4391839E-04
   maximum displ.:     0.0725318 α      in ANC's #3, #8, #2, ...

........................................................................
.............................. CYCLE   11 ..............................
........................................................................

 iter      E             dE          RMSdq      gap      omega  full diag
   1    -63.2669851 -0.632670E+02  0.320E-02    3.17       0.0  T
   2    -63.2669852 -0.992234E-07  0.187E-02    3.17       1.0  T
   3    -63.2669851  0.135897E-06  0.193E-03    3.17       8.0  T
   4    -63.2669852 -0.182758E-06  0.427E-04    3.17      36.1  T
   5    -63.2669853 -0.242259E-08  0.227E-04    3.17      67.9  T
     SCC iter.                  ...        0 min,  0.043 sec
     gradient                   ...        0 min,  0.026 sec
 * total energy  :   -62.1204794 Eh     change       -0.3867171E-04 Eh
   gradient norm :     0.0019105 Eh/α   predicted    -0.2228587E-04 ( -42.37%)
   displ. norm   :     0.3429894 α      lambda       -0.7968643E-04
   maximum displ.:     0.1961755 α      in ANC's #3, #8, #2, ...

........................................................................
.............................. CYCLE   12 ..............................
........................................................................

 iter      E             dE          RMSdq      gap      omega  full diag
   1    -63.2655367 -0.632655E+02  0.868E-02    3.15       0.0  T
   2    -63.2655374 -0.682931E-06  0.509E-02    3.15       1.0  T
   3    -63.2655370  0.363369E-06  0.396E-03    3.15       3.9  T
   4    -63.2655377 -0.661438E-06  0.113E-03    3.15      13.6  T
   5    -63.2655377 -0.123865E-07  0.577E-04    3.15      26.7  T
   6    -63.2655377 -0.912920E-09  0.220E-04    3.15      70.1  T
     SCC iter.                  ...        0 min,  0.013 sec
     gradient                   ...        0 min,  0.059 sec
 * total energy  :   -62.1205506 Eh     change       -0.7126572E-04 Eh
   gradient norm :     0.0019248 Eh/α   predicted    -0.4192731E-04 ( -41.17%)
   displ. norm   :     0.1087787 α      lambda       -0.1925015E-04
   maximum displ.:     0.0561693 α      in ANC's #3, #9, #1, ...

........................................................................
.............................. CYCLE   13 ..............................
........................................................................

 iter      E             dE          RMSdq      gap      omega  full diag
   1    -63.2661190 -0.632661E+02  0.270E-02    3.15       0.0  T
   2    -63.2661192 -0.155169E-06  0.158E-02    3.15       1.0  T
   3    -63.2661189  0.331426E-06  0.274E-03    3.15       5.6  T
   4    -63.2661193 -0.401326E-06  0.519E-04    3.15      29.7  T
   5    -63.2661193 -0.530937E-08  0.253E-04    3.15      61.0  T
     SCC iter.                  ...        0 min,  0.011 sec
     gradient                   ...        0 min,  0.026 sec
 * total energy  :   -62.1205666 Eh     change       -0.1592869E-04 Eh
   gradient norm :     0.0012723 Eh/α   predicted    -0.9678485E-05 ( -39.24%)
   displ. norm   :     0.0733803 α      lambda       -0.9620029E-05
   maximum displ.:     0.0360425 α      in ANC's #2, #3, #9, ...

........................................................................
.............................. CYCLE   14 ..............................
........................................................................

 iter      E             dE          RMSdq      gap      omega  full diag
   1    -63.2659805 -0.632660E+02  0.217E-02    3.15       0.0  T
   2    -63.2659806 -0.938237E-07  0.128E-02    3.15       1.2  T
   3    -63.2659803  0.301277E-06  0.275E-03    3.15       5.6  T
   4    -63.2659806 -0.357339E-06  0.313E-04    3.15      49.2  T
   5    -63.2659806 -0.126737E-08  0.182E-04    3.15      84.6  T
     SCC iter.                  ...        0 min,  0.011 sec
     gradient                   ...        0 min,  0.053 sec
 * total energy  :   -62.1205739 Eh     change       -0.7365270E-05 Eh
   gradient norm :     0.0006744 Eh/α   predicted    -0.4823418E-05 ( -34.51%)
   displ. norm   :     0.0321245 α      lambda       -0.3757878E-05
   maximum displ.:     0.0189990 α      in ANC's #2, #5, #1, ...

........................................................................
.............................. CYCLE   15 ..............................
........................................................................

 iter      E             dE          RMSdq      gap      omega  full diag
   1    -63.2658648 -0.632659E+02  0.127E-02    3.15       0.0  T
   2    -63.2658648 -0.220642E-07  0.744E-03    3.15       2.1  T
   3    -63.2658647  0.330680E-07  0.101E-03    3.15      15.2  T
   4    -63.2658648 -0.428684E-07  0.178E-04    3.15      86.6  T
   5    -63.2658648 -0.275705E-09  0.889E-05    3.15     173.5  T
     SCC iter.                  ...        0 min,  0.011 sec
     gradient                   ...        0 min,  0.026 sec
 * total energy  :   -62.1205788 Eh     change       -0.4837159E-05 Eh
   gradient norm :     0.0004958 Eh/α   predicted    -0.1880447E-05 ( -61.12%)
   displ. norm   :     0.0791834 α      lambda       -0.8008071E-05
   maximum displ.:     0.0453414 α      in ANC's #5, #2, #1, ...

   *** GEOMETRY OPTIMIZATION CONVERGED AFTER 15 ITERATIONS ***

------------------------------------------------------------------------
 total energy gain   :        -0.0087252 Eh       -5.4751 kcal/mol
 total RMSD          :         0.3479978 a0        0.1842 Å
 total power (kW/mol):        -1.5272010 (step)  -24.1155 (real)
------------------------------------------------------------------------

 ANCopt (total)                0 d,  0 h,  0 min,  0.950 sec
 optimizer setup                ...        0 min,  0.000 sec (  0.008%)
 model hessian                  ...        0 min,  0.011 sec (  1.188%)
 ANC generation                 ...        0 min,  0.002 sec (  0.161%)
 coordinate transformation      ...        0 min,  0.000 sec (  0.011%)
 single point calculation       ...        0 min,  0.932 sec ( 98.130%)
 optimization log               ...        0 min,  0.003 sec (  0.327%)
 hessian update                 ...        0 min,  0.000 sec (  0.021%)
 rational function              ...        0 min,  0.001 sec (  0.102%)

================
 final structure:
================
42
 xtb: 6.7.1 (edcfbbe)
N           -2.19767370158310        1.94469741825443        0.77392541444857
C           -1.85033132187767        0.56785321250334        1.05972459149617
C           -0.40646319204331        0.26996938094317        0.71421396014812
C            0.25989167095329       -0.73871650436303        1.39898442290128
C            1.57397770601982       -1.04116513019612        1.10272355997431
C            2.25622456431199       -0.34583032062808        0.10689538412032
C            3.65831381598647       -0.65887244625092       -0.20693512304736
C            4.57941576116358       -0.88790250249786        0.81237070010093
C            5.89968712005472       -1.17120493068031        0.51597436168271
C            6.31875620022001       -1.23781173540561       -0.80227192094581
C            5.40995684827737       -1.01679122477272       -1.82360415216090
C            4.09107605666340       -0.72611799153665       -1.52918700735288
C            1.58142871831925        0.65816532789765       -0.58194847534682
C            0.26782092098596        0.96432256104570       -0.28127977361695
C           -2.81664628702953       -0.35767915284708        0.34527301943369
C           -4.05756857038377       -0.60947769495325        0.91729629053576
C           -4.97855452186517       -1.41312907128493        0.27017513683452
C           -4.66799893601163       -1.97342544995301       -0.95721734310145
C           -3.43331777573686       -1.72679698999493       -1.53229774270737
C           -2.51107960852135       -0.92235195421352       -0.88572120084117
C           -2.75218616367548        2.44733119961074       -0.37036699437841
C           -2.82839850548588        3.79795908695530       -0.18886088597183
N           -2.32925568170190        4.13270015658118        1.02915444607816
C           -1.95975855706404        3.00917186936136        1.57610580947013
H           -1.97768008713187        0.42873097431966        2.14273422217133
H           -0.25879689569901       -1.29122615530159        2.16988526217986
H            2.07473431050019       -1.83487318278687        1.63729437622484
H            4.26088076671063       -0.82045875437302        1.84266361020981
H            6.60579120360301       -1.33858037074162        1.31635489446432
H            7.34998332925772       -1.46073857812614       -1.03297284114985
H            5.73077761878884       -1.07148065233289       -2.85377489425823
H            3.38245458602336       -0.56855144619615       -2.32951615264642
H            2.09778630277735        1.22003311957803       -1.34618632423270
H           -0.23087168172602        1.75587515723485       -0.82194016492940
H           -4.30433568128187       -0.16903318401481        1.87315622397220
H           -5.93986912726833       -1.60153385417157        0.72463738389302
H           -5.38663819478495       -2.59995350898473       -1.46418326227281
H           -3.18617775059464       -2.16003931730890       -2.49024039192961
H           -1.54939836704698       -0.73358938942724       -1.34022456518585
H           -3.04963150714848        1.81931152950396       -1.18469188040305
H           -3.20924667958603        4.54664119250929       -0.85412642669249
H           -1.51717870536999        2.91476930704242        2.54810445283159

 Bond Distances (Angstroems)
 ---------------------------
N1-C2=1.4485         N1-C21=1.3673        N1-C24=1.3540        C2-N1=1.4485         C2-C3=1.5142         C2-C15=1.5168        
C2-H25=1.0993        C3-C2=1.5142         C3-C4=1.3894         C3-C14=1.3885        C4-C3=1.3894         C4-C5=1.3806         
C4-H26=1.0810        C5-C4=1.3806         C5-C6=1.3931         C5-H27=1.0800        C6-C5=1.3931         C6-C7=1.4705         
C6-C13=1.3921        C7-C6=1.4705         C7-C8=1.3928         C7-C12=1.3929        C8-C7=1.3928         C8-C9=1.3825         
C8-H28=1.0805        C9-C8=1.3825         C9-C10=1.3849        C9-H29=1.0804        C10-C9=1.3849        C10-C11=1.3849       
C10-H30=1.0800       C11-C10=1.3849       C11-C12=1.3823       C11-H31=1.0804       C12-C7=1.3929        C12-C11=1.3823       
C12-H32=1.0805       C13-C6=1.3921        C13-C14=1.3819       C13-H33=1.0800       C14-C3=1.3885        C14-C13=1.3819       
C14-H34=1.0805       C15-C2=1.5168        C15-C16=1.3894       C15-C20=1.3884       C16-C15=1.3894       C16-C17=1.3831       
C16-H35=1.0810       C17-C16=1.3831       C17-C18=1.3845       C17-H36=1.0799       C18-C17=1.3845       C18-C19=1.3842       
C18-H37=1.0798       C19-C18=1.3842       C19-C20=1.3841       C19-H38=1.0800       C20-C15=1.3884       C20-C19=1.3841       
C20-H39=1.0803       C21-N1=1.3673        C21-C22=1.3649       C21-H40=1.0705       C22-C21=1.3649       C22-N23=1.3582       
C22-H41=1.0715       N23-C22=1.3582       N23-C24=1.3031       C24-N1=1.3540        C24-N23=1.3031       C24-H42=1.0722       
H25-C2=1.0993        H26-C4=1.0810        H27-C5=1.0800        H28-C8=1.0805        H29-C9=1.0804        H30-C10=1.0800       
H31-C11=1.0804       H32-C12=1.0805       H33-C13=1.0800       H34-C14=1.0805       H35-C16=1.0810       H36-C17=1.0799       
H37-C18=1.0798       H38-C19=1.0800       H39-C20=1.0803       H40-C21=1.0705       H41-C22=1.0715       H42-C24=1.0722       
 C  H  Rav=1.0799 sigma=0.0058  Rmin=1.0705  Rmax=1.0993    18
 C  C  Rav=1.4012 sigma=0.0407  Rmin=1.3649  Rmax=1.5168    22
 N  C  Rav=1.3662 sigma=0.0468  Rmin=1.3031  Rmax=1.4485     5

 selected bond angles (degree)
 --------------------
C21-N1-C2=127.72               C24-N1-C2=126.04               C24-N1-C21=106.15              C3-C2-N1=111.75                
C15-C2-N1=109.53               C15-C2-C3=112.33               H25-C2-N1=106.67               H25-C2-C3=108.08               
H25-C2-C15=108.24              C4-C3-C2=119.19                C14-C3-C2=121.89               C14-C3-C4=118.92               
C5-C4-C3=120.65                H26-C4-C3=119.50               H26-C4-C5=119.85               C6-C5-C4=120.68                
H27-C5-C4=119.74               H27-C5-C6=119.57               C7-C6-C5=120.88                C13-C6-C5=118.45               
C13-C6-C7=120.67               C8-C7-C6=120.62                C12-C7-C6=120.60               C12-C7-C8=118.77               
C9-C8-C7=120.56                H28-C8-C7=119.51               H28-C8-C9=119.92               C10-C9-C8=120.19               
H29-C9-C8=119.81               H29-C9-C10=120.00              C11-C10-C9=119.72              H30-C10-C9=120.15              
H30-C10-C11=120.13             

 selected dihedral angles (degree)
 ---------------------------------
C3-C2-N1-C21= 93.22           C3-C2-N1-C24=277.32           C15-C2-N1-C21=328.08          C15-C2-N1-C24=152.18          
H25-C2-N1-C21=211.15          H25-C2-N1-C24= 35.25          C4-C3-C2-N1=152.87            C4-C3-C2-C15=276.44           
C4-C3-C2-H25= 35.79           C14-C3-C2-N1=331.98           C14-C3-C2-C15= 95.56          C14-C3-C2-H25=214.90          
C5-C4-C3-C2=179.60            C5-C4-C3-C14=  0.45           H26-C4-C3-C2=359.68           H26-C4-C3-C14=180.53          
C6-C5-C4-C3=359.68            C6-C5-C4-H26=179.60           H27-C5-C4-C3=180.62           H27-C5-C4-H26=  0.54          
C7-C6-C5-C4=179.64            C7-C6-C5-H27=358.70           C13-C6-C5-C4=359.92           C13-C6-C5-H27=178.98          
C8-C7-C6-C5=317.30            C8-C7-C6-C13=137.02           C12-C7-C6-C5=137.58           C12-C7-C6-C13=317.30          
C9-C8-C7-C6=180.54            C9-C8-C7-C12=  0.26           H28-C8-C7-C6=359.13           H28-C8-C7-C12=178.86          
C10-C9-C8-C7=359.63           C10-C9-C8-H28=181.04          H29-C9-C8-C7=179.48           H29-C9-C8-H28=  0.89          
C11-C10-C9-C8=  0.12          C11-C10-C9-H29=180.27         H30-C10-C9-C8=180.10          H30-C10-C9-H29=  0.24         
           -------------------------------------------------
          |                Final Singlepoint                |
           -------------------------------------------------

          ...................................................
          :                      SETUP                      :
          :.................................................:
          :  # basis functions                 114          :
          :  # atomic orbitals                 114          :
          :  # shells                           66          :
          :  # electrons                       116          :
          :  max. iterations                   250          :
          :  Hamiltonian                  GFN2-xTB          :
          :  restarted?                      false          :
          :  GBSA solvation                  false          :
          :  PC potential                    false          :
          :  electronic temp.          300.0000000     K    :
          :  accuracy                    1.0000000          :
          :  -> integral cutoff          0.2500000E+02      :
          :  -> integral neglect         0.1000000E-07      :
          :  -> SCF convergence          0.1000000E-05 Eh   :
          :  -> wf. convergence          0.1000000E-03 e    :
          :  Broyden damping             0.4000000          :
          :  net charge                          0          :
          :  unpaired electrons                  0          :
          ...................................................

 iter      E             dE          RMSdq      gap      omega  full diag
   1    -63.2658648 -0.632659E+02  0.291E-05    3.15       0.0  T
   2    -63.2658648 -0.153761E-10  0.193E-05    3.15     799.1  T
   3    -63.2658648 -0.142677E-10  0.781E-06    3.15    1974.7  T

   *** convergence criteria satisfied after 3 iterations ***

         #    Occupation            Energy/Eh            Energy/eV
      -------------------------------------------------------------
         1        2.0000           -0.6780769             -18.4514
       ...           ...                  ...                  ...
        52        2.0000           -0.4145278             -11.2799
        53        2.0000           -0.4127901             -11.2326
        54        2.0000           -0.4086314             -11.1194
        55        2.0000           -0.4076981             -11.0940
        56        2.0000           -0.3903914             -10.6231
        57        2.0000           -0.3784894             -10.2992
        58        2.0000           -0.3675603             -10.0018 (HOMO)
        59                         -0.2518978              -6.8545 (LUMO)
        60                         -0.2380191              -6.4768
        61                         -0.2350688              -6.3965
        62                         -0.2315076              -6.2996
        63                         -0.2258931              -6.1469
       ...                                ...                  ...
       114                          0.6845727              18.6282
      -------------------------------------------------------------
                  HL-Gap            0.1156625 Eh            3.1473 eV
             Fermi-level           -0.3097291 Eh           -8.4282 eV

 SCC (total)                   0 d,  0 h,  0 min,  0.061 sec
 SCC setup                      ...        0 min,  0.000 sec (  0.491%)
 Dispersion                     ...        0 min,  0.000 sec (  0.504%)
 classical contributions        ...        0 min,  0.000 sec (  0.228%)
 integral evaluation            ...        0 min,  0.028 sec ( 45.432%)
 iterations                     ...        0 min,  0.007 sec ( 10.760%)
 molecular gradient             ...        0 min,  0.026 sec ( 42.336%)
 printout                       ...        0 min,  0.000 sec (  0.239%)

         :::::::::::::::::::::::::::::::::::::::::::::::::::::
         ::                     SUMMARY                     ::
         :::::::::::::::::::::::::::::::::::::::::::::::::::::
         :: total energy             -62.120578767747 Eh    ::
         :: gradient norm              0.000496071443 Eh/a0 ::
         :: HOMO-LUMO gap              3.147336294830 eV    ::
         ::.................................................::
         :: SCC energy               -63.265627640270 Eh    ::
         :: -> isotropic ES            0.013796388517 Eh    ::
         :: -> anisotropic ES          0.007093891709 Eh    ::
         :: -> anisotropic XC          0.043482100790 Eh    ::
         :: -> dispersion             -0.049893679141 Eh    ::
         :: repulsion energy           1.145048872523 Eh    ::
         :: add. restraining           0.000000000000 Eh    ::
         :: total charge              -0.000000000000 e     ::
         :::::::::::::::::::::::::::::::::::::::::::::::::::::

           -------------------------------------------------
          |                Property Printout                |
           -------------------------------------------------

    * Orbital Energies and Occupations

         #    Occupation            Energy/Eh            Energy/eV
      -------------------------------------------------------------
         1        2.0000           -0.6780769             -18.4514
       ...           ...                  ...                  ...
        46        2.0000           -0.4351448             -11.8409
        47        2.0000           -0.4338179             -11.8048
        48        2.0000           -0.4270187             -11.6198
        49        2.0000           -0.4244012             -11.5485
        50        2.0000           -0.4177328             -11.3671
        51        2.0000           -0.4166021             -11.3363
        52        2.0000           -0.4145278             -11.2799
        53        2.0000           -0.4127901             -11.2326
        54        2.0000           -0.4086314             -11.1194
        55        2.0000           -0.4076981             -11.0940
        56        2.0000           -0.3903914             -10.6231
        57        2.0000           -0.3784894             -10.2992
        58        2.0000           -0.3675603             -10.0018 (HOMO)
        59                         -0.2518978              -6.8545 (LUMO)
        60                         -0.2380191              -6.4768
        61                         -0.2350688              -6.3965
        62                         -0.2315076              -6.2996
        63                         -0.2258931              -6.1469
        64                         -0.2061907              -5.6107
        65                         -0.1941258              -5.2824
        66                         -0.1556596              -4.2357
        67                         -0.1120276              -3.0484
        68                         -0.1084506              -2.9511
        69                         -0.0813964              -2.2149
       ...                                ...                  ...
       114                          0.6845727              18.6282
      -------------------------------------------------------------
                  HL-Gap            0.1156625 Eh            3.1473 eV
             Fermi-level           -0.3097291 Eh           -8.4282 eV

     #   Z          covCN         q      C6AA      α(0)
     1   7 N        2.864    -0.022    21.669     6.914
     2   6 C        3.801     0.033    20.025     6.371
     3   6 C        2.973     0.002    27.986     8.678
     4   6 C        2.923    -0.037    28.924     8.820
     5   6 C        2.924    -0.033    28.827     8.805
     6   6 C        2.977     0.010    27.786     8.647
     7   6 C        2.977     0.010    27.790     8.647
     8   6 C        2.925    -0.033    28.828     8.805
     9   6 C        2.918    -0.029    28.724     8.789
    10   6 C        2.920    -0.030    28.754     8.793
    11   6 C        2.918    -0.029    28.725     8.789
    12   6 C        2.925    -0.033    28.830     8.805
    13   6 C        2.925    -0.034    28.838     8.807
    14   6 C        2.921    -0.033    28.834     8.806
    15   6 C        2.975     0.008    27.833     8.654
    16   6 C        2.925    -0.034    28.838     8.806
    17   6 C        2.919    -0.027    28.682     8.782
    18   6 C        2.920    -0.029    28.716     8.788
    19   6 C        2.920    -0.028    28.704     8.786
    20   6 C        2.922    -0.032    28.802     8.801
    21   6 C        3.047    -0.024    28.547     8.763
    22   6 C        3.166     0.014    27.341     8.545
    23   7 N        1.914    -0.269    27.820     7.820
    24   6 C        3.182     0.080    25.805     8.292
    25   1 H        0.923     0.048     2.342     2.393
    26   1 H        0.926     0.029     2.606     2.525
    27   1 H        0.926     0.036     2.503     2.474
    28   1 H        0.926     0.031     2.566     2.505
    29   1 H        0.926     0.031     2.572     2.508
    30   1 H        0.926     0.031     2.573     2.509
    31   1 H        0.926     0.031     2.573     2.508
    32   1 H        0.926     0.031     2.571     2.507
    33   1 H        0.926     0.037     2.493     2.469
    34   1 H        0.926     0.037     2.486     2.465
    35   1 H        0.926     0.033     2.551     2.498
    36   1 H        0.926     0.037     2.495     2.470
    37   1 H        0.926     0.036     2.505     2.475
    38   1 H        0.926     0.035     2.512     2.479
    39   1 H        0.926     0.036     2.504     2.474
    40   1 H        0.926     0.026     2.647     2.544
    41   1 H        0.926     0.029     2.606     2.524
    42   1 H        0.926     0.027     2.635     2.538

 Mol. C6AA /au·bohr⁶  :      23987.775759
 Mol. C8AA /au·bohr⁸  :     595524.027385
 Mol. α(0) /au        :        249.377129


Wiberg/Mayer (AO) data.
largest (>0.10) Wiberg bond orders for each atom

 ---------------------------------------------------------------------------
     #   Z sym  total        # sym  WBO       # sym  WBO       # sym  WBO
 ---------------------------------------------------------------------------
     1   7 N    3.636 --    24 C    1.248    21 C    1.201     2 C    0.966
                            23 N    0.102
     2   6 C    3.971 --     3 C    0.980    15 C    0.972     1 N    0.966
                            25 H    0.951
     3   6 C    3.982 --    14 C    1.410     4 C    1.403     2 C    0.980
                             6 C    0.102
     4   6 C    3.990 --     5 C    1.459     3 C    1.403    26 H    0.969
                            13 C    0.107
     5   6 C    3.990 --     4 C    1.459     6 C    1.384    27 H    0.968
                            14 C    0.106
     6   6 C    3.988 --    13 C    1.390     5 C    1.384     7 C    1.046
                             3 C    0.102
     7   6 C    3.989 --     8 C    1.390    12 C    1.390     6 C    1.046
                            10 C    0.106
     8   6 C    3.991 --     9 C    1.451     7 C    1.390    28 H    0.969
                            11 C    0.109
     9   6 C    3.992 --     8 C    1.451    10 C    1.435    29 H    0.971
                            12 C    0.109
    10   6 C    3.987 --     9 C    1.435    11 C    1.435    30 H    0.972
                             7 C    0.106
    11   6 C    3.992 --    12 C    1.451    10 C    1.435    31 H    0.971
                             8 C    0.109
    12   6 C    3.991 --    11 C    1.451     7 C    1.390    32 H    0.969
                             9 C    0.109
    13   6 C    3.991 --    14 C    1.450     6 C    1.390    33 H    0.968
                             4 C    0.107
    14   6 C    3.991 --    13 C    1.450     3 C    1.410    34 H    0.966
                             5 C    0.106
    15   6 C    3.986 --    20 C    1.417    16 C    1.413     2 C    0.972
                            18 C    0.110
    16   6 C    3.991 --    17 C    1.446    15 C    1.413    35 H    0.969
                            19 C    0.112
    17   6 C    3.991 --    16 C    1.446    18 C    1.437    36 H    0.971
                            20 C    0.111
    18   6 C    3.990 --    19 C    1.441    17 C    1.437    37 H    0.971
                            15 C    0.110
    19   6 C    3.992 --    20 C    1.442    18 C    1.441    38 H    0.971
                            16 C    0.112
    20   6 C    3.991 --    19 C    1.442    15 C    1.417    39 H    0.966
                            17 C    0.111
    21   6 C    3.942 --    22 C    1.578     1 N    1.201    40 H    0.969
                            24 C    0.113
    22   6 C    3.975 --    21 C    1.578    23 N    1.300    41 H    0.972
    23   7 N    3.026 --    24 C    1.547    22 C    1.300     1 N    0.102
    24   6 C    3.957 --    23 N    1.547     1 N    1.248    42 H    0.965
                            21 C    0.113
    25   1 H    0.997 --     2 C    0.951
    26   1 H    0.999 --     4 C    0.969
    27   1 H    0.998 --     5 C    0.968
    28   1 H    0.999 --     8 C    0.969
    29   1 H    0.998 --     9 C    0.971
    30   1 H    0.999 --    10 C    0.972
    31   1 H    0.998 --    11 C    0.971
    32   1 H    0.999 --    12 C    0.969
    33   1 H    0.998 --    13 C    0.968
    34   1 H    0.998 --    14 C    0.966
    35   1 H    0.999 --    16 C    0.969
    36   1 H    0.998 --    17 C    0.971
    37   1 H    0.998 --    18 C    0.971
    38   1 H    0.998 --    19 C    0.971
    39   1 H    0.999 --    20 C    0.966
    40   1 H    0.999 --    21 C    0.969
    41   1 H    0.999 --    22 C    0.972
    42   1 H    0.999 --    24 C    0.965
 ---------------------------------------------------------------------------

Topologies differ in total number of bonds
Writing topology from bond orders to xtbtopo.mol

molecular dipole:
                 x           y           z       tot (Debye)
 q only:        0.243      -1.311      -0.140
   full:        0.229      -1.742      -0.202       4.496
molecular quadrupole (traceless):
                xx          xy          yy          xz          yz          zz
 q only:        7.775       8.812     -14.002       0.936      -3.802       6.226
  q+dip:       13.037      11.041     -25.784       0.111      -6.955      12.747
   full:       11.488      11.555     -22.492       1.156      -6.682      11.004

           -------------------------------------------------
          |                Geometry Summary                 |
           -------------------------------------------------

      molecular mass/u    :      310.3925297
   center of mass at/Å    :       -0.0607544       0.1441808       0.0634599
  moments of inertia/u·Å² :        0.1140441E+04   0.4157701E+04   0.4752553E+04
rotational constants/cm⁻¹ :        0.1478167E-01   0.4054556E-02   0.3547069E-02

 * 42 selected distances

     #   Z          #   Z                                           value/Å
     1   7 N        2   6 C                                       1.4484572 (max)
     3   6 C        4   6 C                                       1.3893837
     4   6 C        5   6 C                                       1.3806043
     5   6 C        6   6 C                                       1.3930633
     7   6 C        8   6 C                                       1.3927915
     8   6 C        9   6 C                                       1.3824717
     9   6 C       10   6 C                                       1.3848570
    10   6 C       11   6 C                                       1.3848777
     7   6 C       12   6 C                                       1.3928947
    11   6 C       12   6 C                                       1.3822515
     6   6 C       13   6 C                                       1.3920714
     3   6 C       14   6 C                                       1.3884500
    13   6 C       14   6 C                                       1.3819189
    15   6 C       16   6 C                                       1.3894249
    16   6 C       17   6 C                                       1.3830534
    17   6 C       18   6 C                                       1.3845105
    18   6 C       19   6 C                                       1.3841896
    15   6 C       20   6 C                                       1.3883708
    19   6 C       20   6 C                                       1.3840942
     1   7 N       21   6 C                                       1.3673077
    21   6 C       22   6 C                                       1.3648988
    22   6 C       23   7 N                                       1.3582183
     1   7 N       24   6 C                                       1.3539583
    23   7 N       24   6 C                                       1.3030733
     2   6 C       25   1 H                                       1.0993101
     4   6 C       26   1 H                                       1.0810148
     5   6 C       27   1 H                                       1.0800444
     8   6 C       28   1 H                                       1.0805170
     9   6 C       29   1 H                                       1.0803734
    10   6 C       30   1 H                                       1.0799763
    11   6 C       31   1 H                                       1.0803559
    12   6 C       32   1 H                                       1.0805085
    13   6 C       33   1 H                                       1.0799909
    14   6 C       34   1 H                                       1.0805386
    16   6 C       35   1 H                                       1.0809967
    17   6 C       36   1 H                                       1.0798881
    18   6 C       37   1 H                                       1.0798122
    19   6 C       38   1 H                                       1.0800146
    20   6 C       39   1 H                                       1.0802942
    21   6 C       40   1 H                                       1.0705175 (min)
    22   6 C       41   1 H                                       1.0715170
    24   6 C       42   1 H                                       1.0721802

 * 3 distinct bonds (by element types)

   Z      Z             #   av. dist./Å        max./Å        min./Å
   1 H    6 C          18     1.0798806     1.0993101     1.0705175
   6 C    6 C          19     1.3854831     1.3930633     1.3648988
   6 C    7 N           5     1.3662030     1.4484572     1.3030733


optimized geometry written to: xtbopt.xyz


           -------------------------------------------------
          | TOTAL ENERGY              -62.120578767747 Eh   |
          | GRADIENT NORM               0.000496071443 Eh/α |
          | HOMO-LUMO GAP               3.147336294830 eV   |
           -------------------------------------------------

------------------------------------------------------------------------
 * finished run on 2025/05/15 at 16:35:36.124     
------------------------------------------------------------------------
 total:
 * wall-time:     0 d,  0 h,  0 min,  1.108 sec
 *  cpu-time:     0 d,  0 h,  0 min,  0.822 sec
 * ratio c/w:     0.742 speedup
 SCF:
 * wall-time:     0 d,  0 h,  0 min,  0.078 sec
 *  cpu-time:     0 d,  0 h,  0 min,  0.059 sec
 * ratio c/w:     0.754 speedup
 ANC optimizer:
 * wall-time:     0 d,  0 h,  0 min,  1.015 sec
 *  cpu-time:     0 d,  0 h,  0 min,  0.751 sec
 * ratio c/w:     0.740 speedup



----- Single-point -----
      -----------------------------------------------------------      
     |                   =====================                   |     
     |                           x T B                           |     
     |                   =====================                   |     
     |                         S. Grimme                         |     
     |          Mulliken Center for Theoretical Chemistry        |     
     |                    University of Bonn                     |     
      -----------------------------------------------------------      

   * xtb version 6.7.1 (edcfbbe) compiled by 'conda@3ef47c1a292c' on 2024-11-25

   xtb is free software: you can redistribute it and/or modify it under
   the terms of the GNU Lesser General Public License as published by
   the Free Software Foundation, either version 3 of the License, or
   (at your option) any later version.
   
   xtb is distributed in the hope that it will be useful,
   but WITHOUT ANY WARRANTY; without even the implied warranty of
   MERCHANTABILITY or FITNESS FOR A PARTICULAR PURPOSE.  See the
   GNU Lesser General Public License for more details.
   
   Cite this work as:
   * C. Bannwarth, E. Caldeweyher, S. Ehlert, A. Hansen, P. Pracht,
     J. Seibert, S. Spicher, S. Grimme, WIREs Comput. Mol. Sci., 2020, 11,
     e01493. DOI: 10.1002/wcms.1493
   
   for GFN2-xTB:
   * C. Bannwarth, S. Ehlert and S. Grimme., J. Chem. Theory Comput., 2019,
     15, 1652-1671. DOI: 10.1021/acs.jctc.8b01176
   for GFN1-xTB:
   * S. Grimme, C. Bannwarth, P. Shushkov, J. Chem. Theory Comput., 2017,
     13, 1989-2009. DOI: 10.1021/acs.jctc.7b00118
   for GFN0-xTB:
   * P. Pracht, E. Caldeweyher, S. Ehlert, S. Grimme, ChemRxiv, 2019, preprint.
     DOI: 10.26434/chemrxiv.8326202.v1
   for GFN-FF:
   * S. Spicher and S. Grimme, Angew. Chem. Int. Ed., 2020, 59, 15665-15673.
     DOI: 10.1002/anie.202004239
   
   for ALPB and GBSA implicit solvation:
   * S. Ehlert, M. Stahn, S. Spicher, S. Grimme, J. Chem. Theory Comput.,
     2021, 17, 4250-4261. DOI: 10.1021/acs.jctc.1c00471
   
   for ddCOSMO and CPCM-X implicit solvation:
   * M. Stahn, S. Ehlert, S. Grimme, J. Phys. Chem. A,
     2023, XX, XXXX-XXXX. DOI: 10.1021/acs.jpca.3c04382
   
   for DFT-D4:
   * E. Caldeweyher, C. Bannwarth and S. Grimme, J. Chem. Phys., 2017,
     147, 034112. DOI: 10.1063/1.4993215
   * E. Caldeweyher, S. Ehlert, A. Hansen, H. Neugebauer, S. Spicher,
     C. Bannwarth and S. Grimme, J. Chem. Phys., 2019, 150, 154122.
     DOI: 10.1063/1.5090222
   * E. Caldeweyher, J.-M. Mewes, S. Ehlert and S. Grimme, Phys. Chem. Chem. Phys.
     2020, 22, 8499-8512. DOI: 10.1039/D0CP00502A
   
   for sTDA-xTB:
   * S. Grimme and C. Bannwarth, J. Chem. Phys., 2016, 145, 054103.
     DOI: 10.1063/1.4959605
   
   in the mass-spec context:
   * V. Asgeirsson, C. Bauer and S. Grimme, Chem. Sci., 2017, 8, 4879.
     DOI: 10.1039/c7sc00601b
   * J. Koopman and S. Grimme, ACS Omega 2019, 4, 12, 15120-15133.
     DOI: 10.1021/acsomega.9b02011
   
   for metadynamics refer to:
   * S. Grimme, J. Chem. Theory Comput., 2019, 155, 2847-2862
     DOI: 10.1021/acs.jctc.9b00143
   
   for SPH calculations refer to:
   * S. Spicher and S. Grimme, J. Chem. Theory Comput., 2021, 17, 1701-1714
     DOI: 10.1021/acs.jctc.0c01306
   
   for ONIOM refer to:
   * C. Plett, A. Katbashev, S. Ehlert, S. Grimme, M. Bursch,
     Phys. Chem. Chem. Phys., 2023, 25, 17860-17868. DOI: 10.1039/D3CP02178E
   
   for DIPRO refer to:
   * J. Kohn, N. Gildemeister, S. Grimme, D. Fazzi, A. Hansen,
     J. Chem. Phys., 2023, just accepted.
   
   for PTB refer to:
   * S. Grimme, M. Mueller, A. Hansen, J. Chem. Phys., 2023, 158, 124111.
     DOI: 10.1063/5.0137838
   
   with help from (in alphabetical order)
   P. Atkinson, C. Bannwarth, F. Bohle, G. Brandenburg, E. Caldeweyher
   M. Checinski, S. Dohm, S. Ehlert, S. Ehrlich, I. Gerasimov, C. Hölzer
   A. Katbashev, J. Kohn, J. Koopman, C. Lavigne, S. Lehtola, F. März, M. Müller,
   F. Musil, H. Neugebauer, J. Pisarek, C. Plett, P. Pracht, F. Pultar,
   J. Seibert, P. Shushkov, S. Spicher, M. Stahn, M. Steiner, T. Strunk,
   J. Stückrath, T. Rose, and J. Unsleber
   
 * started run on 2025/05/15 at 16:35:36.139     
   ID    Z sym.   atoms
    1    7 N      1, 23
    2    6 C      2-22, 24
    3    1 H      25-42

           -------------------------------------------------
          |                Calculation Setup                |
           -------------------------------------------------

          program call               : xtb /rds/general/user/hgt20/home/callum/QDESCP/Bifonazole_rdkit_conf_8/Bifonazole_rdkit_conf_8.xyz --acc 1 --gfn 2 --chrg 0 --uhf 0 --etemp 300 --input /rds/general/user/hgt20/home/callum/QDESCP/Bifonazole_rdkit_conf_8/Bifonazole_rdkit_conf_8_xtb.inp -P 1
          hostname                   : login-c
          coordinate file            : /rds/general/user/hgt20/home/callum/QDESCP/Bifonazole_rdkit_conf_8/Bifonazole_rdkit_conf_8.xyz
          omp threads                :                     1


           -------------------------------------------------
          |                 G F N 2 - x T B                 |
           -------------------------------------------------

        Reference                      10.1021/acs.jctc.8b01176
      * Hamiltonian:
        H0-scaling (s, p, d)           1.850000    2.230000    2.230000
        zeta-weighting                 0.500000
      * Dispersion:
        s8                             2.700000
        a1                             0.520000
        a2                             5.000000
        s9                             5.000000
      * Repulsion:
        kExp                           1.500000    1.000000
        rExp                           1.000000
      * Coulomb:
        alpha                          2.000000
        third order                    shell-resolved
        anisotropic                    true
        a3                             3.000000
        a5                             4.000000
        cn-shift                       1.200000
        cn-exp                         4.000000
        max-rad                        5.000000

q/qsh data taken from xtbrestart
CAMM data taken from xtbrestart

          ...................................................
          :                      SETUP                      :
          :.................................................:
          :  # basis functions                 114          :
          :  # atomic orbitals                 114          :
          :  # shells                           66          :
          :  # electrons                       116          :
          :  max. iterations                   250          :
          :  Hamiltonian                  GFN2-xTB          :
          :  restarted?                       true          :
          :  GBSA solvation                  false          :
          :  PC potential                    false          :
          :  electronic temp.          300.0000000     K    :
          :  accuracy                    1.0000000          :
          :  -> integral cutoff          0.2500000E+02      :
          :  -> integral neglect         0.1000000E-07      :
          :  -> SCF convergence          0.1000000E-05 Eh   :
          :  -> wf. convergence          0.1000000E-03 e    :
          :  Broyden damping             0.4000000          :
          :  net charge                          0          :
          :  unpaired electrons                  0          :
          ...................................................

 iter      E             dE          RMSdq      gap      omega  full diag
   1    -63.2658648 -0.632659E+02  0.312E-06    3.15       0.0  T
   2    -63.2658648 -0.206057E-12  0.211E-06    3.15    7311.5  T
   3    -63.2658648 -0.355271E-13  0.851E-07    3.15   18122.2  T

   *** convergence criteria satisfied after 3 iterations ***

         #    Occupation            Energy/Eh            Energy/eV
      -------------------------------------------------------------
         1        2.0000           -0.6780770             -18.4514
       ...           ...                  ...                  ...
        52        2.0000           -0.4145279             -11.2799
        53        2.0000           -0.4127901             -11.2326
        54        2.0000           -0.4086314             -11.1194
        55        2.0000           -0.4076981             -11.0940
        56        2.0000           -0.3903914             -10.6231
        57        2.0000           -0.3784894             -10.2992
        58        2.0000           -0.3675603             -10.0018 (HOMO)
        59                         -0.2518978              -6.8545 (LUMO)
        60                         -0.2380191              -6.4768
        61                         -0.2350688              -6.3965
        62                         -0.2315076              -6.2996
        63                         -0.2258931              -6.1469
       ...                                ...                  ...
       114                          0.6845727              18.6282
      -------------------------------------------------------------
                  HL-Gap            0.1156625 Eh            3.1473 eV
             Fermi-level           -0.3097291 Eh           -8.4282 eV

 SCC (total)                   0 d,  0 h,  0 min,  0.063 sec
 SCC setup                      ...        0 min,  0.000 sec (  0.559%)
 Dispersion                     ...        0 min,  0.000 sec (  0.759%)
 classical contributions        ...        0 min,  0.000 sec (  0.231%)
 integral evaluation            ...        0 min,  0.008 sec ( 12.553%)
 iterations                     ...        0 min,  0.028 sec ( 44.181%)
 molecular gradient             ...        0 min,  0.026 sec ( 41.370%)
 printout                       ...        0 min,  0.000 sec (  0.337%)

         :::::::::::::::::::::::::::::::::::::::::::::::::::::
         ::                     SUMMARY                     ::
         :::::::::::::::::::::::::::::::::::::::::::::::::::::
         :: total energy             -62.120578767747 Eh    ::
         :: gradient norm              0.000496059687 Eh/a0 ::
         :: HOMO-LUMO gap              3.147335624162 eV    ::
         ::.................................................::
         :: SCC energy               -63.265627640270 Eh    ::
         :: -> isotropic ES            0.013796370588 Eh    ::
         :: -> anisotropic ES          0.007093893727 Eh    ::
         :: -> anisotropic XC          0.043482100364 Eh    ::
         :: -> dispersion             -0.049893680075 Eh    ::
         :: repulsion energy           1.145048872523 Eh    ::
         :: add. restraining           0.000000000000 Eh    ::
         :: total charge               0.000000000000 e     ::
         :::::::::::::::::::::::::::::::::::::::::::::::::::::

           -------------------------------------------------
          |                Property Printout                |
           -------------------------------------------------

    * Orbital Energies and Occupations

         #    Occupation            Energy/Eh            Energy/eV
      -------------------------------------------------------------
         1        2.0000           -0.6780770             -18.4514
       ...           ...                  ...                  ...
        46        2.0000           -0.4351448             -11.8409
        47        2.0000           -0.4338179             -11.8048
        48        2.0000           -0.4270187             -11.6198
        49        2.0000           -0.4244012             -11.5485
        50        2.0000           -0.4177328             -11.3671
        51        2.0000           -0.4166021             -11.3363
        52        2.0000           -0.4145279             -11.2799
        53        2.0000           -0.4127901             -11.2326
        54        2.0000           -0.4086314             -11.1194
        55        2.0000           -0.4076981             -11.0940
        56        2.0000           -0.3903914             -10.6231
        57        2.0000           -0.3784894             -10.2992
        58        2.0000           -0.3675603             -10.0018 (HOMO)
        59                         -0.2518978              -6.8545 (LUMO)
        60                         -0.2380191              -6.4768
        61                         -0.2350688              -6.3965
        62                         -0.2315076              -6.2996
        63                         -0.2258931              -6.1469
        64                         -0.2061907              -5.6107
        65                         -0.1941259              -5.2824
        66                         -0.1556596              -4.2357
        67                         -0.1120276              -3.0484
        68                         -0.1084506              -2.9511
        69                         -0.0813964              -2.2149
       ...                                ...                  ...
       114                          0.6845727              18.6282
      -------------------------------------------------------------
                  HL-Gap            0.1156625 Eh            3.1473 eV
             Fermi-level           -0.3097291 Eh           -8.4282 eV

     #   Z          covCN         q      C6AA      α(0)
     1   7 N        2.864    -0.022    21.669     6.914
     2   6 C        3.801     0.033    20.025     6.371
     3   6 C        2.973     0.002    27.986     8.678
     4   6 C        2.923    -0.037    28.924     8.820
     5   6 C        2.924    -0.033    28.827     8.805
     6   6 C        2.977     0.010    27.786     8.647
     7   6 C        2.977     0.010    27.790     8.647
     8   6 C        2.925    -0.033    28.828     8.805
     9   6 C        2.918    -0.029    28.724     8.789
    10   6 C        2.920    -0.030    28.754     8.793
    11   6 C        2.918    -0.029    28.725     8.789
    12   6 C        2.925    -0.033    28.830     8.805
    13   6 C        2.925    -0.034    28.838     8.807
    14   6 C        2.921    -0.033    28.834     8.806
    15   6 C        2.975     0.008    27.833     8.654
    16   6 C        2.925    -0.034    28.838     8.806
    17   6 C        2.919    -0.027    28.682     8.782
    18   6 C        2.920    -0.029    28.716     8.788
    19   6 C        2.920    -0.028    28.704     8.786
    20   6 C        2.922    -0.032    28.802     8.801
    21   6 C        3.047    -0.024    28.547     8.763
    22   6 C        3.166     0.014    27.341     8.545
    23   7 N        1.914    -0.269    27.820     7.820
    24   6 C        3.182     0.080    25.805     8.292
    25   1 H        0.923     0.048     2.342     2.393
    26   1 H        0.926     0.029     2.606     2.525
    27   1 H        0.926     0.036     2.503     2.474
    28   1 H        0.926     0.031     2.566     2.505
    29   1 H        0.926     0.031     2.572     2.508
    30   1 H        0.926     0.031     2.573     2.509
    31   1 H        0.926     0.031     2.573     2.508
    32   1 H        0.926     0.031     2.571     2.507
    33   1 H        0.926     0.037     2.493     2.469
    34   1 H        0.926     0.037     2.486     2.465
    35   1 H        0.926     0.033     2.551     2.498
    36   1 H        0.926     0.037     2.495     2.470
    37   1 H        0.926     0.036     2.505     2.475
    38   1 H        0.926     0.035     2.512     2.479
    39   1 H        0.926     0.036     2.504     2.474
    40   1 H        0.926     0.026     2.647     2.544
    41   1 H        0.926     0.029     2.606     2.524
    42   1 H        0.926     0.027     2.635     2.538

 Mol. C6AA /au·bohr⁶  :      23987.775790
 Mol. C8AA /au·bohr⁸  :     595524.027606
 Mol. α(0) /au        :        249.377129


Wiberg/Mayer (AO) data.
largest (>0.10) Wiberg bond orders for each atom

 ---------------------------------------------------------------------------
     #   Z sym  total        # sym  WBO       # sym  WBO       # sym  WBO
 ---------------------------------------------------------------------------
     1   7 N    3.636 --    24 C    1.248    21 C    1.201     2 C    0.966
                            23 N    0.102
     2   6 C    3.971 --     3 C    0.980    15 C    0.972     1 N    0.966
                            25 H    0.951
     3   6 C    3.982 --    14 C    1.410     4 C    1.403     2 C    0.980
                             6 C    0.102
     4   6 C    3.990 --     5 C    1.459     3 C    1.403    26 H    0.969
                            13 C    0.107
     5   6 C    3.990 --     4 C    1.459     6 C    1.384    27 H    0.968
                            14 C    0.106
     6   6 C    3.988 --    13 C    1.390     5 C    1.384     7 C    1.046
                             3 C    0.102
     7   6 C    3.989 --     8 C    1.390    12 C    1.390     6 C    1.046
                            10 C    0.106
     8   6 C    3.991 --     9 C    1.451     7 C    1.390    28 H    0.969
                            11 C    0.109
     9   6 C    3.992 --     8 C    1.451    10 C    1.435    29 H    0.971
                            12 C    0.109
    10   6 C    3.987 --     9 C    1.435    11 C    1.435    30 H    0.972
                             7 C    0.106
    11   6 C    3.992 --    12 C    1.451    10 C    1.435    31 H    0.971
                             8 C    0.109
    12   6 C    3.991 --    11 C    1.451     7 C    1.390    32 H    0.969
                             9 C    0.109
    13   6 C    3.991 --    14 C    1.450     6 C    1.390    33 H    0.968
                             4 C    0.107
    14   6 C    3.991 --    13 C    1.450     3 C    1.410    34 H    0.966
                             5 C    0.106
    15   6 C    3.986 --    20 C    1.417    16 C    1.413     2 C    0.972
                            18 C    0.110
    16   6 C    3.991 --    17 C    1.446    15 C    1.413    35 H    0.969
                            19 C    0.112
    17   6 C    3.991 --    16 C    1.446    18 C    1.437    36 H    0.971
                            20 C    0.111
    18   6 C    3.990 --    19 C    1.441    17 C    1.437    37 H    0.971
                            15 C    0.110
    19   6 C    3.992 --    20 C    1.442    18 C    1.441    38 H    0.971
                            16 C    0.112
    20   6 C    3.991 --    19 C    1.442    15 C    1.417    39 H    0.966
                            17 C    0.111
    21   6 C    3.942 --    22 C    1.578     1 N    1.201    40 H    0.969
                            24 C    0.113
    22   6 C    3.975 --    21 C    1.578    23 N    1.300    41 H    0.972
    23   7 N    3.026 --    24 C    1.547    22 C    1.300     1 N    0.102
    24   6 C    3.957 --    23 N    1.547     1 N    1.248    42 H    0.965
                            21 C    0.113
    25   1 H    0.997 --     2 C    0.951
    26   1 H    0.999 --     4 C    0.969
    27   1 H    0.998 --     5 C    0.968
    28   1 H    0.999 --     8 C    0.969
    29   1 H    0.998 --     9 C    0.971
    30   1 H    0.999 --    10 C    0.972
    31   1 H    0.998 --    11 C    0.971
    32   1 H    0.999 --    12 C    0.969
    33   1 H    0.998 --    13 C    0.968
    34   1 H    0.998 --    14 C    0.966
    35   1 H    0.999 --    16 C    0.969
    36   1 H    0.998 --    17 C    0.971
    37   1 H    0.998 --    18 C    0.971
    38   1 H    0.998 --    19 C    0.971
    39   1 H    0.999 --    20 C    0.966
    40   1 H    0.999 --    21 C    0.969
    41   1 H    0.999 --    22 C    0.972
    42   1 H    0.999 --    24 C    0.965
 ---------------------------------------------------------------------------

Topologies differ in total number of bonds
Writing topology from bond orders to xtbtopo.mol

molecular dipole:
                 x           y           z       tot (Debye)
 q only:        0.243      -1.311      -0.140
   full:        0.229      -1.742      -0.202       4.496
molecular quadrupole (traceless):
                xx          xy          yy          xz          yz          zz
 q only:        7.775       8.812     -14.002       0.936      -3.802       6.226
  q+dip:       13.037      11.041     -25.784       0.111      -6.955      12.747
   full:       11.488      11.555     -22.492       1.156      -6.682      11.004


           -------------------------------------------------
          | TOTAL ENERGY              -62.120578767747 Eh   |
          | GRADIENT NORM               0.000496059687 Eh/α |
          | HOMO-LUMO GAP               3.147335624162 eV   |
           -------------------------------------------------

------------------------------------------------------------------------
 * finished run on 2025/05/15 at 16:35:36.217     
------------------------------------------------------------------------
 total:
 * wall-time:     0 d,  0 h,  0 min,  0.078 sec
 *  cpu-time:     0 d,  0 h,  0 min,  0.056 sec
 * ratio c/w:     0.716 speedup
 SCF:
 * wall-time:     0 d,  0 h,  0 min,  0.063 sec
 *  cpu-time:     0 d,  0 h,  0 min,  0.043 sec
 * ratio c/w:     0.682 speedup



----- FOD -----
      -----------------------------------------------------------      
     |                   =====================                   |     
     |                           x T B                           |     
     |                   =====================                   |     
[...]
     2021, 17, 4250-4261. DOI: 10.1021/acs.jctc.1c00471
   
   for ddCOSMO and CPCM-X implicit solvation:
   * M. Stahn, S. Ehlert, S. Grimme, J. Phys. Chem. A,
     2023, XX, XXXX-XXXX. DOI: 10.1021/acs.jpca.3c04382
   
   for DFT-D4:
   * E. Caldeweyher, C. Bannwarth and S. Grimme, J. Chem. Phys., 2017,
     147, 034112. DOI: 10.1063/1.4993215
   * E. Caldeweyher, S. Ehlert, A. Hansen, H. Neugebauer, S. Spicher,
     C. Bannwarth and S. Grimme, J. Chem. Phys., 2019, 150, 154122.
     DOI: 10.1063/1.5090222
   * E. Caldeweyher, J.-M. Mewes, S. Ehlert and S. Grimme, Phys. Chem. Chem. Phys.
     2020, 22, 8499-8512. DOI: 10.1039/D0CP00502A
   
   for sTDA-xTB:
   * S. Grimme and C. Bannwarth, J. Chem. Phys., 2016, 145, 054103.
     DOI: 10.1063/1.4959605
   
   in the mass-spec context:
   * V. Asgeirsson, C. Bauer and S. Grimme, Chem. Sci., 2017, 8, 4879.
     DOI: 10.1039/c7sc00601b
   * J. Koopman and S. Grimme, ACS Omega 2019, 4, 12, 15120-15133.
     DOI: 10.1021/acsomega.9b02011
   
   for metadynamics refer to:
   * S. Grimme, J. Chem. Theory Comput., 2019, 155, 2847-2862
     DOI: 10.1021/acs.jctc.9b00143
   
   for SPH calculations refer to:
   * S. Spicher and S. Grimme, J. Chem. Theory Comput., 2021, 17, 1701-1714
     DOI: 10.1021/acs.jctc.0c01306
   
   for ONIOM refer to:
   * C. Plett, A. Katbashev, S. Ehlert, S. Grimme, M. Bursch,
     Phys. Chem. Chem. Phys., 2023, 25, 17860-17868. DOI: 10.1039/D3CP02178E
   
   for DIPRO refer to:
   * J. Kohn, N. Gildemeister, S. Grimme, D. Fazzi, A. Hansen,
     J. Chem. Phys., 2023, just accepted.
   
   for PTB refer to:
   * S. Grimme, M. Mueller, A. Hansen, J. Chem. Phys., 2023, 158, 124111.
     DOI: 10.1063/5.0137838
   
   with help from (in alphabetical order)
   P. Atkinson, C. Bannwarth, F. Bohle, G. Brandenburg, E. Caldeweyher
   M. Checinski, S. Dohm, S. Ehlert, S. Ehrlich, I. Gerasimov, C. Hölzer
   A. Katbashev, J. Kohn, J. Koopman, C. Lavigne, S. Lehtola, F. März, M. Müller,
   F. Musil, H. Neugebauer, J. Pisarek, C. Plett, P. Pracht, F. Pultar,
   J. Seibert, P. Shushkov, S. Spicher, M. Stahn, M. Steiner, T. Strunk,
   J. Stückrath, T. Rose, and J. Unsleber
   
 * started run on 2025/05/15 at 16:35:38.710     
   ID    Z sym.   atoms
    1    7 N      1, 23
    2    6 C      2-22, 24
    3    1 H      25-42

           -------------------------------------------------
          |                Calculation Setup                |
           -------------------------------------------------

          program call               : xtb /rds/general/user/hgt20/home/callum/QDESCP/Bifonazole_rdkit_conf_8/Bifonazole_rdkit_conf_8.xyz --acc 1 --gfn 2 --chrg 0 --uhf 2 --etemp 300 --input /rds/general/user/hgt20/home/callum/QDESCP/Bifonazole_rdkit_conf_8/Bifonazole_rdkit_conf_8_xtb.inp -P 1
          hostname                   : login-c
          coordinate file            : /rds/general/user/hgt20/home/callum/QDESCP/Bifonazole_rdkit_conf_8/Bifonazole_rdkit_conf_8.xyz
          omp threads                :                     1


           -------------------------------------------------
          |                 G F N 2 - x T B                 |
           -------------------------------------------------

        Reference                      10.1021/acs.jctc.8b01176
      * Hamiltonian:
        H0-scaling (s, p, d)           1.850000    2.230000    2.230000
        zeta-weighting                 0.500000
      * Dispersion:
        s8                             2.700000
        a1                             0.520000
        a2                             5.000000
        s9                             5.000000
      * Repulsion:
        kExp                           1.500000    1.000000
        rExp                           1.000000
      * Coulomb:
        alpha                          2.000000
        third order                    shell-resolved
        anisotropic                    true
        a3                             3.000000
        a5                             4.000000
        cn-shift                       1.200000
        cn-exp                         4.000000
        max-rad                        5.000000


          ...................................................
          :                      SETUP                      :
          :.................................................:
          :  # basis functions                 114          :
          :  # atomic orbitals                 114          :
          :  # shells                           66          :
          :  # electrons                       116          :
          :  max. iterations                   250          :
          :  Hamiltonian                  GFN2-xTB          :
          :  restarted?                      false          :
          :  GBSA solvation                  false          :
          :  PC potential                    false          :
          :  electronic temp.          300.0000000     K    :
          :  accuracy                    1.0000000          :
          :  -> integral cutoff          0.2500000E+02      :
          :  -> integral neglect         0.1000000E-07      :
          :  -> SCF convergence          0.1000000E-05 Eh   :
          :  -> wf. convergence          0.1000000E-03 e    :
          :  Broyden damping             0.4000000          :
          :  net charge                          0          :
          :  unpaired electrons                  2          :
          ...................................................

 iter      E             dE          RMSdq      gap      omega  full diag
   1    -62.9829591 -0.629830E+02  0.387E+00    0.55       0.0  T
   2    -62.8253968  0.157562E+00  0.322E+00    0.14       1.0  T
   3    -62.7377751  0.876217E-01  0.261E+00    0.60       1.0  T
   4    -62.8351703 -0.973951E-01  0.198E+00    0.17       1.0  T
   5    -63.1004423 -0.265272E+00  0.942E-01    0.44       1.0  T
   6    -63.1062942 -0.585193E-02  0.717E-01    0.52       1.0  T
   7    -63.1172687 -0.109745E-01  0.571E-01    0.48       1.0  T
   8    -63.1236915 -0.642283E-02  0.397E-01    0.53       1.0  T
   9    -63.0832880  0.404035E-01  0.653E-01    0.50       1.0  T
  10    -63.1250630 -0.417750E-01  0.250E-01    0.36       1.0  T
  11    -63.1264176 -0.135467E-02  0.193E-01    0.32       1.0  T
  12    -63.1272045 -0.786875E-03  0.157E-01    0.30       1.0  T
  13    -63.1286379 -0.143344E-02  0.836E-02    0.29       1.0  T
  14    -63.1292541 -0.616153E-03  0.123E-02    0.28       1.3  T
  15    -63.1292520  0.207158E-05  0.116E-02    0.28       1.3  T
  16    -63.1292527 -0.685880E-06  0.991E-03    0.28       1.6  T
  17    -63.1292612 -0.846135E-05  0.124E-03    0.28      12.5  T
  18    -63.1292612  0.164552E-07  0.100E-03    0.28      15.4  T
  19    -63.1292612 -0.576983E-07  0.568E-04    0.28      27.2  T
  20    -63.1292612 -0.216957E-07  0.302E-04    0.28      51.1  T

   *** convergence criteria satisfied after 20 iterations ***

         #    Occupation            Energy/Eh            Energy/eV
      -------------------------------------------------------------
         1        2.0000           -0.6912124             -18.8088
       ...           ...                  ...                  ...
        53        2.0000           -0.4082072             -11.1079
        54        2.0000           -0.4070896             -11.0775
        55        2.0000           -0.4030176             -10.9667
        56        1.9984           -0.3926396             -10.6843
        57        1.9348           -0.3890405             -10.5863
        58        1.0668           -0.3840052             -10.4493
        59        0.9956           -0.2454594              -6.6793 (HOMO)
        60        0.0042           -0.2351005              -6.3974 (LUMO)
        61        0.0002           -0.2321279              -6.3165
        62        0.0000           -0.2251460              -6.1265
        63                         -0.2209976              -6.0136
        64                         -0.2080545              -5.6615
       ...                                ...                  ...
       114                          0.6902653              18.7831
      -------------------------------------------------------------
                  HL-Gap            0.0103589 Eh            0.2819 eV
             Fermi-level           -0.3134056 Eh           -8.5282 eV

 transition dipole moment (au) for excitation:          58          59
     X       Y       Z   
   2.0115  -0.4468  -0.4174  total (au/Debye):    2.102   5.344
 dE (eV)             :    3.770
 oscillator strength :  0.57737E+00

 SCC (total)                   0 d,  0 h,  0 min,  0.121 sec
 SCC setup                      ...        0 min,  0.000 sec (  0.300%)
 Dispersion                     ...        0 min,  0.001 sec (  0.446%)
 classical contributions        ...        0 min,  0.000 sec (  0.121%)
 integral evaluation            ...        0 min,  0.008 sec (  6.565%)
 iterations                     ...        0 min,  0.082 sec ( 67.427%)
 molecular gradient             ...        0 min,  0.023 sec ( 19.289%)
 printout                       ...        0 min,  0.007 sec (  5.847%)

         :::::::::::::::::::::::::::::::::::::::::::::::::::::
         ::                     SUMMARY                     ::
         :::::::::::::::::::::::::::::::::::::::::::::::::::::
         :: total energy             -61.983975212183 Eh    ::
         :: gradient norm              0.157182695823 Eh/a0 ::
         :: HOMO-LUMO gap              0.281880408716 eV    ::
         ::.................................................::
         :: SCC energy               -63.129024084706 Eh    ::
         :: -> isotropic ES            0.011040169571 Eh    ::
         :: -> anisotropic ES          0.007986759196 Eh    ::
         :: -> anisotropic XC          0.041303132833 Eh    ::
         :: -> dispersion             -0.049921888993 Eh    ::
         :: repulsion energy           1.145048872523 Eh    ::
         :: add. restraining           0.000000000000 Eh    ::
         :: total charge              -0.000000000000 e     ::
         :::::::::::::::::::::::::::::::::::::::::::::::::::::

           -------------------------------------------------
          |                Property Printout                |
           -------------------------------------------------

    * Orbital Energies and Occupations

         #    Occupation            Energy/Eh            Energy/eV
      -------------------------------------------------------------
         1        2.0000           -0.6912124             -18.8088
       ...           ...                  ...                  ...
        47        2.0000           -0.4298295             -11.6963
        48        2.0000           -0.4236209             -11.5273
        49        2.0000           -0.4219456             -11.4817
        50        2.0000           -0.4155822             -11.3086
        51        2.0000           -0.4139329             -11.2637
        52        2.0000           -0.4131309             -11.2419
        53        2.0000           -0.4082072             -11.1079
        54        2.0000           -0.4070896             -11.0775
        55        2.0000           -0.4030176             -10.9667
        56        1.9984           -0.3926396             -10.6843
        57        1.9348           -0.3890405             -10.5863
        58        1.0668           -0.3840052             -10.4493
        59        0.9956           -0.2454594              -6.6793 (HOMO)
        60        0.0042           -0.2351005              -6.3974 (LUMO)
        61        0.0002           -0.2321279              -6.3165
        62        0.0000           -0.2251460              -6.1265
        63                         -0.2209976              -6.0136
        64                         -0.2080545              -5.6615
        65                         -0.1995715              -5.4306
        66                         -0.1717579              -4.6738
        67                         -0.1070898              -2.9141
        68                         -0.1045718              -2.8455
        69                         -0.0751387              -2.0446
        70                          0.0130379               0.3548
       ...                                ...                  ...
       114                          0.6902653              18.7831
      -------------------------------------------------------------
                  HL-Gap            0.0103589 Eh            0.2819 eV
             Fermi-level           -0.3134056 Eh           -8.5282 eV

     #   Z          covCN         q      C6AA      α(0)
     1   7 N        2.864    -0.011    21.468     6.882
     2   6 C        3.801     0.032    20.037     6.373
     3   6 C        2.973    -0.009    28.228     8.715
     4   6 C        2.923    -0.039    28.973     8.827
     5   6 C        2.924    -0.034    28.842     8.807
     6   6 C        2.977     0.001    27.993     8.679
     7   6 C        2.977     0.008    27.824     8.652
     8   6 C        2.925    -0.033    28.833     8.806
     9   6 C        2.918    -0.030    28.740     8.791
    10   6 C        2.920    -0.031    28.777     8.797
    11   6 C        2.918    -0.030    28.740     8.791
    12   6 C        2.925    -0.034    28.835     8.806
    13   6 C        2.925    -0.034    28.849     8.808
    14   6 C        2.921    -0.037    28.924     8.819
    15   6 C        2.975     0.004    27.926     8.668
    16   6 C        2.925    -0.037    28.928     8.820
    17   6 C        2.919    -0.028    28.697     8.785
    18   6 C        2.920    -0.032    28.793     8.799
    19   6 C        2.920    -0.030    28.758     8.794
    20   6 C        2.922    -0.033    28.810     8.802
    21   6 C        3.047    -0.018    28.412     8.742
    22   6 C        3.166     0.015    27.322     8.542
    23   7 N        1.914    -0.234    26.963     7.699
    24   6 C        3.182     0.081    25.782     8.288
    25   1 H        0.923     0.053     2.284     2.363
    26   1 H        0.926     0.023     2.685     2.562
    27   1 H        0.926     0.032     2.557     2.500
    28   1 H        0.926     0.029     2.594     2.519
    29   1 H        0.926     0.028     2.612     2.527
    30   1 H        0.926     0.027     2.629     2.535
    31   1 H        0.926     0.028     2.612     2.527
    32   1 H        0.926     0.029     2.599     2.521
    33   1 H        0.926     0.032     2.560     2.502
    34   1 H        0.926     0.028     2.620     2.531
    35   1 H        0.926     0.028     2.610     2.526
    36   1 H        0.926     0.034     2.528     2.486
    37   1 H        0.926     0.033     2.541     2.493
    38   1 H        0.926     0.034     2.534     2.489
    39   1 H        0.926     0.036     2.503     2.474
    40   1 H        0.926     0.039     2.466     2.456
    41   1 H        0.926     0.039     2.467     2.456
    42   1 H        0.926     0.038     2.473     2.459

 Mol. C6AA /au·bohr⁶  :      23994.016736
 Mol. C8AA /au·bohr⁸  :     595681.829259
 Mol. α(0) /au        :        249.422611


Wiberg/Mayer (AO) data.
largest (>0.10) Wiberg bond orders for each atom

 ---------------------------------------------------------------------------
     #   Z sym  total        # sym  WBO       # sym  WBO       # sym  WBO
 ---------------------------------------------------------------------------
     1   7 N    3.638 --    24 C    1.256    21 C    1.210     2 C    0.959
     2   6 C    3.959 --     3 C    0.991    15 C    0.961     1 N    0.959
                            25 H    0.944
     3   6 C    3.805 --    14 C    1.260     4 C    1.251     2 C    0.991
     4   6 C    3.960 --     5 C    1.581     3 C    1.251    26 H    0.969
     5   6 C    3.953 --     4 C    1.581     6 C    1.187    27 H    0.969
     6   6 C    3.881 --     7 C    1.230    13 C    1.187     5 C    1.187
     7   6 C    3.889 --     6 C    1.230     8 C    1.204    12 C    1.204
     8   6 C    3.950 --     9 C    1.550     7 C    1.204    28 H    0.969
     9   6 C    3.964 --     8 C    1.550    10 C    1.311    29 H    0.970
    10   6 C    3.793 --    11 C    1.312     9 C    1.311    30 H    0.972
    11   6 C    3.965 --    12 C    1.550    10 C    1.312    31 H    0.970
    12   6 C    3.949 --    11 C    1.550     7 C    1.204    32 H    0.969
    13   6 C    3.952 --    14 C    1.572     6 C    1.187    33 H    0.969
    14   6 C    3.963 --    13 C    1.572     3 C    1.260    34 H    0.966
    15   6 C    3.955 --    20 C    1.408    16 C    1.397     2 C    0.961
                            18 C    0.100
    16   6 C    3.975 --    17 C    1.449    15 C    1.397    35 H    0.969
                            19 C    0.106
    17   6 C    3.988 --    16 C    1.449    18 C    1.432    36 H    0.971
                            20 C    0.110
    18   6 C    3.966 --    17 C    1.432    19 C    1.427    37 H    0.971
                            15 C    0.100
    19   6 C    3.981 --    20 C    1.447    18 C    1.427    38 H    0.970
                            16 C    0.106
    20   6 C    3.985 --    19 C    1.447    15 C    1.408    39 H    0.966
                            17 C    0.110
    21   6 C    3.931 --    22 C    1.565     1 N    1.210    40 H    0.968
                            24 C    0.104
    22   6 C    3.955 --    21 C    1.565    23 N    1.295    41 H    0.970
    23   7 N    3.007 --    24 C    1.532    22 C    1.295
    24   6 C    3.946 --    23 N    1.532     1 N    1.256    42 H    0.964
                            21 C    0.104
    25   1 H    0.991 --     2 C    0.944
    26   1 H    0.999 --     4 C    0.969
    27   1 H    0.998 --     5 C    0.969
    28   1 H    0.999 --     8 C    0.969
    29   1 H    0.999 --     9 C    0.970
    30   1 H    0.999 --    10 C    0.972
    31   1 H    0.999 --    11 C    0.970
    32   1 H    0.999 --    12 C    0.969
    33   1 H    0.999 --    13 C    0.969
    34   1 H    0.999 --    14 C    0.966
    35   1 H    0.999 --    16 C    0.969
    36   1 H    0.998 --    17 C    0.971
    37   1 H    0.998 --    18 C    0.971
    38   1 H    0.998 --    19 C    0.970
    39   1 H    0.999 --    20 C    0.966
    40   1 H    0.998 --    21 C    0.968
    41   1 H    0.997 --    22 C    0.970
    42   1 H    0.998 --    24 C    0.964
 ---------------------------------------------------------------------------

Topologies differ in total number of bonds
Writing topology from bond orders to xtbtopo.mol

molecular dipole:
                 x           y           z       tot (Debye)
 q only:       -0.231      -0.692      -0.035
   full:       -0.245      -1.053      -0.071       2.754
molecular quadrupole (traceless):
                xx          xy          yy          xz          yz          zz
 q only:        4.107       4.995      -9.791       0.808      -2.708       5.684
  q+dip:        9.796       6.672     -20.712      -0.600      -4.865      10.916
   full:        7.811       7.247     -17.409       0.546      -4.908       9.598


           -------------------------------------------------
          | TOTAL ENERGY              -61.983975212183 Eh   |
          | GRADIENT NORM               0.157182695823 Eh/α |
          | HOMO-LUMO GAP               0.281880408716 eV   |
           -------------------------------------------------

------------------------------------------------------------------------
 * finished run on 2025/05/15 at 16:35:38.883     
------------------------------------------------------------------------
 total:
 * wall-time:     0 d,  0 h,  0 min,  0.173 sec
 *  cpu-time:     0 d,  0 h,  0 min,  0.096 sec
 * ratio c/w:     0.551 speedup
 SCF:
 * wall-time:     0 d,  0 h,  0 min,  0.121 sec
 *  cpu-time:     0 d,  0 h,  0 min,  0.084 sec
 * ratio c/w:     0.691 speedup


