42
 energy: -62.120578767747 gnorm: 0.000496071443 xtb: 6.7.1 (edcfbbe)
N           -2.19767370158310        1.94469741825443        0.77392541444857
C           -1.85033132187767        0.56785321250334        1.05972459149617
C           -0.40646319204331        0.26996938094317        0.71421396014812
C            0.25989167095329       -0.73871650436303        1.39898442290128
C            1.57397770601982       -1.04116513019612        1.10272355997431
C            2.25622456431199       -0.34583032062808        0.10689538412032
C            3.65831381598647       -0.65887244625092       -0.20693512304736
C            4.57941576116358       -0.88790250249786        0.81237070010093
C            5.89968712005472       -1.17120493068031        0.51597436168271
C            6.31875620022001       -1.23781173540561       -0.80227192094581
C            5.40995684827737       -1.01679122477272       -1.82360415216090
C            4.09107605666340       -0.72611799153665       -1.52918700735288
C            1.58142871831925        0.65816532789765       -0.58194847534682
C            0.26782092098596        0.96432256104570       -0.28127977361695
C           -2.81664628702953       -0.35767915284708        0.34527301943369
C           -4.05756857038377       -0.60947769495325        0.91729629053576
C           -4.97855452186517       -1.41312907128493        0.27017513683452
C           -4.66799893601163       -1.97342544995301       -0.95721734310145
C           -3.43331777573686       -1.72679698999493       -1.53229774270737
C           -2.51107960852135       -0.92235195421352       -0.88572120084117
C           -2.75218616367548        2.44733119961074       -0.37036699437841
C           -2.82839850548588        3.79795908695530       -0.18886088597183
N           -2.32925568170190        4.13270015658118        1.02915444607816
C           -1.95975855706404        3.00917186936136        1.57610580947013
H           -1.97768008713187        0.42873097431966        2.14273422217133
H           -0.25879689569901       -1.29122615530159        2.16988526217986
H            2.07473431050019       -1.83487318278687        1.63729437622484
H            4.26088076671063       -0.82045875437302        1.84266361020981
H            6.60579120360301       -1.33858037074162        1.31635489446432
H            7.34998332925772       -1.46073857812614       -1.03297284114985
H            5.73077761878884       -1.07148065233289       -2.85377489425823
H            3.38245458602336       -0.56855144619615       -2.32951615264642
H            2.09778630277735        1.22003311957803       -1.34618632423270
H           -0.23087168172602        1.75587515723485       -0.82194016492940
H           -4.30433568128187       -0.16903318401481        1.87315622397220
H           -5.93986912726833       -1.60153385417157        0.72463738389302
H           -5.38663819478495       -2.59995350898473       -1.46418326227281
H           -3.18617775059464       -2.16003931730890       -2.49024039192961
H           -1.54939836704698       -0.73358938942724       -1.34022456518585
H           -3.04963150714848        1.81931152950396       -1.18469188040305
H           -3.20924667958603        4.54664119250929       -0.85412642669249
H           -1.51717870536999        2.91476930704242        2.54810445283159
