----- Optimization -----
      -----------------------------------------------------------      
     |                   =====================                   |     
     |                           x T B                           |     
     |                   =====================                   |     
     |                         S. Grimme                         |     
     |          Mulliken Center for Theoretical Chemistry        |     
     |                    University of Bonn                     |     
      -----------------------------------------------------------      

   * xtb version 6.7.1 (edcfbbe) compiled by 'conda@3ef47c1a292c' on 2024-11-25

   xtb is free software: you can redistribute it and/or modify it under
   the terms of the GNU Lesser General Public License as published by
   the Free Software Foundation, either version 3 of the License, or
   (at your option) any later version.
   
   xtb is distributed in the hope that it will be useful,
   but WITHOUT ANY WARRANTY; without even the implied warranty of
   MERCHANTABILITY or FITNESS FOR A PARTICULAR PURPOSE.  See the
   GNU Lesser General Public License for more details.
   
   Cite this work as:
   * C. Bannwarth, E. Caldeweyher, S. Ehlert, A. Hansen, P. Pracht,
     J. Seibert, S. Spicher, S. Grimme, WIREs Comput. Mol. Sci., 2020, 11,
     e01493. DOI: 10.1002/wcms.1493
   
   for GFN2-xTB:
   * C. Bannwarth, S. Ehlert and S. Grimme., J. Chem. Theory Comput., 2019,
     15, 1652-1671. DOI: 10.1021/acs.jctc.8b01176
   for GFN1-xTB:
   * S. Grimme, C. Bannwarth, P. Shushkov, J. Chem. Theory Comput., 2017,
     13, 1989-2009. DOI: 10.1021/acs.jctc.7b00118
   for GFN0-xTB:
   * P. Pracht, E. Caldeweyher, S. Ehlert, S. Grimme, ChemRxiv, 2019, preprint.
     DOI: 10.26434/chemrxiv.8326202.v1
   for GFN-FF:
   * S. Spicher and S. Grimme, Angew. Chem. Int. Ed., 2020, 59, 15665-15673.
     DOI: 10.1002/anie.202004239
   
   for ALPB and GBSA implicit solvation:
   * S. Ehlert, M. Stahn, S. Spicher, S. Grimme, J. Chem. Theory Comput.,
     2021, 17, 4250-4261. DOI: 10.1021/acs.jctc.1c00471
   
   for ddCOSMO and CPCM-X implicit solvation:
   * M. Stahn, S. Ehlert, S. Grimme, J. Phys. Chem. A,
     2023, XX, XXXX-XXXX. DOI: 10.1021/acs.jpca.3c04382
   
   for DFT-D4:
   * E. Caldeweyher, C. Bannwarth and S. Grimme, J. Chem. Phys., 2017,
     147, 034112. DOI: 10.1063/1.4993215
   * E. Caldeweyher, S. Ehlert, A. Hansen, H. Neugebauer, S. Spicher,
     C. Bannwarth and S. Grimme, J. Chem. Phys., 2019, 150, 154122.
     DOI: 10.1063/1.5090222
   * E. Caldeweyher, J.-M. Mewes, S. Ehlert and S. Grimme, Phys. Chem. Chem. Phys.
     2020, 22, 8499-8512. DOI: 10.1039/D0CP00502A
   
   for sTDA-xTB:
   * S. Grimme and C. Bannwarth, J. Chem. Phys., 2016, 145, 054103.
     DOI: 10.1063/1.4959605
   
   in the mass-spec context:
   * V. Asgeirsson, C. Bauer and S. Grimme, Chem. Sci., 2017, 8, 4879.
     DOI: 10.1039/c7sc00601b
   * J. Koopman and S. Grimme, ACS Omega 2019, 4, 12, 15120-15133.
     DOI: 10.1021/acsomega.9b02011
   
   for metadynamics refer to:
   * S. Grimme, J. Chem. Theory Comput., 2019, 155, 2847-2862
     DOI: 10.1021/acs.jctc.9b00143
   
   for SPH calculations refer to:
   * S. Spicher and S. Grimme, J. Chem. Theory Comput., 2021, 17, 1701-1714
     DOI: 10.1021/acs.jctc.0c01306
   
   for ONIOM refer to:
   * C. Plett, A. Katbashev, S. Ehlert, S. Grimme, M. Bursch,
     Phys. Chem. Chem. Phys., 2023, 25, 17860-17868. DOI: 10.1039/D3CP02178E
   
   for DIPRO refer to:
   * J. Kohn, N. Gildemeister, S. Grimme, D. Fazzi, A. Hansen,
     J. Chem. Phys., 2023, just accepted.
   
   for PTB refer to:
   * S. Grimme, M. Mueller, A. Hansen, J. Chem. Phys., 2023, 158, 124111.
     DOI: 10.1063/5.0137838
   
   with help from (in alphabetical order)
   P. Atkinson, C. Bannwarth, F. Bohle, G. Brandenburg, E. Caldeweyher
   M. Checinski, S. Dohm, S. Ehlert, S. Ehrlich, I. Gerasimov, C. Hölzer
   A. Katbashev, J. Kohn, J. Koopman, C. Lavigne, S. Lehtola, F. März, M. Müller,
   F. Musil, H. Neugebauer, J. Pisarek, C. Plett, P. Pracht, F. Pultar,
   J. Seibert, P. Shushkov, S. Spicher, M. Stahn, M. Steiner, T. Strunk,
   J. Stückrath, T. Rose, and J. Unsleber
   
 * started run on 2025/05/15 at 16:23:30.392     
   ID    Z sym.   atoms
    1    7 N      1, 3, 6, 9, 11
    2    6 C      2, 4, 7, 8, 10, 12-15, 17
    3   17 Cl     5
    4    8 O      16, 18, 19
    5    1 H      20-31

           -------------------------------------------------
          |                Calculation Setup                |
           -------------------------------------------------

          program call               : xtb /rds/general/user/hgt20/home/callum/QDESCP/Cladribine_rdkit_conf_6/Cladribine_rdkit_conf_6.xyz --opt normal --acc 1 --gfn 2 --chrg 0 --uhf 0 -P 1
          hostname                   : login-c
          coordinate file            : /rds/general/user/hgt20/home/callum/QDESCP/Cladribine_rdkit_conf_6/Cladribine_rdkit_conf_6.xyz
          omp threads                :                     1


           -------------------------------------------------
          |                 G F N 2 - x T B                 |
           -------------------------------------------------

        Reference                      10.1021/acs.jctc.8b01176
      * Hamiltonian:
        H0-scaling (s, p, d)           1.850000    2.230000    2.230000
        zeta-weighting                 0.500000
      * Dispersion:
        s8                             2.700000
        a1                             0.520000
        a2                             5.000000
        s9                             5.000000
      * Repulsion:
        kExp                           1.500000    1.000000
        rExp                           1.000000
      * Coulomb:
        alpha                          2.000000
        third order                    shell-resolved
        anisotropic                    true
        a3                             3.000000
        a5                             4.000000
        cn-shift                       1.200000
        cn-exp                         4.000000
        max-rad                        5.000000


          ...................................................
          :                      SETUP                      :
          :.................................................:
          :  # basis functions                  94          :
          :  # atomic orbitals                  93          :
          :  # shells                           51          :
          :  # electrons                       102          :
          :  max. iterations                   250          :
          :  Hamiltonian                  GFN2-xTB          :
          :  restarted?                      false          :
          :  GBSA solvation                  false          :
          :  PC potential                    false          :
          :  electronic temp.          300.0000000     K    :
          :  accuracy                    1.0000000          :
          :  -> integral cutoff          0.2500000E+02      :
          :  -> integral neglect         0.1000000E-07      :
          :  -> SCF convergence          0.1000000E-05 Eh   :
          :  -> wf. convergence          0.1000000E-03 e    :
          :  Broyden damping             0.4000000          :
          :  net charge                          0          :
          :  unpaired electrons                  0          :
          ...................................................

 iter      E             dE          RMSdq      gap      omega  full diag
   1    -59.3725218 -0.593725E+02  0.444E+00    2.95       0.0  T
   2    -59.4956391 -0.123117E+00  0.266E+00    3.30       1.0  T
   3    -59.5076550 -0.120159E-01  0.129E+00    3.15       1.0  T
   4    -59.5127283 -0.507327E-02  0.263E-01    3.08       1.0  T
   5    -59.5138590 -0.113078E-02  0.104E-01    3.05       1.0  T
   6    -59.5139474 -0.883447E-04  0.541E-02    3.05       1.0  T
   7    -59.5139761 -0.287307E-04  0.318E-02    3.05       1.0  T
   8    -59.5139827 -0.660382E-05  0.175E-02    3.05       1.0  T
   9    -59.5139850 -0.225581E-05  0.137E-02    3.05       1.3  T
  10    -59.5139871 -0.210094E-05  0.888E-03    3.05       2.0  T
  11    -59.5139882 -0.114855E-05  0.404E-03    3.05       4.4  T
  12    -59.5139884 -0.217843E-06  0.189E-03    3.05       9.5  T
  13    -59.5139885 -0.336334E-07  0.492E-04    3.05      36.5  T
  14    -59.5139885 -0.185029E-08  0.183E-04    3.05      98.3  T

   *** convergence criteria satisfied after 14 iterations ***

         #    Occupation            Energy/Eh            Energy/eV
      -------------------------------------------------------------
         1        2.0000           -1.0549218             -28.7059
       ...           ...                  ...                  ...
        45        2.0000           -0.4335884             -11.7985
        46        2.0000           -0.4248697             -11.5613
        47        2.0000           -0.4235601             -11.5257
        48        2.0000           -0.4216258             -11.4730
        49        2.0000           -0.4087459             -11.1225
        50        2.0000           -0.3972662             -10.8102
        51        2.0000           -0.3864665             -10.5163 (HOMO)
        52                         -0.2744441              -7.4680 (LUMO)
        53                         -0.2477696              -6.7422
        54                         -0.2158148              -5.8726
        55                         -0.1420033              -3.8641
        56                         -0.1219771              -3.3192
       ...                                ...                  ...
        93                          0.6208022              16.8929
      -------------------------------------------------------------
                  HL-Gap            0.1120224 Eh            3.0483 eV
             Fermi-level           -0.3304553 Eh           -8.9921 eV

 SCC (total)                   0 d,  0 h,  0 min,  0.044 sec
 SCC setup                      ...        0 min,  0.000 sec (  0.639%)
 Dispersion                     ...        0 min,  0.000 sec (  0.603%)
 classical contributions        ...        0 min,  0.000 sec (  0.197%)
 integral evaluation            ...        0 min,  0.006 sec ( 12.937%)
 iterations                     ...        0 min,  0.022 sec ( 48.863%)
 molecular gradient             ...        0 min,  0.016 sec ( 36.430%)
 printout                       ...        0 min,  0.000 sec (  0.316%)

         :::::::::::::::::::::::::::::::::::::::::::::::::::::
         ::                     SUMMARY                     ::
         :::::::::::::::::::::::::::::::::::::::::::::::::::::
         :: total energy             -58.949017481594 Eh    ::
         :: gradient norm              0.092346969799 Eh/a0 ::
         :: HOMO-LUMO gap              3.048283985189 eV    ::
         ::.................................................::
         :: SCC energy               -59.513899352056 Eh    ::
         :: -> isotropic ES            0.114322463331 Eh    ::
         :: -> anisotropic ES          0.001554389505 Eh    ::
         :: -> anisotropic XC          0.020086376259 Eh    ::
         :: -> dispersion             -0.033066337220 Eh    ::
         :: repulsion energy           0.564881870463 Eh    ::
         :: add. restraining           0.000000000000 Eh    ::
         :: total charge              -0.000000000000 e     ::
         :::::::::::::::::::::::::::::::::::::::::::::::::::::

      ----------------------------------------------------------- 
     |                   =====================                   |
     |                        A N C O P T                        |
     |                   =====================                   |
     |               Approximate Normal Coordinate               |
     |                Rational Function Optimizer                |
      ----------------------------------------------------------- 
      ----------------------------------------------------------- 
     |                   =====================                   |
     |                        A N C O P T                        |
     |                   =====================                   |
     |               Approximate Normal Coordinate               |
     |                Rational Function Optimizer                |
      ----------------------------------------------------------- 

          ...................................................
          :                      SETUP                      :
          :.................................................:
          :   optimization level            normal          :
          :   max. optcycles                   200          :
          :   ANC micro-cycles                  20          :
          :   degrees of freedom                87          :
          :.................................................:
          :   RF solver                   davidson          :
          :   write xtbopt.log                true          :
          :   linear?                        false          :
          :   energy convergence         0.5000000E-05 Eh   :
          :   grad. convergence          0.1000000E-02 Eh/α :
          :   maxmium RF displ.          1.0000000          :
          :   Hlow (freq-cutoff)         0.1000000E-01      :
          :   Hmax (freq-cutoff)         5.0000000          :
          :   S6 in model hess.         20.0000000          :
          ...................................................

generating ANC from exact Hessian ...
Using Lindh-Hessian (1995)
 Shifting diagonal of input Hessian by    9.0682368314622726E-003
 Lowest  eigenvalues of input Hessian
    0.000000    0.000000    0.000000    0.000000    0.000000    0.000000
    0.010000    0.010202    0.010443    0.013115    0.014609    0.015113
    0.017821    0.018775    0.020813    0.022854    0.025334    0.027168
 Highest eigenvalues
    1.784732    1.926480    2.063914    2.092905    2.174370    2.293714


........................................................................
.............................. CYCLE    1 ..............................
........................................................................

 iter      E             dE          RMSdq      gap      omega  full diag
   1    -59.5139885 -0.595140E+02  0.749E-05    3.05       0.0  T
   2    -59.5139885 -0.353850E-10  0.531E-05    3.05     338.0  T
   3    -59.5139885 -0.143601E-10  0.403E-05    3.05     445.6  T
     SCC iter.                  ...        0 min,  0.005 sec
     gradient                   ...        0 min,  0.016 sec
 * total energy  :   -58.9490175 Eh     change       -0.1992433E-09 Eh
   gradient norm :     0.0923471 Eh/α   predicted     0.0000000E+00 (-100.00%)
   displ. norm   :     0.2068134 α      lambda       -0.1085054E-01
   maximum displ.:     0.0716996 α      in ANC's #30, #18, #38, ...

........................................................................
.............................. CYCLE    2 ..............................
........................................................................

 iter      E             dE          RMSdq      gap      omega  full diag
   1    -59.5451430 -0.595451E+02  0.205E-01    3.16       0.0  T
   2    -59.5453029 -0.159843E-03  0.124E-01    3.12       1.0  T
   3    -59.5453279 -0.250515E-04  0.700E-02    3.14       1.0  T
   4    -59.5453651 -0.371353E-04  0.188E-02    3.13       1.0  T
   5    -59.5453703 -0.524919E-05  0.113E-02    3.13       1.6  T
   6    -59.5453711 -0.791522E-06  0.865E-03    3.13       2.1  T
   7    -59.5453718 -0.690679E-06  0.623E-03    3.13       2.9  T
   8    -59.5453724 -0.607405E-06  0.257E-03    3.13       7.0  T
   9    -59.5453725 -0.775735E-07  0.125E-03    3.13      14.3  T
  10    -59.5453725 -0.197707E-07  0.407E-04    3.13      44.1  T
  11    -59.5453725 -0.192163E-08  0.191E-04    3.13      94.2  T
     SCC iter.                  ...        0 min,  0.016 sec
     gradient                   ...        0 min,  0.063 sec
 * total energy  :   -58.9565700 Eh     change       -0.7552475E-02 Eh
   gradient norm :     0.0422136 Eh/α   predicted    -0.5657773E-02 ( -25.09%)
   displ. norm   :     0.1818149 α      lambda       -0.3730495E-02
   maximum displ.:     0.0810069 α      in ANC's #12, #9, #6, ...

........................................................................
.............................. CYCLE    3 ..............................
........................................................................

 iter      E             dE          RMSdq      gap      omega  full diag
   1    -59.5614582 -0.595615E+02  0.150E-01    3.21       0.0  T
   2    -59.5615883 -0.130173E-03  0.888E-02    3.18       1.0  T
   3    -59.5616154 -0.270609E-04  0.504E-02    3.19       1.0  T
   4    -59.5616289 -0.135053E-04  0.147E-02    3.19       1.2  T
   5    -59.5616324 -0.351558E-05  0.756E-03    3.19       2.4  T
   6    -59.5616328 -0.364630E-06  0.561E-03    3.19       3.2  T
   7    -59.5616330 -0.261702E-06  0.425E-03    3.19       4.2  T
   8    -59.5616333 -0.266236E-06  0.199E-03    3.19       9.0  T
   9    -59.5616334 -0.491778E-07  0.929E-04    3.19      19.3  T
  10    -59.5616334 -0.130035E-07  0.297E-04    3.19      60.5  T
     SCC iter.                  ...        0 min,  0.014 sec
     gradient                   ...        0 min,  0.016 sec
 * total energy  :   -58.9586341 Eh     change       -0.2064109E-02 Eh
   gradient norm :     0.0117610 Eh/α   predicted    -0.1927289E-02 (  -6.63%)
   displ. norm   :     0.1072030 α      lambda       -0.4556121E-03
   maximum displ.:     0.0517164 α      in ANC's #12, #6, #9, ...

........................................................................
.............................. CYCLE    4 ..............................
........................................................................

 iter      E             dE          RMSdq      gap      omega  full diag
   1    -59.5606304 -0.595606E+02  0.484E-02    3.20       0.0  T
   2    -59.5606381 -0.770285E-05  0.280E-02    3.19       1.0  T
   3    -59.5606375  0.604075E-06  0.143E-02    3.20       1.3  T
   4    -59.5606399 -0.237795E-05  0.344E-03    3.19       5.2  T
   5    -59.5606401 -0.244719E-06  0.158E-03    3.19      11.4  T
   6    -59.5606402 -0.206603E-07  0.697E-04    3.19      25.8  T
   7    -59.5606402 -0.393179E-08  0.389E-04    3.19      46.2  T
     SCC iter.                  ...        0 min,  0.010 sec
     gradient                   ...        0 min,  0.016 sec
 * total energy  :   -58.9589920 Eh     change       -0.3579056E-03 Eh
   gradient norm :     0.0094785 Eh/α   predicted    -0.2304351E-03 ( -35.62%)
   displ. norm   :     0.2072639 α      lambda       -0.5830451E-03
   maximum displ.:     0.1071569 α      in ANC's #6, #12, #2, ...

........................................................................
.............................. CYCLE    5 ..............................
........................................................................

 iter      E             dE          RMSdq      gap      omega  full diag
   1    -59.5579818 -0.595580E+02  0.784E-02    3.21       0.0  T
   2    -59.5579966 -0.148481E-04  0.460E-02    3.20       1.0  T
   3    -59.5579926  0.400373E-05  0.221E-02    3.20       1.0  T
   4    -59.5580008 -0.816383E-05  0.518E-03    3.20       3.5  T
   5    -59.5580012 -0.442481E-06  0.254E-03    3.20       7.1  T
   6    -59.5580013 -0.449714E-07  0.109E-03    3.20      16.5  T
   7    -59.5580013 -0.104091E-07  0.632E-04    3.20      28.4  T
   8    -59.5580013 -0.274111E-08  0.438E-04    3.20      41.0  T
     SCC iter.                  ...        0 min,  0.012 sec
     gradient                   ...        0 min,  0.016 sec
 * total energy  :   -58.9593672 Eh     change       -0.3752564E-03 Eh
   gradient norm :     0.0080175 Eh/α   predicted    -0.3040564E-03 ( -18.97%)
   displ. norm   :     0.1492118 α      lambda       -0.2134743E-03
   maximum displ.:     0.0854710 α      in ANC's #6, #2, #12, ...

........................................................................
.............................. CYCLE    6 ..............................
........................................................................

 iter      E             dE          RMSdq      gap      omega  full diag
   1    -59.5580404 -0.595580E+02  0.478E-02    3.21       0.0  T
   2    -59.5580442 -0.378964E-05  0.284E-02    3.21       1.0  T
   3    -59.5580421  0.210050E-05  0.126E-02    3.21       1.4  T
   4    -59.5580454 -0.332800E-05  0.282E-03    3.21       6.4  T
   5    -59.5580455 -0.114531E-06  0.143E-03    3.21      12.6  T
   6    -59.5580455 -0.926013E-08  0.504E-04    3.21      35.7  T
   7    -59.5580455 -0.256517E-08  0.257E-04    3.21      70.0  T
     SCC iter.                  ...        0 min,  0.010 sec
     gradient                   ...        0 min,  0.016 sec
 * total energy  :   -58.9595308 Eh     change       -0.1635513E-03 Eh
   gradient norm :     0.0066655 Eh/α   predicted    -0.1091928E-03 ( -33.24%)
   displ. norm   :     0.2120841 α      lambda       -0.2320205E-03
   maximum displ.:     0.1286409 α      in ANC's #2, #6, #3, ...

........................................................................
.............................. CYCLE    7 ..............................
........................................................................

 iter      E             dE          RMSdq      gap      omega  full diag
   1    -59.5594791 -0.595595E+02  0.633E-02    3.23       0.0  T
   2    -59.5594840 -0.486775E-05  0.374E-02    3.22       1.0  T
   3    -59.5594801  0.385518E-05  0.153E-02    3.22       1.2  T
   4    -59.5594858 -0.563291E-05  0.334E-03    3.22       5.4  T
   5    -59.5594859 -0.123680E-06  0.178E-03    3.22      10.1  T
   6    -59.5594859 -0.126845E-07  0.569E-04    3.22      31.6  T
   7    -59.5594859 -0.321936E-08  0.324E-04    3.22      55.5  T
     SCC iter.                  ...        0 min,  0.010 sec
     gradient                   ...        0 min,  0.016 sec
 * total energy  :   -58.9596954 Eh     change       -0.1646512E-03 Eh
   gradient norm :     0.0040893 Eh/α   predicted    -0.1212436E-03 ( -26.36%)
   displ. norm   :     0.1817457 α      lambda       -0.1247256E-03
   maximum displ.:     0.1258115 α      in ANC's #2, #6, #3, ...

........................................................................
.............................. CYCLE    8 ..............................
........................................................................

 iter      E             dE          RMSdq      gap      omega  full diag
   1    -59.5609175 -0.595609E+02  0.497E-02    3.23       0.0  T
   2    -59.5609196 -0.203601E-05  0.293E-02    3.23       1.0  T
   3    -59.5609178  0.179130E-05  0.991E-03    3.23       1.8  T
   4    -59.5609204 -0.258523E-05  0.240E-03    3.23       7.5  T
   5    -59.5609204 -0.428326E-07  0.136E-03    3.23      13.2  T
   6    -59.5609204 -0.838583E-08  0.511E-04    3.23      35.2  T
   7    -59.5609204 -0.235718E-08  0.352E-04    3.23      51.0  T
     SCC iter.                  ...        0 min,  0.010 sec
     gradient                   ...        0 min,  0.016 sec
 * total energy  :   -58.9597868 Eh     change       -0.9135404E-04 Eh
   gradient norm :     0.0030178 Eh/α   predicted    -0.6444114E-04 ( -29.46%)
   displ. norm   :     0.1621831 α      lambda       -0.8116788E-04
   maximum displ.:     0.1218122 α      in ANC's #2, #6, #3, ...

........................................................................
.............................. CYCLE    9 ..............................
........................................................................

 iter      E             dE          RMSdq      gap      omega  full diag
   1    -59.5618270 -0.595618E+02  0.407E-02    3.23       0.0  T
   2    -59.5618278 -0.805238E-06  0.239E-02    3.23       1.0  T
   3    -59.5618274  0.396300E-06  0.533E-03    3.23       3.4  T
   4    -59.5618281 -0.743283E-06  0.178E-03    3.23      10.1  T
   5    -59.5618281 -0.107658E-07  0.895E-04    3.23      20.1  T
   6    -59.5618281 -0.575812E-08  0.313E-04    3.23      57.3  T
     SCC iter.                  ...        0 min,  0.042 sec
     gradient                   ...        0 min,  0.015 sec
 * total energy  :   -58.9598510 Eh     change       -0.6418159E-04 Eh
   gradient norm :     0.0029363 Eh/α   predicted    -0.4167757E-04 ( -35.06%)
   displ. norm   :     0.1655345 α      lambda       -0.7199986E-04
   maximum displ.:     0.1313312 α      in ANC's #2, #3, #6, ...

........................................................................
.............................. CYCLE   10 ..............................
........................................................................

 iter      E             dE          RMSdq      gap      omega  full diag
   1    -59.5619454 -0.595619E+02  0.396E-02    3.24       0.0  T
   2    -59.5619459 -0.595111E-06  0.233E-02    3.24       1.0  T
   3    -59.5619460 -0.621440E-07  0.346E-03    3.24       5.2  T
   4    -59.5619462 -0.201104E-06  0.166E-03    3.24      10.8  T
   5    -59.5619462 -0.647510E-08  0.738E-04    3.24      24.3  T
   6    -59.5619462 -0.743862E-08  0.258E-04    3.24      69.7  T
     SCC iter.                  ...        0 min,  0.009 sec
     gradient                   ...        0 min,  0.015 sec
 * total energy  :   -58.9599106 Eh     change       -0.5966308E-04 Eh
   gradient norm :     0.0026927 Eh/α   predicted    -0.3701011E-04 ( -37.97%)
   displ. norm   :     0.1595763 α      lambda       -0.6605662E-04
   maximum displ.:     0.1310124 α      in ANC's #2, #3, #6, ...

........................................................................
.............................. CYCLE   11 ..............................
........................................................................

 iter      E             dE          RMSdq      gap      omega  full diag
   1    -59.5617733 -0.595618E+02  0.377E-02    3.23       0.0  T
   2    -59.5617739 -0.542941E-06  0.223E-02    3.23       1.0  T
   3    -59.5617740 -0.115144E-06  0.290E-03    3.23       6.2  T
   4    -59.5617741 -0.107730E-06  0.150E-03    3.23      12.0  T
   5    -59.5617741 -0.347769E-08  0.652E-04    3.23      27.5  T
   6    -59.5617741 -0.633604E-08  0.260E-04    3.23      69.0  T
     SCC iter.                  ...        0 min,  0.009 sec
     gradient                   ...        0 min,  0.037 sec
 * total energy  :   -58.9599636 Eh     change       -0.5294469E-04 Eh
   gradient norm :     0.0027950 Eh/α   predicted    -0.3387059E-04 ( -36.03%)
   displ. norm   :     0.1465685 α      lambda       -0.5719211E-04
   maximum displ.:     0.1238357 α      in ANC's #2, #3, #1, ...

........................................................................
.............................. CYCLE   12 ..............................
........................................................................

 iter      E             dE          RMSdq      gap      omega  full diag
   1    -59.5611299 -0.595611E+02  0.347E-02    3.23       0.0  T
   2    -59.5611304 -0.442525E-06  0.205E-02    3.23       1.0  T
   3    -59.5611304 -0.401020E-07  0.306E-03    3.23       5.9  T
   4    -59.5611305 -0.143890E-06  0.139E-03    3.23      13.0  T
   5    -59.5611305 -0.395957E-08  0.601E-04    3.23      29.9  T
   6    -59.5611306 -0.408466E-08  0.234E-04    3.23      76.7  T
     SCC iter.                  ...        0 min,  0.009 sec
     gradient                   ...        0 min,  0.016 sec
 * total energy  :   -58.9600054 Eh     change       -0.4185567E-04 Eh
   gradient norm :     0.0030699 Eh/α   predicted    -0.2921330E-04 ( -30.20%)
   displ. norm   :     0.1090072 α      lambda       -0.4233066E-04
   maximum displ.:     0.0926236 α      in ANC's #2, #3, #1, ...

........................................................................
.............................. CYCLE   13 ..............................
........................................................................

 iter      E             dE          RMSdq      gap      omega  full diag
   1    -59.5609268 -0.595609E+02  0.255E-02    3.23       0.0  T
   2    -59.5609270 -0.235359E-06  0.152E-02    3.23       1.2  T
   3    -59.5609270  0.370662E-07  0.260E-03    3.23       6.9  T
   4    -59.5609271 -0.130871E-06  0.100E-03    3.23      18.0  T
   5    -59.5609271 -0.277137E-08  0.426E-04    3.23      42.2  T
     SCC iter.                  ...        0 min,  0.007 sec
     gradient                   ...        0 min,  0.015 sec
 * total energy  :   -58.9600404 Eh     change       -0.3495802E-04 Eh
   gradient norm :     0.0022329 Eh/α   predicted    -0.2142476E-04 ( -38.71%)
   displ. norm   :     0.1200527 α      lambda       -0.4561126E-04
   maximum displ.:     0.0981121 α      in ANC's #2, #3, #1, ...

........................................................................
.............................. CYCLE   14 ..............................
........................................................................

 iter      E             dE          RMSdq      gap      omega  full diag
   1    -59.5613879 -0.595614E+02  0.282E-02    3.23       0.0  T
   2    -59.5613882 -0.277586E-06  0.168E-02    3.23       1.1  T
   3    -59.5613881  0.669750E-07  0.277E-03    3.23       6.5  T
   4    -59.5613883 -0.168064E-06  0.104E-03    3.23      17.3  T
   5    -59.5613883 -0.378292E-08  0.504E-04    3.23      35.7  T
   6    -59.5613883 -0.141681E-08  0.223E-04    3.23      80.6  T
     SCC iter.                  ...        0 min,  0.009 sec
     gradient                   ...        0 min,  0.016 sec
 * total energy  :   -58.9600785 Eh     change       -0.3812416E-04 Eh
   gradient norm :     0.0023116 Eh/α   predicted    -0.2313520E-04 ( -39.32%)
   displ. norm   :     0.1823572 α      lambda       -0.6335074E-04
   maximum displ.:     0.1469662 α      in ANC's #2, #3, #1, ...

........................................................................
.............................. CYCLE   15 ..............................
........................................................................

 iter      E             dE          RMSdq      gap      omega  full diag
   1    -59.5611905 -0.595612E+02  0.419E-02    3.23       0.0  T
   2    -59.5611912 -0.652508E-06  0.250E-02    3.23       1.0  T
   3    -59.5611905  0.657222E-06  0.608E-03    3.23       3.0  T
   4    -59.5611915 -0.947194E-06  0.162E-03    3.23      11.1  T
   5    -59.5611915 -0.863980E-08  0.850E-04    3.23      21.1  T
   6    -59.5611915 -0.340665E-08  0.366E-04    3.23      49.1  T
     SCC iter.                  ...        0 min,  0.009 sec
     gradient                   ...        0 min,  0.016 sec
 * total energy  :   -58.9601295 Eh     change       -0.5094614E-04 Eh
   gradient norm :     0.0027672 Eh/α   predicted    -0.3273326E-04 ( -35.75%)
   displ. norm   :     0.2173527 α      lambda       -0.6450040E-04
   maximum displ.:     0.1692826 α      in ANC's #2, #3, #6, ...

........................................................................
.............................. CYCLE   16 ..............................
........................................................................

 iter      E             dE          RMSdq      gap      omega  full diag
   1    -59.5613017 -0.595613E+02  0.488E-02    3.23       0.0  T
   2    -59.5613024 -0.771481E-06  0.292E-02    3.23       1.0  T
   3    -59.5613023  0.186660E-06  0.479E-03    3.23       3.8  T
   4    -59.5613027 -0.472266E-06  0.183E-03    3.23       9.8  T
   5    -59.5613027 -0.149786E-07  0.103E-03    3.23      17.4  T
   6    -59.5613028 -0.559842E-08  0.417E-04    3.23      43.1  T
   7    -59.5613028 -0.101845E-08  0.317E-04    3.23      56.7  T
     SCC iter.                  ...        0 min,  0.010 sec
     gradient                   ...        0 min,  0.015 sec
 * total energy  :   -58.9601844 Eh     change       -0.5494688E-04 Eh
   gradient norm :     0.0026869 Eh/α   predicted    -0.3377430E-04 ( -38.53%)
   displ. norm   :     0.2793116 α      lambda       -0.7571911E-04
   maximum displ.:     0.2166114 α      in ANC's #2, #3, #6, ...

........................................................................
.............................. CYCLE   17 ..............................
........................................................................

 iter      E             dE          RMSdq      gap      omega  full diag
   1    -59.5611651 -0.595612E+02  0.602E-02    3.23       0.0  T
   2    -59.5611662 -0.113586E-05  0.360E-02    3.23       1.0  T
   3    -59.5611660  0.225682E-06  0.575E-03    3.23       3.1  T
   4    -59.5611666 -0.651034E-06  0.224E-03    3.23       8.0  T
   5    -59.5611666 -0.238134E-07  0.126E-03    3.23      14.2  T
   6    -59.5611666 -0.823800E-08  0.497E-04    3.23      36.2  T
   7    -59.5611666 -0.138578E-08  0.377E-04    3.23      47.6  T
     SCC iter.                  ...        0 min,  0.011 sec
     gradient                   ...        0 min,  0.016 sec
 * total energy  :   -58.9602461 Eh     change       -0.6171860E-04 Eh
   gradient norm :     0.0025403 Eh/α   predicted    -0.4081505E-04 ( -33.87%)
   displ. norm   :     0.2926802 α      lambda       -0.7252127E-04
   maximum displ.:     0.2266483 α      in ANC's #2, #3, #5, ...

........................................................................
.............................. CYCLE   18 ..............................
........................................................................

 iter      E             dE          RMSdq      gap      omega  full diag
   1    -59.5611384 -0.595611E+02  0.606E-02    3.23       0.0  T
   2    -59.5611396 -0.117731E-05  0.362E-02    3.23       1.0  T
   3    -59.5611395  0.936413E-07  0.534E-03    3.23       3.4  T
   4    -59.5611400 -0.523006E-06  0.227E-03    3.23       7.9  T
   5    -59.5611400 -0.236998E-07  0.131E-03    3.23      13.8  T
   6    -59.5611400 -0.979130E-08  0.545E-04    3.23      33.0  T
   7    -59.5611400 -0.156579E-08  0.410E-04    3.23      43.8  T
     SCC iter.                  ...        0 min,  0.010 sec
     gradient                   ...        0 min,  0.033 sec
 * total energy  :   -58.9603004 Eh     change       -0.5427701E-04 Eh
   gradient norm :     0.0024583 Eh/α   predicted    -0.3937081E-04 ( -27.46%)
   displ. norm   :     0.2386022 α      lambda       -0.5390795E-04
   maximum displ.:     0.1840799 α      in ANC's #2, #3, #5, ...

........................................................................
.............................. CYCLE   19 ..............................
........................................................................

 iter      E             dE          RMSdq      gap      omega  full diag
   1    -59.5614246 -0.595614E+02  0.481E-02    3.23       0.0  T
   2    -59.5614254 -0.834584E-06  0.288E-02    3.23       1.0  T
   3    -59.5614253  0.881730E-07  0.443E-03    3.23       4.1  T
   4    -59.5614257 -0.385360E-06  0.188E-03    3.23       9.5  T
   5    -59.5614257 -0.178546E-07  0.107E-03    3.23      16.8  T
   6    -59.5614257 -0.688154E-08  0.465E-04    3.23      38.7  T
   7    -59.5614257 -0.125034E-08  0.336E-04    3.23      53.5  T
     SCC iter.                  ...        0 min,  0.010 sec
     gradient                   ...        0 min,  0.015 sec
 * total energy  :   -58.9603380 Eh     change       -0.3759838E-04 Eh
   gradient norm :     0.0021444 Eh/α   predicted    -0.2849196E-04 ( -24.22%)
   displ. norm   :     0.1363976 α      lambda       -0.3114645E-04
   maximum displ.:     0.0995755 α      in ANC's #2, #3, #5, ...

........................................................................
.............................. CYCLE   20 ..............................
........................................................................

 iter      E             dE          RMSdq      gap      omega  full diag
   1    -59.5618286 -0.595618E+02  0.282E-02    3.23       0.0  T
   2    -59.5618289 -0.355450E-06  0.168E-02    3.23       1.1  T
   3    -59.5618289  0.544063E-07  0.290E-03    3.23       6.2  T
   4    -59.5618291 -0.176102E-06  0.118E-03    3.23      15.2  T
   5    -59.5618291 -0.798038E-08  0.643E-04    3.23      27.9  T
   6    -59.5618291 -0.238975E-08  0.274E-04    3.23      65.5  T
     SCC iter.                  ...        0 min,  0.009 sec
     gradient                   ...        0 min,  0.055 sec
 * total energy  :   -58.9603603 Eh     change       -0.2234708E-04 Eh
   gradient norm :     0.0018198 Eh/α   predicted    -0.1586526E-04 ( -29.01%)
   displ. norm   :     0.1914462 α      lambda       -0.2346785E-04
   maximum displ.:     0.1337822 α      in ANC's #2, #3, #4, ...
 * RMSD in coord.:     0.5299705 α      energy gain  -0.1134286E-01 Eh

generating ANC from exact Hessian ...
Using Lindh-Hessian (1995)
 Shifting diagonal of input Hessian by    8.9707886014666425E-003
 Lowest  eigenvalues of input Hessian
    0.000000    0.000000    0.000000    0.000000    0.000000    0.000000
    0.010000    0.010164    0.010503    0.013330    0.014774    0.014987
    0.018258    0.019513    0.021371    0.025720    0.026250    0.026888
 Highest eigenvalues
    1.947394    2.016090    2.153162    2.199468    2.321525    2.350170


........................................................................
.............................. CYCLE   21 ..............................
........................................................................

 iter      E             dE          RMSdq      gap      omega  full diag
   1    -59.5613945 -0.595614E+02  0.420E-02    3.23       0.0  T
   2    -59.5613952 -0.692424E-06  0.251E-02    3.23       1.0  T
   3    -59.5613951  0.118058E-06  0.440E-03    3.23       4.1  T
   4    -59.5613955 -0.388843E-06  0.174E-03    3.23      10.3  T
   5    -59.5613955 -0.127635E-07  0.886E-04    3.23      20.3  T
   6    -59.5613955 -0.420789E-08  0.369E-04    3.23      48.7  T
     SCC iter.                  ...        0 min,  0.009 sec
     gradient                   ...        0 min,  0.016 sec
 * total energy  :   -58.9603803 Eh     change       -0.1993440E-04 Eh
   gradient norm :     0.0021425 Eh/α   predicted     0.0000000E+00 (-100.00%)
   displ. norm   :     0.0219585 α      lambda       -0.1623960E-04
   maximum displ.:     0.0104428 α      in ANC's #1, #6, #8, ...

........................................................................
.............................. CYCLE   22 ..............................
........................................................................

 iter      E             dE          RMSdq      gap      omega  full diag
   1    -59.5617099 -0.595617E+02  0.858E-03    3.23       0.0  T
   2    -59.5617100 -0.496903E-07  0.504E-03    3.23       3.6  T
   3    -59.5617100  0.193520E-07  0.122E-03    3.23      14.8  T
   4    -59.5617100 -0.359872E-07  0.454E-04    3.23      39.6  T
   5    -59.5617100 -0.162274E-08  0.289E-04    3.23      62.1  T
     SCC iter.                  ...        0 min,  0.007 sec
     gradient                   ...        0 min,  0.036 sec
 * total energy  :   -58.9603939 Eh     change       -0.1358789E-04 Eh
   gradient norm :     0.0010690 Eh/α   predicted    -0.8138666E-05 ( -40.10%)
   displ. norm   :     0.1034210 α      lambda       -0.3317080E-04
   maximum displ.:     0.0544691 α      in ANC's #1, #6, #8, ...

........................................................................
.............................. CYCLE   23 ..............................
........................................................................

 iter      E             dE          RMSdq      gap      omega  full diag
   1    -59.5622350 -0.595622E+02  0.363E-02    3.23       0.0  T
   2    -59.5622358 -0.848166E-06  0.212E-02    3.23       1.0  T
   3    -59.5622354  0.418173E-06  0.525E-03    3.23       3.4  T
   4    -59.5622361 -0.723968E-06  0.183E-03    3.23       9.8  T
   5    -59.5622362 -0.256941E-07  0.107E-03    3.23      16.8  T
   6    -59.5622362 -0.882027E-08  0.489E-04    3.23      36.7  T
   7    -59.5622362 -0.128748E-08  0.368E-04    3.23      48.9  T
     SCC iter.                  ...        0 min,  0.010 sec
     gradient                   ...        0 min,  0.016 sec
 * total energy  :   -58.9604163 Eh     change       -0.2246482E-04 Eh
   gradient norm :     0.0028342 Eh/α   predicted    -0.1666464E-04 ( -25.82%)
   displ. norm   :     0.0191994 α      lambda       -0.9070176E-05
   maximum displ.:     0.0125437 α      in ANC's #1, #6, #3, ...

........................................................................
.............................. CYCLE   24 ..............................
........................................................................

 iter      E             dE          RMSdq      gap      omega  full diag
   1    -59.5620983 -0.595621E+02  0.584E-03    3.23       0.0  T
   2    -59.5620983 -0.185282E-07  0.348E-03    3.23       5.2  T
   3    -59.5620983  0.272993E-08  0.654E-04    3.23      27.5  T
   4    -59.5620983 -0.102748E-07  0.299E-04    3.23      60.1  T
     SCC iter.                  ...        0 min,  0.006 sec
     gradient                   ...        0 min,  0.055 sec
 * total energy  :   -58.9604244 Eh     change       -0.8042308E-05 Eh
   gradient norm :     0.0018760 Eh/α   predicted    -0.4537069E-05 ( -43.58%)
   displ. norm   :     0.1267910 α      lambda       -0.2749035E-04
   maximum displ.:     0.0822100 α      in ANC's #1, #6, #3, ...

........................................................................
.............................. CYCLE   25 ..............................
........................................................................

 iter      E             dE          RMSdq      gap      omega  full diag
   1    -59.5612502 -0.595613E+02  0.383E-02    3.23       0.0  T
   2    -59.5612509 -0.622816E-06  0.227E-02    3.23       1.0  T
   3    -59.5612510 -0.106447E-06  0.318E-03    3.23       5.6  T
   4    -59.5612511 -0.159280E-06  0.174E-03    3.23      10.3  T
   5    -59.5612511 -0.900521E-08  0.814E-04    3.23      22.1  T
   6    -59.5612511 -0.994871E-08  0.414E-04    3.23      43.4  T
     SCC iter.                  ...        0 min,  0.009 sec
     gradient                   ...        0 min,  0.016 sec
 * total energy  :   -58.9604433 Eh     change       -0.1897295E-04 Eh
   gradient norm :     0.0023802 Eh/α   predicted    -0.1384893E-04 ( -27.01%)
   displ. norm   :     0.0239916 α      lambda       -0.6097201E-05
   maximum displ.:     0.0174470 α      in ANC's #1, #6, #3, ...

........................................................................
.............................. CYCLE   26 ..............................
........................................................................

 iter      E             dE          RMSdq      gap      omega  full diag
   1    -59.5613926 -0.595614E+02  0.739E-03    3.23       0.0  T
   2    -59.5613926 -0.227400E-07  0.436E-03    3.23       4.1  T
   3    -59.5613926 -0.456870E-08  0.658E-04    3.23      27.3  T
   4    -59.5613926 -0.620400E-08  0.392E-04    3.23      45.8  T
     SCC iter.                  ...        0 min,  0.006 sec
     gradient                   ...        0 min,  0.055 sec
 * total energy  :   -58.9604488 Eh     change       -0.5445857E-05 Eh
   gradient norm :     0.0016588 Eh/α   predicted    -0.3050939E-05 ( -43.98%)
   displ. norm   :     0.1020800 α      lambda       -0.1525466E-04
   maximum displ.:     0.0746965 α      in ANC's #1, #3, #6, ...

........................................................................
.............................. CYCLE   27 ..............................
........................................................................

 iter      E             dE          RMSdq      gap      omega  full diag
   1    -59.5620086 -0.595620E+02  0.309E-02    3.23       0.0  T
   2    -59.5620090 -0.413824E-06  0.182E-02    3.23       1.0  T
   3    -59.5620090  0.523656E-08  0.286E-03    3.23       6.3  T
   4    -59.5620091 -0.170242E-06  0.137E-03    3.23      13.1  T
   5    -59.5620091 -0.572484E-08  0.746E-04    3.23      24.1  T
   6    -59.5620092 -0.568681E-08  0.439E-04    3.23      40.9  T
     SCC iter.                  ...        0 min,  0.009 sec
     gradient                   ...        0 min,  0.015 sec
 * total energy  :   -58.9604605 Eh     change       -0.1173031E-04 Eh
   gradient norm :     0.0014661 Eh/α   predicted    -0.7674370E-05 ( -34.58%)
   displ. norm   :     0.0384429 α      lambda       -0.3201502E-05
   maximum displ.:     0.0295005 α      in ANC's #1, #3, #6, ...

........................................................................
.............................. CYCLE   28 ..............................
........................................................................

 iter      E             dE          RMSdq      gap      omega  full diag
   1    -59.5618530 -0.595619E+02  0.107E-02    3.23       0.0  T
   2    -59.5618531 -0.486146E-07  0.632E-03    3.23       2.8  T
   3    -59.5618531 -0.474341E-08  0.103E-03    3.23      17.4  T
   4    -59.5618531 -0.178946E-07  0.586E-04    3.23      30.6  T
   5    -59.5618531 -0.155971E-08  0.351E-04    3.23      51.1  T
     SCC iter.                  ...        0 min,  0.007 sec
     gradient                   ...        0 min,  0.016 sec
 * total energy  :   -58.9604646 Eh     change       -0.4056478E-05 Eh
   gradient norm :     0.0008518 Eh/α   predicted    -0.1603913E-05 ( -60.46%)
   displ. norm   :     0.0511403 α      lambda       -0.4431735E-05
   maximum displ.:     0.0395112 α      in ANC's #1, #3, #2, ...

   *** GEOMETRY OPTIMIZATION CONVERGED AFTER 28 ITERATIONS ***

------------------------------------------------------------------------
 total energy gain   :        -0.0114471 Eh       -7.1832 kcal/mol
 total RMSD          :         0.5592222 a0        0.2959 Å
 total power (kW/mol):        -1.0733698 (step)  -23.1285 (real)
------------------------------------------------------------------------

 ANCopt (total)                0 d,  0 h,  0 min,  1.299 sec
 optimizer setup                ...        0 min,  0.000 sec (  0.006%)
 model hessian                  ...        0 min,  0.025 sec (  1.956%)
 ANC generation                 ...        0 min,  0.027 sec (  2.057%)
 coordinate transformation      ...        0 min,  0.000 sec (  0.011%)
 single point calculation       ...        0 min,  1.241 sec ( 95.516%)
 optimization log               ...        0 min,  0.003 sec (  0.253%)
 hessian update                 ...        0 min,  0.000 sec (  0.019%)
 rational function              ...        0 min,  0.002 sec (  0.118%)

================
 final structure:
================
31
 xtb: 6.7.1 (edcfbbe)
N            4.89887011703049        1.15769546857306        0.84584375994910
C            3.97240826622760        0.37221295426476        0.28166718014368
N            4.36070741572876       -0.78499139150316       -0.26082277175211
C            3.45609802293923       -1.57168557472956       -0.81282562044358
Cl           4.06155826565673       -3.02458480627152       -1.46599417192290
N            2.15706216846482       -1.39381900633289       -0.92693619715180
C            1.76312105362425       -0.23774844221415       -0.38978190838966
C            2.60390289600210        0.69707824937377        0.23647663360497
N            1.85582785751832        1.75825494493486        0.67775153527432
C            0.63669480352371        1.47426761962869        0.33855938335481
N            0.50473979009638        0.27855921521190       -0.31572396970750
C           -0.67792880264766       -0.38128067840732       -0.82223881859646
C           -1.21998063520918       -1.41977974470687        0.17443576379400
C           -2.73521690879682       -1.25898958093974        0.06517412348133
C           -2.88416878186833        0.21400355177213       -0.35414774745364
O           -1.69624333099857        0.55211221055857       -1.06549193866983
C           -3.06066897161127        1.16951487287146        0.83505711076931
O           -3.12081286290966        2.49959164631317        0.39966577974129
O           -3.20139783042516       -2.15384928890077       -0.90956890271129
H            4.62480843897505        2.04425236989214        1.22779915001409
H            5.86186905413952        0.87292087040180        0.81857333746711
H           -0.19842840755040        2.11573440712429        0.53464507396841
H           -0.38615686614957       -0.85562523510943       -1.77003463438990
H           -0.87735626842609       -1.18996497421460        1.18283198716317
H           -0.91634931083168       -2.42715300321261       -0.09433632449687
H           -3.23617126123295       -1.44111655143283        1.02637173849105
H           -3.71704808674900        0.35849985389032       -1.05335808639557
H           -3.99993376284828        0.96404392982114        1.35377684355347
H           -2.22822176790303        1.02901249708164        1.54229762103446
H           -2.45502879264454        2.61249600430806       -0.29167380406549
H           -4.14675550112575       -2.02986238804493       -1.04599212565832

 Bond Distances (Angstroems)
 ---------------------------
N1-C2=1.3393         N1-H20=1.0035        N1-H21=1.0046        C2-N1=1.3393         C2-N3=1.3357         C2-C8=1.4073         
N3-C2=1.3357         N3-C4=1.3198         C4-N3=1.3198         C4-Cl5=1.7042        C4-N6=1.3161         Cl5-C4=1.7042        
N6-C4=1.3161         N6-C7=1.3343         C7-N6=1.3343         C7-C8=1.4046         C7-N11=1.3622        C8-C2=1.4073         
C8-C7=1.4046         C8-N9=1.3713         N9-C8=1.3713         N9-C10=1.2969        C10-N9=1.2969        C10-N11=1.3694       
C10-H22=1.0711       N11-C7=1.3622        N11-C10=1.3694       N11-C12=1.4459       C12-N11=1.4459       C12-C13=1.5381       
C12-O16=1.4026       C12-H23=1.0993       C13-C12=1.5381       C13-C14=1.5277       C13-H24=1.0895       C13-H25=1.0859       
C14-C13=1.5277       C14-C15=1.5387       C14-O19=1.4029       C14-H26=1.0991       C15-C14=1.5387       C15-O16=1.4253       
C15-C17=1.5357       C15-H27=1.0970       O16-C12=1.4026       O16-C15=1.4253       C17-C15=1.5357       C17-O18=1.4008       
C17-H28=1.0925       C17-H29=1.1013       O18-C17=1.4008       O18-H30=0.9664       O19-C14=1.4029       O19-H31=0.9632       
H20-N1=1.0035        H21-N1=1.0046        H22-C10=1.0711       H23-C12=1.0993       H24-C13=1.0895       H25-C13=1.0859       
H26-C14=1.0991       H27-C15=1.0970       H28-C17=1.0925       H29-C17=1.1013       H30-O18=0.9664       H31-O19=0.9632       
 C  H  Rav=1.0920 sigma=0.0093  Rmin=1.0711  Rmax=1.1013     8
 C  C  Rav=1.4920 sigma=0.0610  Rmin=1.4046  Rmax=1.5387     6
 N  H  Rav=1.0040 sigma=0.0006  Rmin=1.0035  Rmax=1.0046     2
 N  C  Rav=1.3491 sigma=0.0395  Rmin=1.2969  Rmax=1.4459    10
 O  H  Rav=0.9648 sigma=0.0016  Rmin=0.9632  Rmax=0.9664     2
 O  C  Rav=1.4079 sigma=0.0101  Rmin=1.4008  Rmax=1.4253     4
 Cl C  Rav=1.7042 sigma=0.0000  Rmin=1.7042  Rmax=1.7042     1

 selected bond angles (degree)
 --------------------
H20-N1-C2=119.31               H21-N1-C2=119.04               H21-N1-H20=121.51              N3-C2-N1=118.56                
C8-C2-N1=123.43                C8-C2-N3=118.01                C4-N3-C2=119.14                Cl5-C4-N3=115.15               
N6-C4-N3=129.21                N6-C4-Cl5=115.64               C7-N6-C4=111.94                C8-C7-N6=125.41                
N11-C7-N6=128.54               N11-C7-C8=106.05               C7-C8-C2=116.28                N9-C8-C2=134.33                
N9-C8-C7=109.39                C10-N9-C8=105.02               N11-C10-N9=114.00              H22-C10-N9=123.63              
H22-C10-N11=122.36             

 selected dihedral angles (degree)
 ---------------------------------
N3-C2-N1-H20=177.85           N3-C2-N1-H21=  2.09           C8-C2-N1-H20=357.42           C8-C2-N1-H21=181.67           
C4-N3-C2-N1=179.60            C4-N3-C2-C8=  0.00            Cl5-C4-N3-C2=180.31           N6-C4-N3-C2=  0.16            
C7-N6-C4-N3=  0.00            C7-N6-C4-Cl5=179.86           C8-C7-N6-C4=359.66            N11-C7-N6-C4=180.29           
C7-C8-C2-N1=180.14            C7-C8-C2-N3=359.72            N9-C8-C2-N1=  0.15            N9-C8-C2-N3=179.73            
C2-C8-C7-N6=  0.48            C2-C8-C7-N11=179.97           N9-C8-C7-N6=180.47            N9-C8-C7-N11=359.96           
C10-N9-C8-C2=180.14           C10-N9-C8-C7=  0.15           N11-C10-N9-C8=359.79          H22-C10-N9-C8=180.62          
           -------------------------------------------------
          |                Final Singlepoint                |
           -------------------------------------------------

          ...................................................
          :                      SETUP                      :
          :.................................................:
          :  # basis functions                  94          :
          :  # atomic orbitals                  93          :
          :  # shells                           51          :
          :  # electrons                       102          :
          :  max. iterations                   250          :
          :  Hamiltonian                  GFN2-xTB          :
          :  restarted?                      false          :
          :  GBSA solvation                  false          :
          :  PC potential                    false          :
          :  electronic temp.          300.0000000     K    :
          :  accuracy                    1.0000000          :
          :  -> integral cutoff          0.2500000E+02      :
          :  -> integral neglect         0.1000000E-07      :
          :  -> SCF convergence          0.1000000E-05 Eh   :
          :  -> wf. convergence          0.1000000E-03 e    :
          :  Broyden damping             0.4000000          :
          :  net charge                          0          :
          :  unpaired electrons                  0          :
          ...................................................

 iter      E             dE          RMSdq      gap      omega  full diag
   1    -59.5618531 -0.595619E+02  0.214E-04    3.23       0.0  T
   2    -59.5618531 -0.169400E-09  0.175E-04    3.23     102.6  T
   3    -59.5618531 -0.102673E-09  0.124E-04    3.23     144.6  T

   *** convergence criteria satisfied after 3 iterations ***

         #    Occupation            Energy/Eh            Energy/eV
      -------------------------------------------------------------
         1        2.0000           -1.0516636             -28.6172
       ...           ...                  ...                  ...
        45        2.0000           -0.4312275             -11.7343
        46        2.0000           -0.4218312             -11.4786
        47        2.0000           -0.4205922             -11.4449
        48        2.0000           -0.4189511             -11.4002
        49        2.0000           -0.4054723             -11.0335
        50        2.0000           -0.3924719             -10.6797
        51        2.0000           -0.3805814             -10.3561 (HOMO)
        52                         -0.2619185              -7.1272 (LUMO)
        53                         -0.2386051              -6.4928
        54                         -0.2066599              -5.6235
        55                         -0.1344745              -3.6592
        56                         -0.1105718              -3.0088
       ...                                ...                  ...
        93                          0.6469638              17.6048
      -------------------------------------------------------------
                  HL-Gap            0.1186629 Eh            3.2290 eV
             Fermi-level           -0.3212499 Eh           -8.7417 eV

 SCC (total)                   0 d,  0 h,  0 min,  0.042 sec
 SCC setup                      ...        0 min,  0.000 sec (  0.490%)
 Dispersion                     ...        0 min,  0.000 sec (  0.390%)
 classical contributions        ...        0 min,  0.000 sec (  0.188%)
 integral evaluation            ...        0 min,  0.005 sec ( 12.984%)
 iterations                     ...        0 min,  0.004 sec ( 10.477%)
 molecular gradient             ...        0 min,  0.032 sec ( 75.173%)
 printout                       ...        0 min,  0.000 sec (  0.283%)

         :::::::::::::::::::::::::::::::::::::::::::::::::::::
         ::                     SUMMARY                     ::
         :::::::::::::::::::::::::::::::::::::::::::::::::::::
         :: total energy             -58.960464581972 Eh    ::
         :: gradient norm              0.000853366992 Eh/a0 ::
         :: HOMO-LUMO gap              3.228982023479 eV    ::
         ::.................................................::
         :: SCC energy               -59.561765601724 Eh    ::
         :: -> isotropic ES            0.112872265244 Eh    ::
         :: -> anisotropic ES          0.000396049110 Eh    ::
         :: -> anisotropic XC          0.017467342471 Eh    ::
         :: -> dispersion             -0.033652532414 Eh    ::
         :: repulsion energy           0.601301019752 Eh    ::
         :: add. restraining           0.000000000000 Eh    ::
         :: total charge               0.000000000000 e     ::
         :::::::::::::::::::::::::::::::::::::::::::::::::::::

           -------------------------------------------------
          |                Property Printout                |
           -------------------------------------------------

    * Orbital Energies and Occupations

         #    Occupation            Energy/Eh            Energy/eV
      -------------------------------------------------------------
         1        2.0000           -1.0516636             -28.6172
       ...           ...                  ...                  ...
        39        2.0000           -0.4894492             -13.3186
        40        2.0000           -0.4755545             -12.9405
        41        2.0000           -0.4552863             -12.3890
        42        2.0000           -0.4501210             -12.2484
        43        2.0000           -0.4429888             -12.0543
        44        2.0000           -0.4331250             -11.7859
        45        2.0000           -0.4312275             -11.7343
        46        2.0000           -0.4218312             -11.4786
        47        2.0000           -0.4205922             -11.4449
        48        2.0000           -0.4189511             -11.4002
        49        2.0000           -0.4054723             -11.0335
        50        2.0000           -0.3924719             -10.6797
        51        2.0000           -0.3805814             -10.3561 (HOMO)
        52                         -0.2619185              -7.1272 (LUMO)
        53                         -0.2386051              -6.4928
        54                         -0.2066599              -5.6235
        55                         -0.1344745              -3.6592
        56                         -0.1105718              -3.0088
        57                         -0.0401230              -1.0918
        58                         -0.0249420              -0.6787
        59                         -0.0000942              -0.0026
        60                          0.0060900               0.1657
        61                          0.0131068               0.3567
        62                          0.0218529               0.5946
       ...                                ...                  ...
        93                          0.6469638              17.6048
      -------------------------------------------------------------
                  HL-Gap            0.1186629 Eh            3.2290 eV
             Fermi-level           -0.3212499 Eh           -8.7417 eV

     #   Z          covCN         q      C6AA      α(0)
     1   7 N        2.647    -0.231    26.052     7.581
     2   6 C        2.881     0.174    24.272     8.077
     3   7 N        1.928    -0.304    28.718     7.946
     4   6 C        2.919     0.265    22.552     7.787
     5  17 Cl       1.052    -0.122   102.967    15.524
     6   7 N        1.907    -0.312    28.930     7.974
     7   6 C        3.181     0.134    24.683     8.110
     8   6 C        3.221     0.009    27.084     8.461
     9   7 N        1.885    -0.272    27.904     7.831
    10   6 C        3.183     0.103    25.315     8.212
    11   7 N        2.826    -0.066    22.516     7.047
    12   6 C        3.716     0.179    17.858     6.037
    13   6 C        3.821    -0.077    21.947     6.667
    14   6 C        3.740     0.111    18.833     6.192
    15   6 C        3.777     0.082    19.240     6.249
    16   8 O        1.702    -0.320    19.346     5.938
    17   6 C        3.674     0.069    19.645     6.352
    18   8 O        1.656    -0.431    21.468     6.255
    19   8 O        1.657    -0.429    21.418     6.247
    20   1 H        0.861     0.203     1.089     1.635
    21   1 H        0.860     0.204     1.084     1.631
    22   1 H        0.926     0.058     2.224     2.332
    23   1 H        0.923     0.071     2.076     2.253
    24   1 H        0.925     0.051     2.312     2.378
    25   1 H        0.925     0.088     1.900     2.156
    26   1 H        0.923     0.023     2.694     2.567
    27   1 H        0.924     0.057     2.230     2.335
    28   1 H        0.924     0.052     2.299     2.371
    29   1 H        0.923     0.027     2.629     2.536
    30   1 H        0.805     0.306     0.704     1.318
    31   1 H        0.805     0.298     0.727     1.340

 Mol. C6AA /au·bohr⁶  :      12607.620723
 Mol. C8AA /au·bohr⁸  :     308127.532971
 Mol. α(0) /au        :        169.338637


Wiberg/Mayer (AO) data.
largest (>0.10) Wiberg bond orders for each atom

 ---------------------------------------------------------------------------
     #   Z sym  total        # sym  WBO       # sym  WBO       # sym  WBO
 ---------------------------------------------------------------------------
     1   7 N    3.401 --     2 C    1.280    20 H    0.942    21 H    0.939
     2   6 C    3.971 --     3 N    1.321     1 N    1.280     8 C    1.217
     3   7 N    3.035 --     4 C    1.384     2 C    1.321
     4   6 C    3.938 --     6 N    1.418     3 N    1.384     5 Cl   0.998
     5  17 Cl   1.164 --     4 C    0.998
     6   7 N    3.025 --     4 C    1.418     7 C    1.284
     7   6 C    3.958 --     6 N    1.284     8 C    1.275    11 N    1.174
     8   6 C    3.972 --     7 C    1.275     2 C    1.217     9 N    1.210
     9   7 N    3.023 --    10 C    1.599     8 C    1.210    11 N    0.107
    10   6 C    3.949 --     9 N    1.599    11 N    1.197    22 H    0.960
    11   7 N    3.603 --    10 C    1.197     7 C    1.174    12 C    0.961
                             9 N    0.107
    12   6 C    3.938 --    16 O    0.989    13 C    0.973    11 N    0.961
                            23 H    0.949
    13   6 C    3.990 --    14 C    0.992    24 H    0.976    12 C    0.973
                            25 H    0.971
    14   6 C    3.963 --    19 O    1.003    13 C    0.992    15 C    0.965
                            26 H    0.960
    15   6 C    3.943 --    17 C    0.977    14 C    0.965    16 O    0.960
                            27 H    0.958
    16   8 O    2.089 --    12 C    0.989    15 C    0.960
    17   6 C    3.965 --    18 O    1.014    15 C    0.977    28 H    0.971
                            29 H    0.964
    18   8 O    1.964 --    17 C    1.014    30 H    0.886
    19   8 O    1.971 --    14 C    1.003    31 H    0.894
    20   1 H    0.958 --     1 N    0.942
    21   1 H    0.958 --     1 N    0.939
    22   1 H    0.996 --    10 C    0.960
    23   1 H    0.995 --    12 C    0.949
    24   1 H    0.997 --    13 C    0.976
    25   1 H    0.992 --    13 C    0.971
    26   1 H    0.999 --    14 C    0.960
    27   1 H    0.996 --    15 C    0.958
    28   1 H    0.997 --    17 C    0.971
    29   1 H    0.999 --    17 C    0.964
    30   1 H    0.907 --    18 O    0.886
    31   1 H    0.911 --    19 O    0.894
 ---------------------------------------------------------------------------

Topologies differ in total number of bonds
Writing topology from bond orders to xtbtopo.mol

molecular dipole:
                 x           y           z       tot (Debye)
 q only:       -0.589       0.687       0.924
   full:       -0.949       0.753       0.955       3.920
molecular quadrupole (traceless):
                xx          xy          yy          xz          yz          zz
 q only:       15.791      23.468     -12.051      10.329      -4.550      -3.741
  q+dip:       16.950      28.175     -17.568      11.291      -8.444       0.618
   full:       15.731      28.012     -16.935      10.460      -9.655       1.205

           -------------------------------------------------
          |                Geometry Summary                 |
           -------------------------------------------------

      molecular mass/u    :      285.6873164
   center of mass at/Å    :        0.7672042      -0.3076375      -0.2758807
  moments of inertia/u·Å² :        0.8209024E+03   0.2550094E+04   0.3250139E+04
rotational constants/cm⁻¹ :        0.2053549E-01   0.6610592E-02   0.5186742E-02

 * 33 selected distances

     #   Z          #   Z                                           value/Å
     1   7 N        2   6 C                                       1.3392572
     2   6 C        3   7 N                                       1.3357372
     3   7 N        4   6 C                                       1.3198157
     4   6 C        5  17 Cl                                      1.7041502 (max)
     4   6 C        6   7 N                                       1.3161125
     6   7 N        7   6 C                                       1.3342503
     2   6 C        8   6 C                                       1.4072622
     7   6 C        8   6 C                                       1.4046406
     8   6 C        9   7 N                                       1.3712900
     9   7 N       10   6 C                                       1.2969140
     7   6 C       11   7 N                                       1.3621975
    10   6 C       11   7 N                                       1.3693859
    11   7 N       12   6 C                                       1.4459085
    12   6 C       13   6 C                                       1.5380706
    13   6 C       14   6 C                                       1.5276560
    14   6 C       15   6 C                                       1.5387419
    12   6 C       16   8 O                                       1.4026258
    15   6 C       16   8 O                                       1.4253053
    15   6 C       17   6 C                                       1.5356962
    17   6 C       18   8 O                                       1.4008167
    14   6 C       19   8 O                                       1.4029337
     1   7 N       20   1 H                                       1.0034855
     1   7 N       21   1 H                                       1.0045931
    10   6 C       22   1 H                                       1.0711490
    12   6 C       23   1 H                                       1.0992956
    13   6 C       24   1 H                                       1.0895272
    13   6 C       25   1 H                                       1.0859243
    14   6 C       26   1 H                                       1.0991026
    15   6 C       27   1 H                                       1.0970244
    17   6 C       28   1 H                                       1.0924775
    17   6 C       29   1 H                                       1.1013168
    18   8 O       30   1 H                                       0.9664194
    19   8 O       31   1 H                                       0.9631642 (min)

 * 7 distinct bonds (by element types)

   Z      Z             #   av. dist./Å        max./Å        min./Å
   1 H    6 C           8     1.0919772     1.1013168     1.0711490
   6 C    6 C           6     1.4920113     1.5387419     1.4046406
   1 H    7 N           2     1.0040393     1.0045931     1.0034855
   6 C    7 N          10     1.3490869     1.4459085     1.2969140
   1 H    8 O           2     0.9647918     0.9664194     0.9631642
   6 C    8 O           4     1.4079204     1.4253053     1.4008167
   6 C   17 Cl          1     1.7041502     1.7041502     1.7041502


optimized geometry written to: xtbopt.xyz


           -------------------------------------------------
          | TOTAL ENERGY              -58.960464581972 Eh   |
          | GRADIENT NORM               0.000853366992 Eh/α |
          | HOMO-LUMO GAP               3.228982023479 eV   |
           -------------------------------------------------

------------------------------------------------------------------------
 * finished run on 2025/05/15 at 16:23:31.792     
------------------------------------------------------------------------
 total:
 * wall-time:     0 d,  0 h,  0 min,  1.399 sec
 *  cpu-time:     0 d,  0 h,  0 min,  0.975 sec
 * ratio c/w:     0.697 speedup
 SCF:
 * wall-time:     0 d,  0 h,  0 min,  0.044 sec
 *  cpu-time:     0 d,  0 h,  0 min,  0.044 sec
 * ratio c/w:     0.994 speedup
 ANC optimizer:
 * wall-time:     0 d,  0 h,  0 min,  1.343 sec
 *  cpu-time:     0 d,  0 h,  0 min,  0.921 sec
 * ratio c/w:     0.686 speedup



----- Single-point -----
      -----------------------------------------------------------      
     |                   =====================                   |     
     |                           x T B                           |     
     |                   =====================                   |     
     |                         S. Grimme                         |     
     |          Mulliken Center for Theoretical Chemistry        |     
     |                    University of Bonn                     |     
      -----------------------------------------------------------      

   * xtb version 6.7.1 (edcfbbe) compiled by 'conda@3ef47c1a292c' on 2024-11-25

   xtb is free software: you can redistribute it and/or modify it under
   the terms of the GNU Lesser General Public License as published by
   the Free Software Foundation, either version 3 of the License, or
   (at your option) any later version.
   
   xtb is distributed in the hope that it will be useful,
   but WITHOUT ANY WARRANTY; without even the implied warranty of
   MERCHANTABILITY or FITNESS FOR A PARTICULAR PURPOSE.  See the
   GNU Lesser General Public License for more details.
   
   Cite this work as:
   * C. Bannwarth, E. Caldeweyher, S. Ehlert, A. Hansen, P. Pracht,
     J. Seibert, S. Spicher, S. Grimme, WIREs Comput. Mol. Sci., 2020, 11,
     e01493. DOI: 10.1002/wcms.1493
   
   for GFN2-xTB:
   * C. Bannwarth, S. Ehlert and S. Grimme., J. Chem. Theory Comput., 2019,
     15, 1652-1671. DOI: 10.1021/acs.jctc.8b01176
   for GFN1-xTB:
   * S. Grimme, C. Bannwarth, P. Shushkov, J. Chem. Theory Comput., 2017,
     13, 1989-2009. DOI: 10.1021/acs.jctc.7b00118
   for GFN0-xTB:
   * P. Pracht, E. Caldeweyher, S. Ehlert, S. Grimme, ChemRxiv, 2019, preprint.
     DOI: 10.26434/chemrxiv.8326202.v1
   for GFN-FF:
   * S. Spicher and S. Grimme, Angew. Chem. Int. Ed., 2020, 59, 15665-15673.
     DOI: 10.1002/anie.202004239
   
   for ALPB and GBSA implicit solvation:
   * S. Ehlert, M. Stahn, S. Spicher, S. Grimme, J. Chem. Theory Comput.,
     2021, 17, 4250-4261. DOI: 10.1021/acs.jctc.1c00471
   
   for ddCOSMO and CPCM-X implicit solvation:
   * M. Stahn, S. Ehlert, S. Grimme, J. Phys. Chem. A,
     2023, XX, XXXX-XXXX. DOI: 10.1021/acs.jpca.3c04382
   
   for DFT-D4:
   * E. Caldeweyher, C. Bannwarth and S. Grimme, J. Chem. Phys., 2017,
     147, 034112. DOI: 10.1063/1.4993215
   * E. Caldeweyher, S. Ehlert, A. Hansen, H. Neugebauer, S. Spicher,
     C. Bannwarth and S. Grimme, J. Chem. Phys., 2019, 150, 154122.
     DOI: 10.1063/1.5090222
   * E. Caldeweyher, J.-M. Mewes, S. Ehlert and S. Grimme, Phys. Chem. Chem. Phys.
     2020, 22, 8499-8512. DOI: 10.1039/D0CP00502A
   
   for sTDA-xTB:
   * S. Grimme and C. Bannwarth, J. Chem. Phys., 2016, 145, 054103.
     DOI: 10.1063/1.4959605
   
   in the mass-spec context:
   * V. Asgeirsson, C. Bauer and S. Grimme, Chem. Sci., 2017, 8, 4879.
     DOI: 10.1039/c7sc00601b
   * J. Koopman and S. Grimme, ACS Omega 2019, 4, 12, 15120-15133.
     DOI: 10.1021/acsomega.9b02011
   
   for metadynamics refer to:
   * S. Grimme, J. Chem. Theory Comput., 2019, 155, 2847-2862
     DOI: 10.1021/acs.jctc.9b00143
   
   for SPH calculations refer to:
   * S. Spicher and S. Grimme, J. Chem. Theory Comput., 2021, 17, 1701-1714
     DOI: 10.1021/acs.jctc.0c01306
   
   for ONIOM refer to:
   * C. Plett, A. Katbashev, S. Ehlert, S. Grimme, M. Bursch,
     Phys. Chem. Chem. Phys., 2023, 25, 17860-17868. DOI: 10.1039/D3CP02178E
   
   for DIPRO refer to:
   * J. Kohn, N. Gildemeister, S. Grimme, D. Fazzi, A. Hansen,
     J. Chem. Phys., 2023, just accepted.
   
   for PTB refer to:
   * S. Grimme, M. Mueller, A. Hansen, J. Chem. Phys., 2023, 158, 124111.
     DOI: 10.1063/5.0137838
   
   with help from (in alphabetical order)
   P. Atkinson, C. Bannwarth, F. Bohle, G. Brandenburg, E. Caldeweyher
   M. Checinski, S. Dohm, S. Ehlert, S. Ehrlich, I. Gerasimov, C. Hölzer
   A. Katbashev, J. Kohn, J. Koopman, C. Lavigne, S. Lehtola, F. März, M. Müller,
   F. Musil, H. Neugebauer, J. Pisarek, C. Plett, P. Pracht, F. Pultar,
   J. Seibert, P. Shushkov, S. Spicher, M. Stahn, M. Steiner, T. Strunk,
   J. Stückrath, T. Rose, and J. Unsleber
   
 * started run on 2025/05/15 at 16:23:31.810     
   ID    Z sym.   atoms
    1    7 N      1, 3, 6, 9, 11
    2    6 C      2, 4, 7, 8, 10, 12-15, 17
    3   17 Cl     5
    4    8 O      16, 18, 19
    5    1 H      20-31

           -------------------------------------------------
          |                Calculation Setup                |
           -------------------------------------------------

          program call               : xtb /rds/general/user/hgt20/home/callum/QDESCP/Cladribine_rdkit_conf_6/Cladribine_rdkit_conf_6.xyz --acc 1 --gfn 2 --chrg 0 --uhf 0 --etemp 300 --input /rds/general/user/hgt20/home/callum/QDESCP/Cladribine_rdkit_conf_6/Cladribine_rdkit_conf_6_xtb.inp -P 1
          hostname                   : login-c
          coordinate file            : /rds/general/user/hgt20/home/callum/QDESCP/Cladribine_rdkit_conf_6/Cladribine_rdkit_conf_6.xyz
          omp threads                :                     1


           -------------------------------------------------
          |                 G F N 2 - x T B                 |
           -------------------------------------------------

        Reference                      10.1021/acs.jctc.8b01176
      * Hamiltonian:
        H0-scaling (s, p, d)           1.850000    2.230000    2.230000
        zeta-weighting                 0.500000
      * Dispersion:
        s8                             2.700000
        a1                             0.520000
        a2                             5.000000
        s9                             5.000000
      * Repulsion:
        kExp                           1.500000    1.000000
        rExp                           1.000000
      * Coulomb:
        alpha                          2.000000
        third order                    shell-resolved
        anisotropic                    true
        a3                             3.000000
        a5                             4.000000
        cn-shift                       1.200000
        cn-exp                         4.000000
        max-rad                        5.000000

q/qsh data taken from xtbrestart
CAMM data taken from xtbrestart

          ...................................................
          :                      SETUP                      :
          :.................................................:
          :  # basis functions                  94          :
          :  # atomic orbitals                  93          :
          :  # shells                           51          :
          :  # electrons                       102          :
          :  max. iterations                   250          :
          :  Hamiltonian                  GFN2-xTB          :
          :  restarted?                       true          :
          :  GBSA solvation                  false          :
          :  PC potential                    false          :
          :  electronic temp.          300.0000000     K    :
          :  accuracy                    1.0000000          :
          :  -> integral cutoff          0.2500000E+02      :
          :  -> integral neglect         0.1000000E-07      :
          :  -> SCF convergence          0.1000000E-05 Eh   :
          :  -> wf. convergence          0.1000000E-03 e    :
          :  Broyden damping             0.4000000          :
          :  net charge                          0          :
          :  unpaired electrons                  0          :
          ...................................................

 iter      E             dE          RMSdq      gap      omega  full diag
   1    -59.5618531 -0.595619E+02  0.375E-05    3.23       0.0  T
   2    -59.5618531 -0.493827E-11  0.259E-05    3.23     693.5  T
   3    -59.5618531 -0.134293E-11  0.194E-05    3.23     927.7  T

   *** convergence criteria satisfied after 3 iterations ***

         #    Occupation            Energy/Eh            Energy/eV
      -------------------------------------------------------------
         1        2.0000           -1.0516634             -28.6172
       ...           ...                  ...                  ...
        45        2.0000           -0.4312273             -11.7343
        46        2.0000           -0.4218310             -11.4786
        47        2.0000           -0.4205920             -11.4449
        48        2.0000           -0.4189509             -11.4002
        49        2.0000           -0.4054725             -11.0335
        50        2.0000           -0.3924719             -10.6797
        51        2.0000           -0.3805812             -10.3561 (HOMO)
        52                         -0.2619182              -7.1272 (LUMO)
        53                         -0.2386048              -6.4928
        54                         -0.2066594              -5.6235
        55                         -0.1344737              -3.6592
        56                         -0.1105721              -3.0088
       ...                                ...                  ...
        93                          0.6469638              17.6048
      -------------------------------------------------------------
                  HL-Gap            0.1186630 Eh            3.2290 eV
             Fermi-level           -0.3212497 Eh           -8.7416 eV

 SCC (total)                   0 d,  0 h,  0 min,  0.027 sec
 SCC setup                      ...        0 min,  0.000 sec (  1.082%)
 Dispersion                     ...        0 min,  0.000 sec (  1.040%)
 classical contributions        ...        0 min,  0.000 sec (  0.320%)
 integral evaluation            ...        0 min,  0.006 sec ( 21.203%)
 iterations                     ...        0 min,  0.006 sec ( 21.444%)
[...]
     |                    University of Bonn                     |     
      -----------------------------------------------------------      

   * xtb version 6.7.1 (edcfbbe) compiled by 'conda@3ef47c1a292c' on 2024-11-25

   xtb is free software: you can redistribute it and/or modify it under
   the terms of the GNU Lesser General Public License as published by
   the Free Software Foundation, either version 3 of the License, or
   (at your option) any later version.
   
   xtb is distributed in the hope that it will be useful,
   but WITHOUT ANY WARRANTY; without even the implied warranty of
   MERCHANTABILITY or FITNESS FOR A PARTICULAR PURPOSE.  See the
   GNU Lesser General Public License for more details.
   
   Cite this work as:
   * C. Bannwarth, E. Caldeweyher, S. Ehlert, A. Hansen, P. Pracht,
     J. Seibert, S. Spicher, S. Grimme, WIREs Comput. Mol. Sci., 2020, 11,
     e01493. DOI: 10.1002/wcms.1493
   
   for GFN2-xTB:
   * C. Bannwarth, S. Ehlert and S. Grimme., J. Chem. Theory Comput., 2019,
     15, 1652-1671. DOI: 10.1021/acs.jctc.8b01176
   for GFN1-xTB:
   * S. Grimme, C. Bannwarth, P. Shushkov, J. Chem. Theory Comput., 2017,
     13, 1989-2009. DOI: 10.1021/acs.jctc.7b00118
   for GFN0-xTB:
   * P. Pracht, E. Caldeweyher, S. Ehlert, S. Grimme, ChemRxiv, 2019, preprint.
     DOI: 10.26434/chemrxiv.8326202.v1
   for GFN-FF:
   * S. Spicher and S. Grimme, Angew. Chem. Int. Ed., 2020, 59, 15665-15673.
     DOI: 10.1002/anie.202004239
   
   for ALPB and GBSA implicit solvation:
   * S. Ehlert, M. Stahn, S. Spicher, S. Grimme, J. Chem. Theory Comput.,
     2021, 17, 4250-4261. DOI: 10.1021/acs.jctc.1c00471
   
   for ddCOSMO and CPCM-X implicit solvation:
   * M. Stahn, S. Ehlert, S. Grimme, J. Phys. Chem. A,
     2023, XX, XXXX-XXXX. DOI: 10.1021/acs.jpca.3c04382
   
   for DFT-D4:
   * E. Caldeweyher, C. Bannwarth and S. Grimme, J. Chem. Phys., 2017,
     147, 034112. DOI: 10.1063/1.4993215
   * E. Caldeweyher, S. Ehlert, A. Hansen, H. Neugebauer, S. Spicher,
     C. Bannwarth and S. Grimme, J. Chem. Phys., 2019, 150, 154122.
     DOI: 10.1063/1.5090222
   * E. Caldeweyher, J.-M. Mewes, S. Ehlert and S. Grimme, Phys. Chem. Chem. Phys.
     2020, 22, 8499-8512. DOI: 10.1039/D0CP00502A
   
   for sTDA-xTB:
   * S. Grimme and C. Bannwarth, J. Chem. Phys., 2016, 145, 054103.
     DOI: 10.1063/1.4959605
   
   in the mass-spec context:
   * V. Asgeirsson, C. Bauer and S. Grimme, Chem. Sci., 2017, 8, 4879.
     DOI: 10.1039/c7sc00601b
   * J. Koopman and S. Grimme, ACS Omega 2019, 4, 12, 15120-15133.
     DOI: 10.1021/acsomega.9b02011
   
   for metadynamics refer to:
   * S. Grimme, J. Chem. Theory Comput., 2019, 155, 2847-2862
     DOI: 10.1021/acs.jctc.9b00143
   
   for SPH calculations refer to:
   * S. Spicher and S. Grimme, J. Chem. Theory Comput., 2021, 17, 1701-1714
     DOI: 10.1021/acs.jctc.0c01306
   
   for ONIOM refer to:
   * C. Plett, A. Katbashev, S. Ehlert, S. Grimme, M. Bursch,
     Phys. Chem. Chem. Phys., 2023, 25, 17860-17868. DOI: 10.1039/D3CP02178E
   
   for DIPRO refer to:
   * J. Kohn, N. Gildemeister, S. Grimme, D. Fazzi, A. Hansen,
     J. Chem. Phys., 2023, just accepted.
   
   for PTB refer to:
   * S. Grimme, M. Mueller, A. Hansen, J. Chem. Phys., 2023, 158, 124111.
     DOI: 10.1063/5.0137838
   
   with help from (in alphabetical order)
   P. Atkinson, C. Bannwarth, F. Bohle, G. Brandenburg, E. Caldeweyher
   M. Checinski, S. Dohm, S. Ehlert, S. Ehrlich, I. Gerasimov, C. Hölzer
   A. Katbashev, J. Kohn, J. Koopman, C. Lavigne, S. Lehtola, F. März, M. Müller,
   F. Musil, H. Neugebauer, J. Pisarek, C. Plett, P. Pracht, F. Pultar,
   J. Seibert, P. Shushkov, S. Spicher, M. Stahn, M. Steiner, T. Strunk,
   J. Stückrath, T. Rose, and J. Unsleber
   
 * started run on 2025/05/15 at 16:23:33.139     
   ID    Z sym.   atoms
    1    7 N      1, 3, 6, 9, 11
    2    6 C      2, 4, 7, 8, 10, 12-15, 17
    3   17 Cl     5
    4    8 O      16, 18, 19
    5    1 H      20-31

           -------------------------------------------------
          |                Calculation Setup                |
           -------------------------------------------------

          program call               : xtb /rds/general/user/hgt20/home/callum/QDESCP/Cladribine_rdkit_conf_6/Cladribine_rdkit_conf_6.xyz --acc 1 --gfn 2 --chrg 0 --uhf 2 --etemp 300 --input /rds/general/user/hgt20/home/callum/QDESCP/Cladribine_rdkit_conf_6/Cladribine_rdkit_conf_6_xtb.inp -P 1
          hostname                   : login-c
          coordinate file            : /rds/general/user/hgt20/home/callum/QDESCP/Cladribine_rdkit_conf_6/Cladribine_rdkit_conf_6.xyz
          omp threads                :                     1


           -------------------------------------------------
          |                 G F N 2 - x T B                 |
           -------------------------------------------------

        Reference                      10.1021/acs.jctc.8b01176
      * Hamiltonian:
        H0-scaling (s, p, d)           1.850000    2.230000    2.230000
        zeta-weighting                 0.500000
      * Dispersion:
        s8                             2.700000
        a1                             0.520000
        a2                             5.000000
        s9                             5.000000
      * Repulsion:
        kExp                           1.500000    1.000000
        rExp                           1.000000
      * Coulomb:
        alpha                          2.000000
        third order                    shell-resolved
        anisotropic                    true
        a3                             3.000000
        a5                             4.000000
        cn-shift                       1.200000
        cn-exp                         4.000000
        max-rad                        5.000000


          ...................................................
          :                      SETUP                      :
          :.................................................:
          :  # basis functions                  94          :
          :  # atomic orbitals                  93          :
          :  # shells                           51          :
          :  # electrons                       102          :
          :  max. iterations                   250          :
          :  Hamiltonian                  GFN2-xTB          :
          :  restarted?                      false          :
          :  GBSA solvation                  false          :
          :  PC potential                    false          :
          :  electronic temp.          300.0000000     K    :
          :  accuracy                    1.0000000          :
          :  -> integral cutoff          0.2500000E+02      :
          :  -> integral neglect         0.1000000E-07      :
          :  -> SCF convergence          0.1000000E-05 Eh   :
          :  -> wf. convergence          0.1000000E-03 e    :
          :  Broyden damping             0.4000000          :
          :  net charge                          0          :
          :  unpaired electrons                  2          :
          ...................................................

 iter      E             dE          RMSdq      gap      omega  full diag
   1    -59.1729923 -0.591730E+02  0.454E+00    0.36       0.0  T
   2    -59.3224292 -0.149437E+00  0.300E+00    0.86       1.0  T
   3    -59.3400633 -0.176341E-01  0.217E+00    0.58       1.0  T
   4    -59.2934550  0.466083E-01  0.181E+00    0.76       1.0  T
   5    -59.3795957 -0.861408E-01  0.121E+00    0.35       1.0  T
   6    -59.4256278 -0.460321E-01  0.481E-01    0.39       1.0  T
   7    -59.4304325 -0.480473E-02  0.242E-01    0.39       1.0  T
   8    -59.4321952 -0.176266E-02  0.115E-01    0.41       1.0  T
   9    -59.4323196 -0.124455E-03  0.861E-02    0.40       1.0  T
  10    -59.4323439 -0.243029E-04  0.560E-02    0.40       1.0  T
  11    -59.4324143 -0.703988E-04  0.313E-02    0.40       1.0  T
  12    -59.4324185 -0.413819E-05  0.274E-02    0.40       1.0  T
  13    -59.4324281 -0.962343E-05  0.161E-02    0.40       1.1  T
  14    -59.4324330 -0.490475E-05  0.691E-03    0.40       2.6  T
  15    -59.4324336 -0.599822E-06  0.374E-03    0.40       4.8  T
  16    -59.4324340 -0.406523E-06  0.177E-03    0.40      10.2  T
  17    -59.4324341 -0.443263E-07  0.830E-04    0.40      21.7  T
  18    -59.4324341 -0.910294E-08  0.615E-04    0.40      29.2  T

   *** convergence criteria satisfied after 18 iterations ***

         #    Occupation            Energy/Eh            Energy/eV
      -------------------------------------------------------------
         1        2.0000           -1.0530157             -28.6540
       ...           ...                  ...                  ...
        46        2.0000           -0.4225656             -11.4986
        47        2.0000           -0.4220260             -11.4839
        48        2.0000           -0.4203211             -11.4375
        49        2.0000           -0.4127683             -11.2320
        50        1.5555           -0.3920801             -10.6690
        51        1.4445           -0.3916563             -10.6575
        52        0.9996           -0.2544553              -6.9241 (HOMO)
        53        0.0004           -0.2397964              -6.5252 (LUMO)
        54                         -0.2031871              -5.5290
        55                         -0.1343764              -3.6566
        56                         -0.1105087              -3.0071
        57                         -0.0392898              -1.0691
       ...                                ...                  ...
        93                          0.6450200              17.5519
      -------------------------------------------------------------
                  HL-Gap            0.0146589 Eh            0.3989 eV
             Fermi-level           -0.3194970 Eh           -8.6940 eV

 transition dipole moment (au) for excitation:          51          52
     X       Y       Z   
  -0.3012   0.0136  -0.0145  total (au/Debye):    0.302   0.767
 dE (eV)             :    3.733
 oscillator strength :  0.11788E-01

 SCC (total)                   0 d,  0 h,  0 min,  0.068 sec
 SCC setup                      ...        0 min,  0.000 sec (  0.422%)
 Dispersion                     ...        0 min,  0.000 sec (  0.414%)
 classical contributions        ...        0 min,  0.000 sec (  0.130%)
 integral evaluation            ...        0 min,  0.006 sec (  8.518%)
 iterations                     ...        0 min,  0.041 sec ( 60.303%)
 molecular gradient             ...        0 min,  0.015 sec ( 21.944%)
 printout                       ...        0 min,  0.006 sec (  8.260%)

         :::::::::::::::::::::::::::::::::::::::::::::::::::::
         ::                     SUMMARY                     ::
         :::::::::::::::::::::::::::::::::::::::::::::::::::::
         :: total energy             -58.831045536520 Eh    ::
         :: gradient norm              0.129504452726 Eh/a0 ::
         :: HOMO-LUMO gap              0.398889036753 eV    ::
         ::.................................................::
         :: SCC energy               -59.432346556272 Eh    ::
         :: -> isotropic ES            0.103775766487 Eh    ::
         :: -> anisotropic ES          0.000627544903 Eh    ::
         :: -> anisotropic XC          0.009850160703 Eh    ::
         :: -> dispersion             -0.033637985921 Eh    ::
         :: repulsion energy           0.601301019752 Eh    ::
         :: add. restraining           0.000000000000 Eh    ::
         :: total charge               0.000000000279 e     ::
         :::::::::::::::::::::::::::::::::::::::::::::::::::::

           -------------------------------------------------
          |                Property Printout                |
           -------------------------------------------------

    * Orbital Energies and Occupations

         #    Occupation            Energy/Eh            Energy/eV
      -------------------------------------------------------------
         1        2.0000           -1.0530157             -28.6540
       ...           ...                  ...                  ...
        40        2.0000           -0.4748948             -12.9225
        41        2.0000           -0.4547164             -12.3735
        42        2.0000           -0.4504775             -12.2581
        43        2.0000           -0.4426882             -12.0462
        44        2.0000           -0.4396802             -11.9643
        45        2.0000           -0.4321682             -11.7599
        46        2.0000           -0.4225656             -11.4986
        47        2.0000           -0.4220260             -11.4839
        48        2.0000           -0.4203211             -11.4375
        49        2.0000           -0.4127683             -11.2320
        50        1.5555           -0.3920801             -10.6690
        51        1.4445           -0.3916563             -10.6575
        52        0.9996           -0.2544553              -6.9241 (HOMO)
        53        0.0004           -0.2397964              -6.5252 (LUMO)
        54                         -0.2031871              -5.5290
        55                         -0.1343764              -3.6566
        56                         -0.1105087              -3.0071
        57                         -0.0392898              -1.0691
        58                         -0.0233877              -0.6364
        59                          0.0015636               0.0425
        60                          0.0066048               0.1797
        61                          0.0128920               0.3508
        62                          0.0200126               0.5446
        63                          0.0201778               0.5491
       ...                                ...                  ...
        93                          0.6450200              17.5519
      -------------------------------------------------------------
                  HL-Gap            0.0146589 Eh            0.3989 eV
             Fermi-level           -0.3194970 Eh           -8.6940 eV

     #   Z          covCN         q      C6AA      α(0)
     1   7 N        2.647    -0.227    25.979     7.570
     2   6 C        2.881     0.120    25.359     8.256
     3   7 N        1.928    -0.256    27.493     7.775
     4   6 C        2.919     0.227    23.250     7.907
     5  17 Cl       1.052    -0.115   102.772    15.510
     6   7 N        1.907    -0.278    28.050     7.852
     7   6 C        3.181     0.139    24.570     8.091
     8   6 C        3.221     0.032    26.577     8.382
     9   7 N        1.885    -0.251    27.380     7.757
    10   6 C        3.183     0.074    25.934     8.312
    11   7 N        2.826    -0.070    22.585     7.058
    12   6 C        3.716     0.179    17.850     6.036
    13   6 C        3.821    -0.077    21.958     6.669
    14   6 C        3.740     0.111    18.834     6.192
    15   6 C        3.777     0.082    19.245     6.250
    16   8 O        1.702    -0.317    19.301     5.932
    17   6 C        3.674     0.069    19.653     6.353
    18   8 O        1.656    -0.431    21.465     6.254
    19   8 O        1.657    -0.429    21.425     6.249
    20   1 H        0.861     0.198     1.115     1.654
    21   1 H        0.860     0.201     1.102     1.644
    22   1 H        0.926     0.051     2.306     2.375
    23   1 H        0.923     0.067     2.121     2.278
    24   1 H        0.925     0.052     2.297     2.370
    25   1 H        0.925     0.086     1.921     2.168
    26   1 H        0.923     0.023     2.691     2.565
    27   1 H        0.924     0.058     2.227     2.334
    28   1 H        0.924     0.052     2.301     2.372
    29   1 H        0.923     0.028     2.609     2.526
    30   1 H        0.805     0.306     0.703     1.317
    31   1 H        0.805     0.298     0.727     1.339

 Mol. C6AA /au·bohr⁶  :      12603.344078
 Mol. C8AA /au·bohr⁸  :     308071.605857
 Mol. α(0) /au        :        169.344878


Wiberg/Mayer (AO) data.
largest (>0.10) Wiberg bond orders for each atom

 ---------------------------------------------------------------------------
     #   Z sym  total        # sym  WBO       # sym  WBO       # sym  WBO
 ---------------------------------------------------------------------------
     1   7 N    3.272 --     2 C    1.221    20 H    0.944    21 H    0.941
     2   6 C    3.867 --     3 N    1.283     1 N    1.221     8 C    1.093
     3   7 N    3.045 --     4 C    1.401     2 C    1.283
     4   6 C    3.845 --     3 N    1.401     6 N    1.202     5 Cl   0.992
     5  17 Cl   1.150 --     4 C    0.992
     6   7 N    2.876 --     7 C    1.294     4 C    1.202
     7   6 C    3.903 --     6 N    1.294     8 C    1.218    11 N    1.183
     8   6 C    3.833 --     9 N    1.309     7 C    1.218     2 C    1.093
     9   7 N    3.010 --    10 C    1.389     8 C    1.309
    10   6 C    3.800 --     9 N    1.389    11 N    1.157    22 H    0.961
    11   7 N    3.576 --     7 C    1.183    10 C    1.157    12 C    0.963
    12   6 C    3.939 --    16 O    0.990    13 C    0.972    11 N    0.963
                            23 H    0.950
    13   6 C    3.989 --    14 C    0.992    24 H    0.976    12 C    0.972
                            25 H    0.972
    14   6 C    3.963 --    19 O    1.003    13 C    0.992    15 C    0.965
                            26 H    0.960
    15   6 C    3.943 --    17 C    0.977    14 C    0.965    16 O    0.960
                            27 H    0.958
    16   8 O    2.090 --    12 C    0.990    15 C    0.960
    17   6 C    3.965 --    18 O    1.015    15 C    0.977    28 H    0.971
                            29 H    0.964
    18   8 O    1.964 --    17 C    1.015    30 H    0.885
    19   8 O    1.971 --    14 C    1.003    31 H    0.894
    20   1 H    0.960 --     1 N    0.944
    21   1 H    0.958 --     1 N    0.941
    22   1 H    0.996 --    10 C    0.961
    23   1 H    0.995 --    12 C    0.950
    24   1 H    0.997 --    13 C    0.976
    25   1 H    0.992 --    13 C    0.972
    26   1 H    0.999 --    14 C    0.960
    27   1 H    0.996 --    15 C    0.958
    28   1 H    0.997 --    17 C    0.971
    29   1 H    0.999 --    17 C    0.964
    30   1 H    0.906 --    18 O    0.885
    31   1 H    0.911 --    19 O    0.894
 ---------------------------------------------------------------------------

Topologies differ in total number of bonds
Writing topology from bond orders to xtbtopo.mol

molecular dipole:
                 x           y           z       tot (Debye)
 q only:       -0.548       0.555       0.864
   full:       -0.856       0.620       0.897       3.523
molecular quadrupole (traceless):
                xx          xy          yy          xz          yz          zz
 q only:       15.637      22.397     -11.989       9.695      -4.480      -3.648
  q+dip:       16.855      27.518     -17.430      10.832      -8.131       0.575
   full:       16.163      27.452     -16.877      10.236      -9.027       0.714


           -------------------------------------------------
          | TOTAL ENERGY              -58.831045536520 Eh   |
          | GRADIENT NORM               0.129504452726 Eh/α |
          | HOMO-LUMO GAP               0.398889036753 eV   |
           -------------------------------------------------

------------------------------------------------------------------------
 * finished run on 2025/05/15 at 16:23:33.219     
------------------------------------------------------------------------
 total:
 * wall-time:     0 d,  0 h,  0 min,  0.079 sec
 *  cpu-time:     0 d,  0 h,  0 min,  0.064 sec
 * ratio c/w:     0.812 speedup
 SCF:
 * wall-time:     0 d,  0 h,  0 min,  0.068 sec
 *  cpu-time:     0 d,  0 h,  0 min,  0.054 sec
 * ratio c/w:     0.803 speedup


