31
 energy: -58.960464581972 gnorm: 0.000853366992 xtb: 6.7.1 (edcfbbe)
N            4.89887011703049        1.15769546857306        0.84584375994910
C            3.97240826622760        0.37221295426476        0.28166718014368
N            4.36070741572876       -0.78499139150316       -0.26082277175211
C            3.45609802293923       -1.57168557472956       -0.81282562044358
Cl           4.06155826565673       -3.02458480627152       -1.46599417192290
N            2.15706216846482       -1.39381900633289       -0.92693619715180
C            1.76312105362425       -0.23774844221415       -0.38978190838966
C            2.60390289600210        0.69707824937377        0.23647663360497
N            1.85582785751832        1.75825494493486        0.67775153527432
C            0.63669480352371        1.47426761962869        0.33855938335481
N            0.50473979009638        0.27855921521190       -0.31572396970750
C           -0.67792880264766       -0.38128067840732       -0.82223881859646
C           -1.21998063520918       -1.41977974470687        0.17443576379400
C           -2.73521690879682       -1.25898958093974        0.06517412348133
C           -2.88416878186833        0.21400355177213       -0.35414774745364
O           -1.69624333099857        0.55211221055857       -1.06549193866983
C           -3.06066897161127        1.16951487287146        0.83505711076931
O           -3.12081286290966        2.49959164631317        0.39966577974129
O           -3.20139783042516       -2.15384928890077       -0.90956890271129
H            4.62480843897505        2.04425236989214        1.22779915001409
H            5.86186905413952        0.87292087040180        0.81857333746711
H           -0.19842840755040        2.11573440712429        0.53464507396841
H           -0.38615686614957       -0.85562523510943       -1.77003463438990
H           -0.87735626842609       -1.18996497421460        1.18283198716317
H           -0.91634931083168       -2.42715300321261       -0.09433632449687
H           -3.23617126123295       -1.44111655143283        1.02637173849105
H           -3.71704808674900        0.35849985389032       -1.05335808639557
H           -3.99993376284828        0.96404392982114        1.35377684355347
H           -2.22822176790303        1.02901249708164        1.54229762103446
H           -2.45502879264454        2.61249600430806       -0.29167380406549
H           -4.14675550112575       -2.02986238804493       -1.04599212565832
