35
 energy: -63.686991631184 gnorm: 0.000544612676 xtb: 6.7.1 (edcfbbe)
O            2.05945949186931       -0.55676113270553        2.42005085959756
C            1.68534700714938       -0.14263787304341        1.34132297033229
N            0.45016001598598       -0.31580347628647        0.81427129933700
C           -0.67727287299398       -0.90968262095706        1.38932002758711
C           -0.64949096919765       -1.51817692487527        2.63959058424572
C           -1.80368993159680       -2.05877683132442        3.17593335882418
C           -2.99901838904959       -1.99060834974537        2.48121467900405
C           -3.03328674255809       -1.38433496514476        1.23836808861736
C           -1.88316458756323       -0.85157360774608        0.67092500828683
C           -1.95337328684364       -0.22022020061010       -0.66224512451245
C           -2.81753665667555        0.84789337201416       -0.88539320126800
C           -2.87959700993673        1.46234365157375       -2.12167461523406
C           -2.07595160153297        1.00194615256720       -3.15289366069416
Cl          -2.13957367993312        1.77417024723562       -4.69762606317311
C           -1.22369823990162       -0.07354025821182       -2.95955306299038
C           -1.16546207829450       -0.67773780612323       -1.71759173458897
C            2.65391621987980        0.57530904862768        0.44034648966637
C            3.99868129193506        0.23878989272688        0.61045342572443
C            4.98144372160454        0.84404364118079       -0.15098019352949
C            4.58518162074938        1.79691215878547       -1.07586678967458
N            3.32281151810742        2.15081162031682       -1.23204189049851
C            2.39388587645005        1.57126320496534       -0.50518270523276
Cl           0.80409530308715        2.20237839209545       -0.80914981140695
H            0.26785552342074        0.12164158932691       -0.08194040248930
H            0.27766509289969       -1.55596388024219        3.18603951930025
H           -1.76654946494421       -2.53087095505112        4.14594826618646
H           -3.90062941109668       -2.40731913712073        2.90367861699317
H           -3.95872011271751       -1.33252904088157        0.68330209677842
H           -3.43372318228999        1.20858097639634       -0.07537611102964
H           -3.54271196932251        2.29703195840247       -2.28694258770004
H           -0.61183497082196       -0.43133798803584       -3.77273119630151
H           -0.51658095625656       -1.52971326702366       -1.57030982449723
H            4.23903574275133       -0.50331545666186        1.35773149639547
H            6.02089549121789        0.58721592291007       -0.02750703333532
H            5.29113219641769        2.31067194266404       -1.71319077872316
