26
 energy: -46.983138081465 gnorm: 0.000398636956 xtb: 6.7.1 (edcfbbe)
N            4.73654107444908        0.02910279361292       -0.26257083618855
C            3.40893321825871        0.11568648807501       -0.07400313492215
N            3.00208846023125        0.67124098469464        1.04434849250156
C            1.70647108578437        0.80644845757892        1.34169835036001
N            0.76692759659080        0.34893734813639        0.34514958493429
C           -0.62726861869798        0.50624926704873        0.65832932470287
C           -1.14896960787397       -0.66566324544715        1.51034637552608
S           -2.93154255136640       -0.68205740782930        1.19851854606520
C           -2.73497064718803        0.51062828626687       -0.22208946208727
O           -1.38316924538694        0.54633222988456       -0.52127606442284
C           -3.53622404808256        0.03976675297470       -1.43658447213658
O           -3.20813895625680       -1.25841773414779       -1.82633403904113
C            1.17888577013980       -0.24198845283253       -0.79244373058408
C            2.50079685314450       -0.38604597085722       -1.05396733029291
O            1.26127457426973        1.26882813231490        2.36583466586418
H            5.33890366674125        0.40104919486755        0.45023122410118
H            5.12384092411364       -0.37851352095918       -1.09291354356826
H           -0.73294854776060        1.44280111648028        1.23244060244894
H           -0.94950487671376       -0.51090620871478        2.56718861004133
H           -0.71714496139269       -1.61040415398781        1.17556598855665
H           -3.09942295724574        1.48366089873058        0.13832030174616
H           -3.30032757754213        0.68645706342933       -2.28487040786884
H           -4.60529053708110        0.13120943510121       -1.19603307533352
H           -3.30364789587247       -1.83649391258711       -1.05542181786778
H            0.40358092050015       -0.56887251659159       -1.47048603525035
H            2.85032688423786       -0.84913532524213       -1.95987811728429
