----- Optimization -----
      -----------------------------------------------------------      
     |                   =====================                   |     
     |                           x T B                           |     
     |                   =====================                   |     
     |                         S. Grimme                         |     
     |          Mulliken Center for Theoretical Chemistry        |     
     |                    University of Bonn                     |     
      -----------------------------------------------------------      

   * xtb version 6.7.1 (edcfbbe) compiled by 'conda@3ef47c1a292c' on 2024-11-25

   xtb is free software: you can redistribute it and/or modify it under
   the terms of the GNU Lesser General Public License as published by
   the Free Software Foundation, either version 3 of the License, or
   (at your option) any later version.
   
   xtb is distributed in the hope that it will be useful,
   but WITHOUT ANY WARRANTY; without even the implied warranty of
   MERCHANTABILITY or FITNESS FOR A PARTICULAR PURPOSE.  See the
   GNU Lesser General Public License for more details.
   
   Cite this work as:
   * C. Bannwarth, E. Caldeweyher, S. Ehlert, A. Hansen, P. Pracht,
     J. Seibert, S. Spicher, S. Grimme, WIREs Comput. Mol. Sci., 2020, 11,
     e01493. DOI: 10.1002/wcms.1493
   
   for GFN2-xTB:
   * C. Bannwarth, S. Ehlert and S. Grimme., J. Chem. Theory Comput., 2019,
     15, 1652-1671. DOI: 10.1021/acs.jctc.8b01176
   for GFN1-xTB:
   * S. Grimme, C. Bannwarth, P. Shushkov, J. Chem. Theory Comput., 2017,
     13, 1989-2009. DOI: 10.1021/acs.jctc.7b00118
   for GFN0-xTB:
   * P. Pracht, E. Caldeweyher, S. Ehlert, S. Grimme, ChemRxiv, 2019, preprint.
     DOI: 10.26434/chemrxiv.8326202.v1
   for GFN-FF:
   * S. Spicher and S. Grimme, Angew. Chem. Int. Ed., 2020, 59, 15665-15673.
     DOI: 10.1002/anie.202004239
   
   for ALPB and GBSA implicit solvation:
   * S. Ehlert, M. Stahn, S. Spicher, S. Grimme, J. Chem. Theory Comput.,
     2021, 17, 4250-4261. DOI: 10.1021/acs.jctc.1c00471
   
   for ddCOSMO and CPCM-X implicit solvation:
   * M. Stahn, S. Ehlert, S. Grimme, J. Phys. Chem. A,
     2023, XX, XXXX-XXXX. DOI: 10.1021/acs.jpca.3c04382
   
   for DFT-D4:
   * E. Caldeweyher, C. Bannwarth and S. Grimme, J. Chem. Phys., 2017,
     147, 034112. DOI: 10.1063/1.4993215
   * E. Caldeweyher, S. Ehlert, A. Hansen, H. Neugebauer, S. Spicher,
     C. Bannwarth and S. Grimme, J. Chem. Phys., 2019, 150, 154122.
     DOI: 10.1063/1.5090222
   * E. Caldeweyher, J.-M. Mewes, S. Ehlert and S. Grimme, Phys. Chem. Chem. Phys.
     2020, 22, 8499-8512. DOI: 10.1039/D0CP00502A
   
   for sTDA-xTB:
   * S. Grimme and C. Bannwarth, J. Chem. Phys., 2016, 145, 054103.
     DOI: 10.1063/1.4959605
   
   in the mass-spec context:
   * V. Asgeirsson, C. Bauer and S. Grimme, Chem. Sci., 2017, 8, 4879.
     DOI: 10.1039/c7sc00601b
   * J. Koopman and S. Grimme, ACS Omega 2019, 4, 12, 15120-15133.
     DOI: 10.1021/acsomega.9b02011
   
   for metadynamics refer to:
   * S. Grimme, J. Chem. Theory Comput., 2019, 155, 2847-2862
     DOI: 10.1021/acs.jctc.9b00143
   
   for SPH calculations refer to:
   * S. Spicher and S. Grimme, J. Chem. Theory Comput., 2021, 17, 1701-1714
     DOI: 10.1021/acs.jctc.0c01306
   
   for ONIOM refer to:
   * C. Plett, A. Katbashev, S. Ehlert, S. Grimme, M. Bursch,
     Phys. Chem. Chem. Phys., 2023, 25, 17860-17868. DOI: 10.1039/D3CP02178E
   
   for DIPRO refer to:
   * J. Kohn, N. Gildemeister, S. Grimme, D. Fazzi, A. Hansen,
     J. Chem. Phys., 2023, just accepted.
   
   for PTB refer to:
   * S. Grimme, M. Mueller, A. Hansen, J. Chem. Phys., 2023, 158, 124111.
     DOI: 10.1063/5.0137838
   
   with help from (in alphabetical order)
   P. Atkinson, C. Bannwarth, F. Bohle, G. Brandenburg, E. Caldeweyher
   M. Checinski, S. Dohm, S. Ehlert, S. Ehrlich, I. Gerasimov, C. Hölzer
   A. Katbashev, J. Kohn, J. Koopman, C. Lavigne, S. Lehtola, F. März, M. Müller,
   F. Musil, H. Neugebauer, J. Pisarek, C. Plett, P. Pracht, F. Pultar,
   J. Seibert, P. Shushkov, S. Spicher, M. Stahn, M. Steiner, T. Strunk,
   J. Stückrath, T. Rose, and J. Unsleber
   
 * started run on 2025/05/15 at 16:11:17.333     
   ID    Z sym.   atoms
    1    7 N      1, 3, 5
    2    6 C      2, 4, 6, 7, 9, 11, 13, 14
    3   16 S      8
    4    8 O      10, 12, 15
    5    1 H      16-26

           -------------------------------------------------
          |                Calculation Setup                |
           -------------------------------------------------

          program call               : xtb /rds/general/user/hgt20/home/callum/QDESCP/Lamivudine_rdkit_conf_1/Lamivudine_rdkit_conf_1.xyz --opt normal --acc 1 --gfn 2 --chrg 0 --uhf 0 -P 1
          hostname                   : login-c
          coordinate file            : /rds/general/user/hgt20/home/callum/QDESCP/Lamivudine_rdkit_conf_1/Lamivudine_rdkit_conf_1.xyz
          omp threads                :                     1


           -------------------------------------------------
          |                 G F N 2 - x T B                 |
           -------------------------------------------------

        Reference                      10.1021/acs.jctc.8b01176
      * Hamiltonian:
        H0-scaling (s, p, d)           1.850000    2.230000    2.230000
        zeta-weighting                 0.500000
      * Dispersion:
        s8                             2.700000
        a1                             0.520000
        a2                             5.000000
        s9                             5.000000
      * Repulsion:
        kExp                           1.500000    1.000000
        rExp                           1.000000
      * Coulomb:
        alpha                          2.000000
        third order                    shell-resolved
        anisotropic                    true
        a3                             3.000000
        a5                             4.000000
        cn-shift                       1.200000
        cn-exp                         4.000000
        max-rad                        5.000000


          ...................................................
          :                      SETUP                      :
          :.................................................:
          :  # basis functions                  77          :
          :  # atomic orbitals                  76          :
          :  # shells                           42          :
          :  # electrons                        82          :
          :  max. iterations                   250          :
          :  Hamiltonian                  GFN2-xTB          :
          :  restarted?                      false          :
          :  GBSA solvation                  false          :
          :  PC potential                    false          :
          :  electronic temp.          300.0000000     K    :
          :  accuracy                    1.0000000          :
          :  -> integral cutoff          0.2500000E+02      :
          :  -> integral neglect         0.1000000E-07      :
          :  -> SCF convergence          0.1000000E-05 Eh   :
          :  -> wf. convergence          0.1000000E-03 e    :
          :  Broyden damping             0.4000000          :
          :  net charge                          0          :
          :  unpaired electrons                  0          :
          ...................................................

 iter      E             dE          RMSdq      gap      omega  full diag
   1    -47.3207825 -0.473208E+02  0.506E+00    3.45       0.0  T
   2    -47.4229074 -0.102125E+00  0.290E+00    3.23       1.0  T
   3    -47.4204191  0.248829E-02  0.139E+00    3.18       1.0  T
   4    -47.4304152 -0.999612E-02  0.561E-01    3.04       1.0  T
   5    -47.4353557 -0.494053E-02  0.164E-01    3.06       1.0  T
   6    -47.4354464 -0.907043E-04  0.681E-02    3.07       1.0  T
   7    -47.4354626 -0.162086E-04  0.259E-02    3.08       1.0  T
   8    -47.4354647 -0.203916E-05  0.122E-02    3.08       1.6  T
   9    -47.4354648 -0.153790E-06  0.409E-03    3.08       4.8  T
  10    -47.4354649 -0.450153E-07  0.164E-03    3.08      12.0  T
  11    -47.4354649 -0.103161E-07  0.690E-04    3.08      28.4  T
  12    -47.4354649 -0.107043E-08  0.314E-04    3.08      62.5  T

   *** convergence criteria satisfied after 12 iterations ***

         #    Occupation            Energy/Eh            Energy/eV
      -------------------------------------------------------------
         1        2.0000           -0.7467999             -20.3215
       ...           ...                  ...                  ...
        35        2.0000           -0.4485396             -12.2054
        36        2.0000           -0.4308913             -11.7251
        37        2.0000           -0.4207244             -11.4485
        38        2.0000           -0.4090848             -11.1318
        39        2.0000           -0.4048608             -11.0168
        40        2.0000           -0.3902633             -10.6196
        41        2.0000           -0.3856636             -10.4944 (HOMO)
        42                         -0.2725395              -7.4162 (LUMO)
        43                         -0.2396869              -6.5222
        44                         -0.2306752              -6.2770
        45                         -0.1603102              -4.3623
        46                         -0.1374176              -3.7393
       ...                                ...                  ...
        76                          0.6414630              17.4551
      -------------------------------------------------------------
                  HL-Gap            0.1131241 Eh            3.0783 eV
             Fermi-level           -0.3291016 Eh           -8.9553 eV

 SCC (total)                   0 d,  0 h,  0 min,  0.067 sec
 SCC setup                      ...        0 min,  0.000 sec (  0.326%)
 Dispersion                     ...        0 min,  0.000 sec (  0.291%)
 classical contributions        ...        0 min,  0.000 sec (  0.092%)
 integral evaluation            ...        0 min,  0.042 sec ( 63.366%)
 iterations                     ...        0 min,  0.013 sec ( 19.995%)
 molecular gradient             ...        0 min,  0.011 sec ( 15.775%)
 printout                       ...        0 min,  0.000 sec (  0.146%)

         :::::::::::::::::::::::::::::::::::::::::::::::::::::
         ::                     SUMMARY                     ::
         :::::::::::::::::::::::::::::::::::::::::::::::::::::
         :: total energy             -46.971271876997 Eh    ::
         :: gradient norm              0.093338019154 Eh/a0 ::
         :: HOMO-LUMO gap              3.078263263999 eV    ::
         ::.................................................::
         :: SCC energy               -47.435414916031 Eh    ::
         :: -> isotropic ES            0.106429372962 Eh    ::
         :: -> anisotropic ES          0.001707243417 Eh    ::
         :: -> anisotropic XC          0.015151189353 Eh    ::
         :: -> dispersion             -0.025759319758 Eh    ::
         :: repulsion energy           0.464143039035 Eh    ::
         :: add. restraining           0.000000000000 Eh    ::
         :: total charge               0.000000000000 e     ::
         :::::::::::::::::::::::::::::::::::::::::::::::::::::

      ----------------------------------------------------------- 
     |                   =====================                   |
     |                        A N C O P T                        |
     |                   =====================                   |
     |               Approximate Normal Coordinate               |
     |                Rational Function Optimizer                |
      ----------------------------------------------------------- 
      ----------------------------------------------------------- 
     |                   =====================                   |
     |                        A N C O P T                        |
     |                   =====================                   |
     |               Approximate Normal Coordinate               |
     |                Rational Function Optimizer                |
      ----------------------------------------------------------- 

          ...................................................
          :                      SETUP                      :
          :.................................................:
          :   optimization level            normal          :
          :   max. optcycles                   200          :
          :   ANC micro-cycles                  20          :
          :   degrees of freedom                72          :
          :.................................................:
          :   RF solver                   davidson          :
          :   write xtbopt.log                true          :
          :   linear?                        false          :
          :   energy convergence         0.5000000E-05 Eh   :
          :   grad. convergence          0.1000000E-02 Eh/α :
          :   maxmium RF displ.          1.0000000          :
          :   Hlow (freq-cutoff)         0.1000000E-01      :
          :   Hmax (freq-cutoff)         5.0000000          :
          :   S6 in model hess.         20.0000000          :
          ...................................................

generating ANC from exact Hessian ...
Using Lindh-Hessian (1995)
 Shifting diagonal of input Hessian by    8.8400122265240542E-003
 Lowest  eigenvalues of input Hessian
    0.000000    0.000000    0.000000    0.000000    0.000000    0.000000
    0.010000    0.010384    0.010709    0.013007    0.013652    0.019105
    0.020612    0.022018    0.024417    0.028436    0.029683    0.034918
 Highest eigenvalues
    1.661440    1.834280    1.971366    2.046503    2.140984    2.394227


........................................................................
.............................. CYCLE    1 ..............................
........................................................................

 iter      E             dE          RMSdq      gap      omega  full diag
   1    -47.4354649 -0.474355E+02  0.976E-05    3.08       0.0  T
   2    -47.4354649 -0.211244E-10  0.610E-05    3.08     321.5  T
   3    -47.4354649  0.326850E-12  0.337E-05    3.08     582.3  T
     SCC iter.                  ...        0 min,  0.004 sec
     gradient                   ...        0 min,  0.010 sec
 * total energy  :   -46.9712719 Eh     change       -0.4450555E-09 Eh
   gradient norm :     0.0933377 Eh/α   predicted     0.0000000E+00 (-100.00%)
   displ. norm   :     0.2289034 α      lambda       -0.9761582E-02
   maximum displ.:     0.0976762 α      in ANC's #19, #24, #27, ...

........................................................................
.............................. CYCLE    2 ..............................
........................................................................

 iter      E             dE          RMSdq      gap      omega  full diag
   1    -47.4540866 -0.474541E+02  0.200E-01    3.08       0.0  T
   2    -47.4542361 -0.149572E-03  0.115E-01    3.08       1.0  T
   3    -47.4542395 -0.340438E-05  0.704E-02    3.08       1.0  T
   4    -47.4542697 -0.302140E-04  0.202E-02    3.07       1.0  T
   5    -47.4542767 -0.695243E-05  0.509E-03    3.07       3.9  T
   6    -47.4542769 -0.189999E-06  0.247E-03    3.07       7.9  T
   7    -47.4542769 -0.162456E-07  0.108E-03    3.07      18.1  T
   8    -47.4542769 -0.390441E-08  0.360E-04    3.07      54.5  T
   9    -47.4542769 -0.350965E-09  0.174E-04    3.07     112.9  T
     SCC iter.                  ...        0 min,  0.046 sec
     gradient                   ...        0 min,  0.010 sec
 * total energy  :   -46.9783198 Eh     change       -0.7047956E-02 Eh
   gradient norm :     0.0526066 Eh/α   predicted    -0.5137983E-02 ( -27.10%)
   displ. norm   :     0.2303041 α      lambda       -0.5524460E-02
   maximum displ.:     0.0990667 α      in ANC's #11, #5, #24, ...

........................................................................
.............................. CYCLE    3 ..............................
........................................................................

 iter      E             dE          RMSdq      gap      omega  full diag
   1    -47.4684220 -0.474684E+02  0.204E-01    3.07       0.0  T
   2    -47.4685856 -0.163588E-03  0.112E-01    3.04       1.0  T
   3    -47.4685955 -0.988699E-05  0.713E-02    3.05       1.0  T
   4    -47.4686207 -0.251598E-04  0.212E-02    3.03       1.0  T
   5    -47.4686273 -0.665868E-05  0.601E-03    3.04       3.3  T
   6    -47.4686278 -0.410700E-06  0.262E-03    3.04       7.5  T
   7    -47.4686278 -0.218295E-07  0.126E-03    3.04      15.6  T
   8    -47.4686278 -0.539856E-08  0.395E-04    3.04      49.7  T
   9    -47.4686278 -0.264272E-09  0.183E-04    3.04     107.2  T
     SCC iter.                  ...        0 min,  0.009 sec
     gradient                   ...        0 min,  0.010 sec
 * total energy  :   -46.9814108 Eh     change       -0.3090923E-02 Eh
   gradient norm :     0.0209878 Eh/α   predicted    -0.2910298E-02 (  -5.84%)
   displ. norm   :     0.1238464 α      lambda       -0.8779335E-03
   maximum displ.:     0.0581008 α      in ANC's #5, #11, #4, ...

........................................................................
.............................. CYCLE    4 ..............................
........................................................................

 iter      E             dE          RMSdq      gap      omega  full diag
   1    -47.4684198 -0.474684E+02  0.822E-02    3.04       0.0  T
   2    -47.4684419 -0.220714E-04  0.449E-02    3.03       1.0  T
   3    -47.4684426 -0.744914E-06  0.205E-02    3.03       1.0  T
   4    -47.4684442 -0.157727E-05  0.522E-03    3.02       3.8  T
   5    -47.4684443 -0.166205E-06  0.205E-03    3.02       9.6  T
   6    -47.4684444 -0.148857E-07  0.679E-04    3.02      28.9  T
   7    -47.4684444 -0.559702E-09  0.287E-04    3.02      68.3  T
     SCC iter.                  ...        0 min,  0.007 sec
     gradient                   ...        0 min,  0.011 sec
 * total energy  :   -46.9820248 Eh     change       -0.6140920E-03 Eh
   gradient norm :     0.0136873 Eh/α   predicted    -0.4458240E-03 ( -27.40%)
   displ. norm   :     0.1635313 α      lambda       -0.6664582E-03
   maximum displ.:     0.0820980 α      in ANC's #5, #4, #7, ...

........................................................................
.............................. CYCLE    5 ..............................
........................................................................

 iter      E             dE          RMSdq      gap      omega  full diag
   1    -47.4674864 -0.474675E+02  0.948E-02    3.03       0.0  T
   2    -47.4675196 -0.331736E-04  0.528E-02    3.02       1.0  T
   3    -47.4675203 -0.724798E-06  0.227E-02    3.02       1.0  T
   4    -47.4675228 -0.251328E-05  0.875E-03    3.01       2.2  T
   5    -47.4675238 -0.101916E-05  0.358E-03    3.01       5.5  T
   6    -47.4675239 -0.853821E-07  0.142E-03    3.01      13.8  T
   7    -47.4675239 -0.153102E-07  0.405E-04    3.01      48.4  T
   8    -47.4675239 -0.428905E-09  0.185E-04    3.01     106.2  T
     SCC iter.                  ...        0 min,  0.009 sec
     gradient                   ...        0 min,  0.011 sec
 * total energy  :   -46.9824546 Eh     change       -0.4297546E-03 Eh
   gradient norm :     0.0096368 Eh/α   predicted    -0.3421406E-03 ( -20.39%)
   displ. norm   :     0.1209911 α      lambda       -0.2448381E-03
   maximum displ.:     0.0724488 α      in ANC's #4, #5, #2, ...

........................................................................
.............................. CYCLE    6 ..............................
........................................................................

 iter      E             dE          RMSdq      gap      omega  full diag
   1    -47.4677458 -0.474677E+02  0.633E-02    3.02       0.0  T
   2    -47.4677571 -0.113524E-04  0.347E-02    3.02       1.0  T
   3    -47.4677569  0.232800E-06  0.135E-02    3.02       1.5  T
   4    -47.4677584 -0.145733E-05  0.598E-03    3.02       3.3  T
   5    -47.4677589 -0.535613E-06  0.227E-03    3.02       8.6  T
   6    -47.4677589 -0.107392E-07  0.665E-04    3.02      29.5  T
   7    -47.4677589 -0.496437E-08  0.220E-04    3.02      89.3  T
     SCC iter.                  ...        0 min,  0.007 sec
     gradient                   ...        0 min,  0.011 sec
 * total energy  :   -46.9826343 Eh     change       -0.1796514E-03 Eh
   gradient norm :     0.0079527 Eh/α   predicted    -0.1242192E-03 ( -30.86%)
   displ. norm   :     0.1450641 α      lambda       -0.2106461E-03
   maximum displ.:     0.0881703 α      in ANC's #4, #5, #7, ...

........................................................................
.............................. CYCLE    7 ..............................
........................................................................

 iter      E             dE          RMSdq      gap      omega  full diag
   1    -47.4686229 -0.474686E+02  0.755E-02    3.03       0.0  T
   2    -47.4686320 -0.909690E-05  0.392E-02    3.03       1.0  T
   3    -47.4686316  0.386849E-06  0.125E-02    3.03       1.6  T
   4    -47.4686331 -0.151936E-05  0.539E-03    3.03       3.6  T
   5    -47.4686334 -0.291500E-06  0.251E-03    3.03       7.8  T
   6    -47.4686335 -0.392869E-07  0.615E-04    3.03      31.9  T
   7    -47.4686335 -0.418112E-08  0.227E-04    3.03      86.4  T
     SCC iter.                  ...        0 min,  0.052 sec
     gradient                   ...        0 min,  0.011 sec
 * total energy  :   -46.9827819 Eh     change       -0.1476646E-03 Eh
   gradient norm :     0.0071093 Eh/α   predicted    -0.1075421E-03 ( -27.17%)
   displ. norm   :     0.1166208 α      lambda       -0.1316711E-03
   maximum displ.:     0.0704829 α      in ANC's #4, #5, #7, ...

........................................................................
.............................. CYCLE    8 ..............................
........................................................................

 iter      E             dE          RMSdq      gap      omega  full diag
   1    -47.4698548 -0.474699E+02  0.650E-02    3.04       0.0  T
   2    -47.4698581 -0.330139E-05  0.329E-02    3.05       1.0  T
   3    -47.4698582 -0.146603E-06  0.768E-03    3.05       2.6  T
   4    -47.4698587 -0.440465E-06  0.354E-03    3.05       5.5  T
   5    -47.4698587 -0.171667E-07  0.160E-03    3.05      12.2  T
   6    -47.4698587 -0.420897E-07  0.441E-04    3.05      44.5  T
   7    -47.4698587 -0.174045E-08  0.188E-04    3.05     104.4  T
     SCC iter.                  ...        0 min,  0.007 sec
     gradient                   ...        0 min,  0.010 sec
 * total energy  :   -46.9828764 Eh     change       -0.9449889E-04 Eh
   gradient norm :     0.0058678 Eh/α   predicted    -0.6673256E-04 ( -29.38%)
   displ. norm   :     0.1279699 α      lambda       -0.1040292E-03
   maximum displ.:     0.0630529 α      in ANC's #4, #3, #7, ...

........................................................................
.............................. CYCLE    9 ..............................
........................................................................

 iter      E             dE          RMSdq      gap      omega  full diag
   1    -47.4703228 -0.474703E+02  0.738E-02    3.06       0.0  T
   2    -47.4703266 -0.378764E-05  0.372E-02    3.06       1.0  T
   3    -47.4703268 -0.254589E-06  0.822E-03    3.06       2.4  T
   4    -47.4703273 -0.499402E-06  0.383E-03    3.06       5.1  T
   5    -47.4703273 -0.138530E-07  0.160E-03    3.06      12.2  T
   6    -47.4703274 -0.357764E-07  0.495E-04    3.06      39.6  T
   7    -47.4703274 -0.298942E-08  0.225E-04    3.06      87.3  T
     SCC iter.                  ...        0 min,  0.007 sec
     gradient                   ...        0 min,  0.011 sec
 * total energy  :   -46.9829457 Eh     change       -0.6931638E-04 Eh
   gradient norm :     0.0061487 Eh/α   predicted    -0.5287038E-04 ( -23.73%)
   displ. norm   :     0.1121923 α      lambda       -0.1033065E-03
   maximum displ.:     0.0643739 α      in ANC's #3, #4, #7, ...

........................................................................
.............................. CYCLE   10 ..............................
........................................................................

 iter      E             dE          RMSdq      gap      omega  full diag
   1    -47.4716072 -0.474716E+02  0.722E-02    3.07       0.0  T
   2    -47.4716118 -0.466261E-05  0.370E-02    3.07       1.0  T
   3    -47.4716122 -0.345232E-06  0.787E-03    3.08       2.5  T
   4    -47.4716125 -0.283976E-06  0.385E-03    3.07       5.1  T
   5    -47.4716125 -0.246074E-07  0.198E-03    3.07       9.9  T
   6    -47.4716125 -0.504060E-07  0.489E-04    3.07      40.1  T
   7    -47.4716125 -0.234963E-08  0.248E-04    3.07      79.0  T
     SCC iter.                  ...        0 min,  0.041 sec
     gradient                   ...        0 min,  0.011 sec
 * total energy  :   -46.9829939 Eh     change       -0.4814456E-04 Eh
   gradient norm :     0.0046842 Eh/α   predicted    -0.5231011E-04 (   8.65%)
   displ. norm   :     0.0916946 α      lambda       -0.5214824E-04
   maximum displ.:     0.0600696 α      in ANC's #3, #1, #7, ...

........................................................................
.............................. CYCLE   11 ..............................
........................................................................

 iter      E             dE          RMSdq      gap      omega  full diag
   1    -47.4709012 -0.474709E+02  0.543E-02    3.08       0.0  T
   2    -47.4709036 -0.241348E-05  0.276E-02    3.08       1.0  T
   3    -47.4709031  0.452775E-06  0.820E-03    3.08       2.4  T
   4    -47.4709041 -0.943118E-06  0.335E-03    3.08       5.9  T
   5    -47.4709041 -0.627339E-07  0.164E-03    3.08      11.9  T
   6    -47.4709042 -0.195770E-07  0.389E-04    3.08      50.4  T
   7    -47.4709042 -0.121076E-08  0.158E-04    3.08     123.9  T
     SCC iter.                  ...        0 min,  0.007 sec
     gradient                   ...        0 min,  0.011 sec
 * total energy  :   -46.9830236 Eh     change       -0.2973485E-04 Eh
   gradient norm :     0.0033244 Eh/α   predicted    -0.2629604E-04 ( -11.56%)
   displ. norm   :     0.0407995 α      lambda       -0.2457683E-04
   maximum displ.:     0.0319678 α      in ANC's #3, #1, #5, ...

........................................................................
.............................. CYCLE   12 ..............................
........................................................................

 iter      E             dE          RMSdq      gap      omega  full diag
   1    -47.4709102 -0.474709E+02  0.208E-02    3.08       0.0  T
   2    -47.4709106 -0.425977E-06  0.112E-02    3.07       1.7  T
   3    -47.4709103  0.284817E-06  0.520E-03    3.07       3.8  T
   4    -47.4709107 -0.408106E-06  0.154E-03    3.07      12.7  T
   5    -47.4709107 -0.176863E-07  0.562E-04    3.07      34.9  T
   6    -47.4709107 -0.184225E-08  0.176E-04    3.07     111.3  T
     SCC iter.                  ...        0 min,  0.006 sec
     gradient                   ...        0 min,  0.011 sec
 * total energy  :   -46.9830428 Eh     change       -0.1921584E-04 Eh
   gradient norm :     0.0025327 Eh/α   predicted    -0.1231043E-04 ( -35.94%)
   displ. norm   :     0.0786020 α      lambda       -0.2946028E-04
   maximum displ.:     0.0637208 α      in ANC's #3, #1, #5, ...

........................................................................
.............................. CYCLE   13 ..............................
........................................................................

 iter      E             dE          RMSdq      gap      omega  full diag
   1    -47.4708046 -0.474708E+02  0.368E-02    3.07       0.0  T
   2    -47.4708053 -0.740263E-06  0.201E-02    3.07       1.0  T
   3    -47.4708045  0.848875E-06  0.823E-03    3.07       2.4  T
   4    -47.4708056 -0.114859E-05  0.252E-03    3.07       7.8  T
   5    -47.4708057 -0.338403E-07  0.842E-04    3.07      23.3  T
   6    -47.4708057 -0.477804E-08  0.262E-04    3.07      74.8  T
     SCC iter.                  ...        0 min,  0.006 sec
     gradient                   ...        0 min,  0.010 sec
 * total energy  :   -46.9830625 Eh     change       -0.1965468E-04 Eh
   gradient norm :     0.0023405 Eh/α   predicted    -0.1482549E-04 ( -24.57%)
   displ. norm   :     0.0688442 α      lambda       -0.1487115E-04
   maximum displ.:     0.0578000 α      in ANC's #3, #1, #5, ...

........................................................................
.............................. CYCLE   14 ..............................
........................................................................

 iter      E             dE          RMSdq      gap      omega  full diag
   1    -47.4708255 -0.474708E+02  0.306E-02    3.07       0.0  T
   2    -47.4708259 -0.302656E-06  0.167E-02    3.07       1.2  T
   3    -47.4708256  0.220786E-06  0.478E-03    3.07       4.1  T
   4    -47.4708260 -0.323643E-06  0.199E-03    3.07       9.8  T
   5    -47.4708260 -0.261179E-07  0.599E-04    3.07      32.7  T
   6    -47.4708260 -0.309996E-08  0.191E-04    3.07     102.9  T
     SCC iter.                  ...        0 min,  0.006 sec
     gradient                   ...        0 min,  0.010 sec
 * total energy  :   -46.9830745 Eh     change       -0.1198549E-04 Eh
   gradient norm :     0.0025197 Eh/α   predicted    -0.7475904E-05 ( -37.63%)
   displ. norm   :     0.0913822 α      lambda       -0.2051226E-04
   maximum displ.:     0.0759746 α      in ANC's #3, #1, #5, ...

........................................................................
.............................. CYCLE   15 ..............................
........................................................................

 iter      E             dE          RMSdq      gap      omega  full diag
   1    -47.4709963 -0.474710E+02  0.387E-02    3.07       0.0  T
   2    -47.4709967 -0.431722E-06  0.214E-02    3.06       1.0  T
   3    -47.4709967 -0.296172E-07  0.408E-03    3.06       4.8  T
   4    -47.4709968 -0.672984E-07  0.212E-03    3.06       9.2  T
   5    -47.4709968 -0.314065E-07  0.752E-04    3.06      26.1  T
   6    -47.4709969 -0.895948E-08  0.240E-04    3.06      81.7  T
     SCC iter.                  ...        0 min,  0.006 sec
     gradient                   ...        0 min,  0.052 sec
 * total energy  :   -46.9830901 Eh     change       -0.1564069E-04 Eh
   gradient norm :     0.0020135 Eh/α   predicted    -0.1034488E-04 ( -33.86%)
   displ. norm   :     0.1006248 α      lambda       -0.1664985E-04
   maximum displ.:     0.0840804 α      in ANC's #3, #1, #8, ...

........................................................................
.............................. CYCLE   16 ..............................
........................................................................

 iter      E             dE          RMSdq      gap      omega  full diag
   1    -47.4710129 -0.474710E+02  0.440E-02    3.06       0.0  T
   2    -47.4710135 -0.626850E-06  0.241E-02    3.06       1.0  T
   3    -47.4710136 -0.104149E-06  0.452E-03    3.06       4.3  T
   4    -47.4710137 -0.676157E-07  0.216E-03    3.06       9.1  T
   5    -47.4710137 -0.918833E-08  0.596E-04    3.06      32.9  T
   6    -47.4710137 -0.538729E-08  0.271E-04    3.06      72.4  T
     SCC iter.                  ...        0 min,  0.006 sec
     gradient                   ...        0 min,  0.011 sec
 * total energy  :   -46.9831017 Eh     change       -0.1156899E-04 Eh
   gradient norm :     0.0018691 Eh/α   predicted    -0.8410300E-05 ( -27.30%)
   displ. norm   :     0.1145606 α      lambda       -0.1026545E-04
   maximum displ.:     0.0931661 α      in ANC's #3, #1, #4, ...

........................................................................
.............................. CYCLE   17 ..............................
........................................................................

 iter      E             dE          RMSdq      gap      omega  full diag
   1    -47.4713942 -0.474714E+02  0.481E-02    3.06       0.0  T
   2    -47.4713949 -0.762634E-06  0.267E-02    3.07       1.0  T
   3    -47.4713950 -0.885697E-07  0.516E-03    3.06       3.8  T
   4    -47.4713951 -0.923784E-07  0.236E-03    3.06       8.3  T
   5    -47.4713951 -0.106704E-07  0.751E-04    3.06      26.1  T
   6    -47.4713951 -0.838336E-08  0.329E-04    3.06      59.6  T
     SCC iter.                  ...        0 min,  0.007 sec
     gradient                   ...        0 min,  0.011 sec
 * total energy  :   -46.9831099 Eh     change       -0.8245285E-05 Eh
   gradient norm :     0.0015280 Eh/α   predicted    -0.5166067E-05 ( -37.35%)
   displ. norm   :     0.0610893 α      lambda       -0.6006072E-05
   maximum displ.:     0.0446648 α      in ANC's #3, #1, #2, ...

........................................................................
.............................. CYCLE   18 ..............................
........................................................................

 iter      E             dE          RMSdq      gap      omega  full diag
   1    -47.4711642 -0.474712E+02  0.305E-02    3.07       0.0  T
   2    -47.4711646 -0.410501E-06  0.162E-02    3.07       1.2  T
   3    -47.4711646  0.136814E-07  0.376E-03    3.07       5.2  T
   4    -47.4711647 -0.104905E-06  0.185E-03    3.07      10.6  T
   5    -47.4711647 -0.925453E-08  0.840E-04    3.07      23.3  T
   6    -47.4711647 -0.113085E-07  0.196E-04    3.07      99.9  T
     SCC iter.                  ...        0 min,  0.006 sec
     gradient                   ...        0 min,  0.011 sec
 * total energy  :   -46.9831154 Eh     change       -0.5517711E-05 Eh
   gradient norm :     0.0017966 Eh/α   predicted    -0.3014007E-05 ( -45.38%)
   displ. norm   :     0.0577877 α      lambda       -0.1023658E-04
   maximum displ.:     0.0344603 α      in ANC's #4, #2, #5, ...

........................................................................
.............................. CYCLE   19 ..............................
........................................................................

 iter      E             dE          RMSdq      gap      omega  full diag
   1    -47.4717188 -0.474717E+02  0.239E-02    3.07       0.0  T
   2    -47.4717191 -0.318494E-06  0.132E-02    3.07       1.5  T
   3    -47.4717191  0.476993E-08  0.318E-03    3.07       6.2  T
   4    -47.4717191 -0.425496E-07  0.149E-03    3.07      13.2  T
   5    -47.4717192 -0.104966E-07  0.658E-04    3.07      29.8  T
   6    -47.4717192 -0.755479E-08  0.185E-04    3.07     106.3  T
     SCC iter.                  ...        0 min,  0.007 sec
     gradient                   ...        0 min,  0.010 sec
 * total energy  :   -46.9831213 Eh     change       -0.5833604E-05 Eh
   gradient norm :     0.0019266 Eh/α   predicted    -0.5127744E-05 ( -12.10%)
   displ. norm   :     0.0635001 α      lambda       -0.5376721E-05
   maximum displ.:     0.0438052 α      in ANC's #3, #1, #4, ...

........................................................................
.............................. CYCLE   20 ..............................
........................................................................

 iter      E             dE          RMSdq      gap      omega  full diag
   1    -47.4711965 -0.474712E+02  0.290E-02    3.07       0.0  T
   2    -47.4711968 -0.313944E-06  0.156E-02    3.07       1.3  T
   3    -47.4711966  0.199730E-06  0.467E-03    3.07       4.2  T
   4    -47.4711969 -0.283608E-06  0.195E-03    3.07      10.1  T
   5    -47.4711969 -0.262321E-07  0.613E-04    3.07      32.0  T
   6    -47.4711969 -0.367807E-08  0.155E-04    3.07     126.8  T
     SCC iter.                  ...        0 min,  0.058 sec
     gradient                   ...        0 min,  0.011 sec
 * total energy  :   -46.9831272 Eh     change       -0.5949137E-05 Eh
   gradient norm :     0.0012732 Eh/α   predicted    -0.2698470E-05 ( -54.64%)
   displ. norm   :     0.0850822 α      lambda       -0.7435942E-05
   maximum displ.:     0.0418609 α      in ANC's #4, #3, #2, ...
 * RMSD in coord.:     0.2909417 α      energy gain  -0.1185535E-01 Eh

generating ANC from exact Hessian ...
Using Lindh-Hessian (1995)
 Shifting diagonal of input Hessian by    8.7200878947460061E-003
 Lowest  eigenvalues of input Hessian
    0.000000    0.000000    0.000000    0.000000    0.000000    0.000000
    0.010000    0.010343    0.010673    0.013127    0.014127    0.019361
    0.020977    0.022880    0.025635    0.030031    0.030419    0.036492
 Highest eigenvalues
    1.726768    1.949083    2.054160    2.117129    2.215619    2.507218


........................................................................
.............................. CYCLE   21 ..............................
........................................................................

 iter      E             dE          RMSdq      gap      omega  full diag
   1    -47.4709306 -0.474709E+02  0.381E-02    3.07       0.0  T
   2    -47.4709311 -0.463992E-06  0.204E-02    3.07       1.0  T
   3    -47.4709310  0.849719E-07  0.483E-03    3.07       4.1  T
   4    -47.4709312 -0.138077E-06  0.251E-03    3.07       7.8  T
   5    -47.4709312 -0.648317E-07  0.600E-04    3.07      32.7  T
   6    -47.4709312 -0.433411E-08  0.194E-04    3.07     101.0  T
     SCC iter.                  ...        0 min,  0.007 sec
     gradient                   ...        0 min,  0.011 sec
 * total energy  :   -46.9831353 Eh     change       -0.8041657E-05 Eh
   gradient norm :     0.0012124 Eh/α   predicted     0.0000000E+00 (-100.00%)
   displ. norm   :     0.0143340 α      lambda       -0.2536470E-05
   maximum displ.:     0.0077127 α      in ANC's #2, #1, #5, ...

........................................................................
.............................. CYCLE   22 ..............................
........................................................................

 iter      E             dE          RMSdq      gap      omega  full diag
   1    -47.4714575 -0.474715E+02  0.564E-03    3.07       0.0  T
   2    -47.4714576 -0.722431E-07  0.337E-03    3.07       5.8  T
   3    -47.4714576  0.150905E-07  0.163E-03    3.07      12.1  T
   4    -47.4714576 -0.279537E-07  0.531E-04    3.07      37.0  T
   5    -47.4714576 -0.487953E-08  0.159E-04    3.07     123.2  T
     SCC iter.                  ...        0 min,  0.005 sec
     gradient                   ...        0 min,  0.056 sec
 * total energy  :   -46.9831381 Eh     change       -0.2813869E-05 Eh
   gradient norm :     0.0003977 Eh/α   predicted    -0.1421336E-05 ( -49.49%)
   displ. norm   :     0.0247726 α      lambda       -0.1907155E-05
   maximum displ.:     0.0126263 α      in ANC's #2, #1, #5, ...

   *** GEOMETRY OPTIMIZATION CONVERGED AFTER 22 ITERATIONS ***

------------------------------------------------------------------------
 total energy gain   :        -0.0118662 Eh       -7.4462 kcal/mol
 total RMSD          :         0.2912917 a0        0.1541 Å
 total power (kW/mol):        -1.4161234 (step)  -35.2862 (real)
------------------------------------------------------------------------

 ANCopt (total)                0 d,  0 h,  0 min,  0.883 sec
 optimizer setup                ...        0 min,  0.000 sec (  0.008%)
 model hessian                  ...        0 min,  0.012 sec (  1.390%)
 ANC generation                 ...        0 min,  0.001 sec (  0.144%)
 coordinate transformation      ...        0 min,  0.000 sec (  0.010%)
 single point calculation       ...        0 min,  0.863 sec ( 97.779%)
 optimization log               ...        0 min,  0.003 sec (  0.293%)
 hessian update                 ...        0 min,  0.000 sec (  0.019%)
 rational function              ...        0 min,  0.001 sec (  0.145%)

================
 final structure:
================
26
 xtb: 6.7.1 (edcfbbe)
N            4.73654107444908        0.02910279361292       -0.26257083618855
C            3.40893321825871        0.11568648807501       -0.07400313492215
N            3.00208846023125        0.67124098469464        1.04434849250156
C            1.70647108578437        0.80644845757892        1.34169835036001
N            0.76692759659080        0.34893734813639        0.34514958493429
C           -0.62726861869798        0.50624926704873        0.65832932470287
C           -1.14896960787397       -0.66566324544715        1.51034637552608
S           -2.93154255136640       -0.68205740782930        1.19851854606520
C           -2.73497064718803        0.51062828626687       -0.22208946208727
O           -1.38316924538694        0.54633222988456       -0.52127606442284
C           -3.53622404808256        0.03976675297470       -1.43658447213658
O           -3.20813895625680       -1.25841773414779       -1.82633403904113
C            1.17888577013980       -0.24198845283253       -0.79244373058408
C            2.50079685314450       -0.38604597085722       -1.05396733029291
O            1.26127457426973        1.26882813231490        2.36583466586418
H            5.33890366674125        0.40104919486755        0.45023122410118
H            5.12384092411364       -0.37851352095918       -1.09291354356826
H           -0.73294854776060        1.44280111648028        1.23244060244894
H           -0.94950487671376       -0.51090620871478        2.56718861004133
H           -0.71714496139269       -1.61040415398781        1.17556598855665
H           -3.09942295724574        1.48366089873058        0.13832030174616
H           -3.30032757754213        0.68645706342933       -2.28487040786884
H           -4.60529053708110        0.13120943510121       -1.19603307533352
H           -3.30364789587247       -1.83649391258711       -1.05542181786778
H            0.40358092050015       -0.56887251659159       -1.47048603525035
H            2.85032688423786       -0.84913532524213       -1.95987811728429

 Bond Distances (Angstroems)
 ---------------------------
N1-C2=1.3437         N1-H16=1.0046        N1-H17=1.0028        C2-N1=1.3437         C2-N3=1.3133         C2-C14=1.4272        
N3-C2=1.3133         N3-C4=1.3362         C4-N3=1.3362         C4-N5=1.4440         C4-O15=1.2087        N5-C4=1.4440         
N5-C6=1.4376         N5-C13=1.3465        C6-N5=1.4376         C6-C7=1.5400         C6-O10=1.4016        C6-H18=1.1036        
C7-C6=1.5400         C7-S8=1.8097         C7-H19=1.0866        C7-H20=1.0914        S8-C7=1.8097         S8-C9=1.8653         
C9-S8=1.8653         C9-O10=1.3850        C9-C11=1.5293        C9-H21=1.0998        O10-C6=1.4016        O10-C9=1.3850        
C11-C9=1.5293        C11-O12=1.3946       C11-H22=1.0924       C11-H23=1.0996       O12-C11=1.3946       O12-H24=0.9683       
C13-N5=1.3465        C13-C14=1.3552       C13-H25=1.0806       C14-C2=1.4272        C14-C13=1.3552       C14-H26=1.0758       
O15-C4=1.2087        H16-N1=1.0046        H17-N1=1.0028        H18-C6=1.1036        H19-C7=1.0866        H20-C7=1.0914        
H21-C9=1.0998        H22-C11=1.0924       H23-C11=1.0996       H24-O12=0.9683       H25-C13=1.0806       H26-C14=1.0758       
 C  H  Rav=1.0912 sigma=0.0092  Rmin=1.0758  Rmax=1.1036     8
 C  C  Rav=1.4629 sigma=0.0762  Rmin=1.3552  Rmax=1.5400     4
 N  H  Rav=1.0037 sigma=0.0009  Rmin=1.0028  Rmax=1.0046     2
 N  C  Rav=1.3702 sigma=0.0511  Rmin=1.3133  Rmax=1.4440     6
 O  H  Rav=0.9683 sigma=0.0000  Rmin=0.9683  Rmax=0.9683     1
 O  C  Rav=1.3474 sigma=0.0803  Rmin=1.2087  Rmax=1.4016     4
 S  C  Rav=1.8375 sigma=0.0278  Rmin=1.8097  Rmax=1.8653     2

 selected bond angles (degree)
 --------------------
H16-N1-C2=117.97               H17-N1-C2=121.60               H17-N1-H16=120.43              N3-C2-N1=116.92                
C14-C2-N1=120.64               C14-C2-N3=122.43               C4-N3-C2=122.19                N5-C4-N3=116.44                
O15-C4-N3=125.76               O15-C4-N5=117.80               C6-N5-C4=116.49                C13-N5-C4=121.54               
C13-N5-C6=121.92               C7-C6-N5=111.46                O10-C6-N5=110.05               O10-C6-C7=107.74               
H18-C6-N5=107.40               H18-C6-C7=109.00               H18-C6-O10=111.22              S8-C7-C6=104.20                
H19-C7-C6=111.56               H19-C7-S8=110.47               H20-C7-C6=110.79               H20-C7-S8=109.21               
H20-C7-H19=110.43              C9-S8-C7= 91.24                O10-C9-S8=106.49               C11-C9-S8=110.66               
C11-C9-O10=110.35              H21-C9-S8=106.33               H21-C9-O10=111.80              H21-C9-C11=111.04              
C9-O10-C6=110.11               

 selected dihedral angles (degree)
 ---------------------------------
N3-C2-N1-H16=359.25           N3-C2-N1-H17=180.26           C14-C2-N1-H16=179.57          C14-C2-N1-H17=  0.59          
C4-N3-C2-N1=180.26            C4-N3-C2-C14=359.93           N5-C4-N3-C2=357.97            O15-C4-N3-C2=177.62           
C6-N5-C4-N3=180.60            C6-N5-C4-O15=  0.93           C13-N5-C4-N3=  3.17           C13-N5-C4-O15=183.50          
C7-C6-N5-C4=275.75            C7-C6-N5-C13= 93.17           O10-C6-N5-C4=156.28           O10-C6-N5-C13=333.70          
H18-C6-N5-C4= 35.07           H18-C6-N5-C13=212.49          S8-C7-C6-N5=203.56            S8-C7-C6-O10=324.39           
S8-C7-C6-H18= 85.19           H19-C7-C6-N5= 84.36           H19-C7-C6-O10=205.19          H19-C7-C6-H18=325.99          
H20-C7-C6-N5=320.89           H20-C7-C6-O10= 81.72          H20-C7-C6-H18=202.52          C9-S8-C7-C6= 11.73            
C9-S8-C7-H19=131.68           C9-S8-C7-H20=253.31           O10-C9-S8-C7= 13.90           C11-C9-S8-C7=133.85           
H21-C9-S8-C7=254.53           C9-O10-C6-N5=171.74           C9-O10-C6-C7= 50.03           C9-O10-C6-H18=290.63          
C6-O10-C9-S8=321.03           C6-O10-C9-C11=200.89          C6-O10-C9-H21= 76.77          
           -------------------------------------------------
          |                Final Singlepoint                |
           -------------------------------------------------

          ...................................................
          :                      SETUP                      :
          :.................................................:
          :  # basis functions                  77          :
          :  # atomic orbitals                  76          :
          :  # shells                           42          :
          :  # electrons                        82          :
          :  max. iterations                   250          :
          :  Hamiltonian                  GFN2-xTB          :
          :  restarted?                      false          :
          :  GBSA solvation                  false          :
          :  PC potential                    false          :
          :  electronic temp.          300.0000000     K    :
          :  accuracy                    1.0000000          :
          :  -> integral cutoff          0.2500000E+02      :
          :  -> integral neglect         0.1000000E-07      :
          :  -> SCF convergence          0.1000000E-05 Eh   :
          :  -> wf. convergence          0.1000000E-03 e    :
          :  Broyden damping             0.4000000          :
          :  net charge                          0          :
          :  unpaired electrons                  0          :
          ...................................................

 iter      E             dE          RMSdq      gap      omega  full diag
   1    -47.4714576 -0.474715E+02  0.590E-05    3.07       0.0  T
   2    -47.4714576 -0.173443E-10  0.346E-05    3.07     567.4  T
   3    -47.4714576 -0.285638E-11  0.227E-05    3.07     864.8  T

   *** convergence criteria satisfied after 3 iterations ***

         #    Occupation            Energy/Eh            Energy/eV
      -------------------------------------------------------------
         1        2.0000           -0.7513861             -20.4463
       ...           ...                  ...                  ...
        35        2.0000           -0.4450295             -12.1099
        36        2.0000           -0.4291387             -11.6775
        37        2.0000           -0.4134635             -11.2509
        38        2.0000           -0.4092531             -11.1363
        39        2.0000           -0.3985573             -10.8453
        40        2.0000           -0.3838232             -10.4444
        41        2.0000           -0.3806310             -10.3575 (HOMO)
        42                         -0.2678864              -7.2896 (LUMO)
        43                         -0.2367755              -6.4430
        44                         -0.2193137              -5.9678
        45                         -0.1603613              -4.3637
        46                         -0.1218197              -3.3149
       ...                                ...                  ...
        76                          0.6760040              18.3950
      -------------------------------------------------------------
                  HL-Gap            0.1127446 Eh            3.0679 eV
             Fermi-level           -0.3242587 Eh           -8.8235 eV

 SCC (total)                   0 d,  0 h,  0 min,  0.019 sec
 SCC setup                      ...        0 min,  0.000 sec (  0.793%)
 Dispersion                     ...        0 min,  0.000 sec (  0.638%)
 classical contributions        ...        0 min,  0.000 sec (  0.300%)
 integral evaluation            ...        0 min,  0.004 sec ( 21.972%)
 iterations                     ...        0 min,  0.004 sec ( 18.903%)
 molecular gradient             ...        0 min,  0.011 sec ( 56.871%)
 printout                       ...        0 min,  0.000 sec (  0.492%)

         :::::::::::::::::::::::::::::::::::::::::::::::::::::
         ::                     SUMMARY                     ::
         :::::::::::::::::::::::::::::::::::::::::::::::::::::
         :: total energy             -46.983138081465 Eh    ::
         :: gradient norm              0.000398636956 Eh/a0 ::
         :: HOMO-LUMO gap              3.067937515033 eV    ::
         ::.................................................::
         :: SCC energy               -47.471409837833 Eh    ::
         :: -> isotropic ES            0.103502739937 Eh    ::
         :: -> anisotropic ES          0.000663966777 Eh    ::
         :: -> anisotropic XC          0.013415975529 Eh    ::
         :: -> dispersion             -0.025930292459 Eh    ::
         :: repulsion energy           0.488271756368 Eh    ::
         :: add. restraining           0.000000000000 Eh    ::
         :: total charge               0.000000000000 e     ::
         :::::::::::::::::::::::::::::::::::::::::::::::::::::

           -------------------------------------------------
          |                Property Printout                |
           -------------------------------------------------

    * Orbital Energies and Occupations

         #    Occupation            Energy/Eh            Energy/eV
      -------------------------------------------------------------
         1        2.0000           -0.7513861             -20.4463
       ...           ...                  ...                  ...
        29        2.0000           -0.5004554             -13.6181
        30        2.0000           -0.4956843             -13.4883
        31        2.0000           -0.4907994             -13.3553
        32        2.0000           -0.4863573             -13.2345
        33        2.0000           -0.4778463             -13.0029
        34        2.0000           -0.4625336             -12.5862
        35        2.0000           -0.4450295             -12.1099
        36        2.0000           -0.4291387             -11.6775
        37        2.0000           -0.4134635             -11.2509
        38        2.0000           -0.4092531             -11.1363
        39        2.0000           -0.3985573             -10.8453
        40        2.0000           -0.3838232             -10.4444
        41        2.0000           -0.3806310             -10.3575 (HOMO)
        42                         -0.2678864              -7.2896 (LUMO)
        43                         -0.2367755              -6.4430
        44                         -0.2193137              -5.9678
        45                         -0.1603613              -4.3637
        46                         -0.1218197              -3.3149
        47                         -0.0437684              -1.1910
        48                         -0.0366959              -0.9985
        49                         -0.0163685              -0.4454
        50                         -0.0122729              -0.3340
        51                         -0.0019045              -0.0518
        52                          0.0309167               0.8413
       ...                                ...                  ...
        76                          0.6760040              18.3950
      -------------------------------------------------------------
                  HL-Gap            0.1127446 Eh            3.0679 eV
             Fermi-level           -0.3242587 Eh           -8.8235 eV

     #   Z          covCN         q      C6AA      α(0)
     1   7 N        2.655    -0.236    26.166     7.597
     2   6 C        2.869     0.186    24.023     8.034
     3   7 N        1.851    -0.311    28.910     7.969
     4   6 C        2.736     0.336    21.296     7.556
     5   7 N        2.748    -0.101    23.218     7.156
     6   6 C        3.834     0.198    17.450     5.943
     7   6 C        3.796    -0.016    20.871     6.505
     8  16 S        2.071    -0.210   149.997    20.613
     9   6 C        3.779     0.150    18.194     6.077
    10   8 O        1.723    -0.298    18.955     5.878
    11   6 C        3.698     0.077    19.451     6.308
    12   8 O        1.656    -0.421    21.258     6.224
    13   6 C        2.861     0.051    26.851     8.494
    14   6 C        2.911    -0.098    30.463     9.050
    15   8 O        0.859    -0.447    22.643     6.380
    16   1 H        0.860     0.204     1.086     1.632
    17   1 H        0.861     0.186     1.179     1.701
    18   1 H        0.923     0.057     2.233     2.337
    19   1 H        0.925     0.073     2.050     2.239
    20   1 H        0.924     0.054     2.274     2.358
    21   1 H        0.923     0.027     2.624     2.533
    22   1 H        0.924     0.071     2.080     2.255
    23   1 H        0.923     0.036     2.508     2.477
    24   1 H        0.805     0.305     0.706     1.320
    25   1 H        0.926     0.076     2.015     2.220
    26   1 H        0.926     0.050     2.325     2.384

 Mol. C6AA /au·bohr⁶  :       8766.173529
 Mol. C8AA /au·bohr⁸  :     223122.656381
 Mol. α(0) /au        :        143.241473


Wiberg/Mayer (AO) data.
largest (>0.10) Wiberg bond orders for each atom

 ---------------------------------------------------------------------------
     #   Z sym  total        # sym  WBO       # sym  WBO       # sym  WBO
 ---------------------------------------------------------------------------
     1   7 N    3.389 --     2 C    1.272    17 H    0.948    16 H    0.939
                             3 N    0.105
     2   6 C    3.966 --     3 N    1.415     1 N    1.272    14 C    1.175
     3   7 N    3.051 --     2 C    1.415     4 C    1.246    15 O    0.121
                             1 N    0.105
     4   6 C    3.949 --    15 O    1.652     3 N    1.246     5 N    0.964
     5   7 N    3.571 --    13 C    1.262     6 C    0.984     4 C    0.964
                            15 O    0.123
     6   6 C    3.936 --     5 N    0.984    10 O    0.973     7 C    0.961
                            18 H    0.945
     7   6 C    3.976 --     8 S    1.005    20 H    0.976    19 H    0.973
                             6 C    0.961
     8  16 S    2.071 --     7 C    1.005     9 C    0.917
     9   6 C    3.934 --    10 O    1.011    11 C    0.982    21 H    0.959
                             8 S    0.917
    10   8 O    2.140 --     9 C    1.011     6 C    0.973
    11   6 C    3.966 --    12 O    1.024     9 C    0.982    23 H    0.965
                            22 H    0.961
    12   8 O    1.976 --    11 C    1.024    24 H    0.883
    13   6 C    3.963 --    14 C    1.600     5 N    1.262    25 H    0.955
    14   6 C    3.972 --    13 C    1.600     2 C    1.175    26 H    0.967
    15   8 O    2.004 --     4 C    1.652     5 N    0.123     3 N    0.121
    16   1 H    0.958 --     1 N    0.939
    17   1 H    0.964 --     1 N    0.948
    18   1 H    0.996 --     6 C    0.945
    19   1 H    0.994 --     7 C    0.973
    20   1 H    0.997 --     7 C    0.976
    21   1 H    0.999 --     9 C    0.959
    22   1 H    0.995 --    11 C    0.961
    23   1 H    0.998 --    11 C    0.965
    24   1 H    0.907 --    12 O    0.883
    25   1 H    0.993 --    13 C    0.955
    26   1 H    0.997 --    14 C    0.967
 ---------------------------------------------------------------------------

Topologies differ in total number of bonds
Writing topology from bond orders to xtbtopo.mol

molecular dipole:
                 x           y           z       tot (Debye)
 q only:        0.940      -0.722      -1.405
   full:        1.078      -0.616      -1.619       5.186
molecular quadrupole (traceless):
                xx          xy          yy          xz          yz          zz
 q only:       23.008      -7.800      -6.211     -10.687      -6.660     -16.798
  q+dip:       20.601     -12.614      -3.054     -14.565      -7.025     -17.548
   full:       20.478     -12.613      -2.347     -14.323      -9.069     -18.131

           -------------------------------------------------
          |                Geometry Summary                 |
           -------------------------------------------------

      molecular mass/u    :      229.2563472
   center of mass at/Å    :       -0.0967413       0.0363824       0.2187832
  moments of inertia/u·Å² :        0.4106732E+03   0.1693756E+04   0.1949666E+04
rotational constants/cm⁻¹ :        0.4104878E-01   0.9952811E-02   0.8646419E-02

 * 24 selected distances

     #   Z          #   Z                                           value/Å
     1   7 N        2   6 C                                       1.3437252
     2   6 C        3   7 N                                       1.3133446
     3   7 N        4   6 C                                       1.3361597
     5   7 N        6   6 C                                       1.4375716
     6   6 C        7   6 C                                       1.5399625 (max)
     6   6 C       10   8 O                                       1.4015925
     9   6 C       10   8 O                                       1.3849746
     9   6 C       11   6 C                                       1.5292862
    11   6 C       12   8 O                                       1.3945709
     5   7 N       13   6 C                                       1.3464850
     2   6 C       14   6 C                                       1.4271571
    13   6 C       14   6 C                                       1.3552108
     4   6 C       15   8 O                                       1.2086564
     1   7 N       16   1 H                                       1.0046252
     1   7 N       17   1 H                                       1.0028068
     6   6 C       18   1 H                                       1.1035858
     7   6 C       19   1 H                                       1.0865780
     7   6 C       20   1 H                                       1.0913689
     9   6 C       21   1 H                                       1.0997788
    11   6 C       22   1 H                                       1.0924490
    11   6 C       23   1 H                                       1.0996045
    12   8 O       24   1 H                                       0.9682974 (min)
    13   6 C       25   1 H                                       1.0805982
    14   6 C       26   1 H                                       1.0757777

 * 6 distinct bonds (by element types)

   Z      Z             #   av. dist./Å        max./Å        min./Å
   1 H    6 C           8     1.0912176     1.1035858     1.0757777
   6 C    6 C           4     1.4629041     1.5399625     1.3552108
   1 H    7 N           2     1.0037160     1.0046252     1.0028068
   6 C    7 N           5     1.3554572     1.4375716     1.3133446
   1 H    8 O           1     0.9682974     0.9682974     0.9682974
   6 C    8 O           4     1.3474486     1.4015925     1.2086564


optimized geometry written to: xtbopt.xyz


           -------------------------------------------------
          | TOTAL ENERGY              -46.983138081465 Eh   |
          | GRADIENT NORM               0.000398636956 Eh/α |
          | HOMO-LUMO GAP               3.067937515033 eV   |
           -------------------------------------------------

------------------------------------------------------------------------
 * finished run on 2025/05/15 at 16:11:18.313     
------------------------------------------------------------------------
 total:
 * wall-time:     0 d,  0 h,  0 min,  0.980 sec
 *  cpu-time:     0 d,  0 h,  0 min,  0.556 sec
 * ratio c/w:     0.567 speedup
 SCF:
 * wall-time:     0 d,  0 h,  0 min,  0.067 sec
 *  cpu-time:     0 d,  0 h,  0 min,  0.029 sec
 * ratio c/w:     0.431 speedup
 ANC optimizer:
 * wall-time:     0 d,  0 h,  0 min,  0.903 sec
 *  cpu-time:     0 d,  0 h,  0 min,  0.518 sec
 * ratio c/w:     0.574 speedup



----- Single-point -----
      -----------------------------------------------------------      
     |                   =====================                   |     
     |                           x T B                           |     
     |                   =====================                   |     
     |                         S. Grimme                         |     
     |          Mulliken Center for Theoretical Chemistry        |     
     |                    University of Bonn                     |     
      -----------------------------------------------------------      

   * xtb version 6.7.1 (edcfbbe) compiled by 'conda@3ef47c1a292c' on 2024-11-25

   xtb is free software: you can redistribute it and/or modify it under
   the terms of the GNU Lesser General Public License as published by
   the Free Software Foundation, either version 3 of the License, or
   (at your option) any later version.
   
   xtb is distributed in the hope that it will be useful,
   but WITHOUT ANY WARRANTY; without even the implied warranty of
   MERCHANTABILITY or FITNESS FOR A PARTICULAR PURPOSE.  See the
   GNU Lesser General Public License for more details.
   
   Cite this work as:
   * C. Bannwarth, E. Caldeweyher, S. Ehlert, A. Hansen, P. Pracht,
     J. Seibert, S. Spicher, S. Grimme, WIREs Comput. Mol. Sci., 2020, 11,
     e01493. DOI: 10.1002/wcms.1493
   
   for GFN2-xTB:
   * C. Bannwarth, S. Ehlert and S. Grimme., J. Chem. Theory Comput., 2019,
     15, 1652-1671. DOI: 10.1021/acs.jctc.8b01176
   for GFN1-xTB:
   * S. Grimme, C. Bannwarth, P. Shushkov, J. Chem. Theory Comput., 2017,
     13, 1989-2009. DOI: 10.1021/acs.jctc.7b00118
   for GFN0-xTB:
   * P. Pracht, E. Caldeweyher, S. Ehlert, S. Grimme, ChemRxiv, 2019, preprint.
     DOI: 10.26434/chemrxiv.8326202.v1
   for GFN-FF:
   * S. Spicher and S. Grimme, Angew. Chem. Int. Ed., 2020, 59, 15665-15673.
     DOI: 10.1002/anie.202004239
   
   for ALPB and GBSA implicit solvation:
   * S. Ehlert, M. Stahn, S. Spicher, S. Grimme, J. Chem. Theory Comput.,
     2021, 17, 4250-4261. DOI: 10.1021/acs.jctc.1c00471
   
   for ddCOSMO and CPCM-X implicit solvation:
   * M. Stahn, S. Ehlert, S. Grimme, J. Phys. Chem. A,
     2023, XX, XXXX-XXXX. DOI: 10.1021/acs.jpca.3c04382
   
   for DFT-D4:
   * E. Caldeweyher, C. Bannwarth and S. Grimme, J. Chem. Phys., 2017,
     147, 034112. DOI: 10.1063/1.4993215
   * E. Caldeweyher, S. Ehlert, A. Hansen, H. Neugebauer, S. Spicher,
     C. Bannwarth and S. Grimme, J. Chem. Phys., 2019, 150, 154122.
     DOI: 10.1063/1.5090222
   * E. Caldeweyher, J.-M. Mewes, S. Ehlert and S. Grimme, Phys. Chem. Chem. Phys.
     2020, 22, 8499-8512. DOI: 10.1039/D0CP00502A
   
   for sTDA-xTB:
   * S. Grimme and C. Bannwarth, J. Chem. Phys., 2016, 145, 054103.
     DOI: 10.1063/1.4959605
   
   in the mass-spec context:
   * V. Asgeirsson, C. Bauer and S. Grimme, Chem. Sci., 2017, 8, 4879.
     DOI: 10.1039/c7sc00601b
   * J. Koopman and S. Grimme, ACS Omega 2019, 4, 12, 15120-15133.
     DOI: 10.1021/acsomega.9b02011
   
   for metadynamics refer to:
   * S. Grimme, J. Chem. Theory Comput., 2019, 155, 2847-2862
     DOI: 10.1021/acs.jctc.9b00143
   
   for SPH calculations refer to:
   * S. Spicher and S. Grimme, J. Chem. Theory Comput., 2021, 17, 1701-1714
     DOI: 10.1021/acs.jctc.0c01306
   
   for ONIOM refer to:
   * C. Plett, A. Katbashev, S. Ehlert, S. Grimme, M. Bursch,
     Phys. Chem. Chem. Phys., 2023, 25, 17860-17868. DOI: 10.1039/D3CP02178E
   
   for DIPRO refer to:
   * J. Kohn, N. Gildemeister, S. Grimme, D. Fazzi, A. Hansen,
     J. Chem. Phys., 2023, just accepted.
   
   for PTB refer to:
   * S. Grimme, M. Mueller, A. Hansen, J. Chem. Phys., 2023, 158, 124111.
     DOI: 10.1063/5.0137838
   
   with help from (in alphabetical order)
   P. Atkinson, C. Bannwarth, F. Bohle, G. Brandenburg, E. Caldeweyher
   M. Checinski, S. Dohm, S. Ehlert, S. Ehrlich, I. Gerasimov, C. Hölzer
   A. Katbashev, J. Kohn, J. Koopman, C. Lavigne, S. Lehtola, F. März, M. Müller,
   F. Musil, H. Neugebauer, J. Pisarek, C. Plett, P. Pracht, F. Pultar,
   J. Seibert, P. Shushkov, S. Spicher, M. Stahn, M. Steiner, T. Strunk,
   J. Stückrath, T. Rose, and J. Unsleber
   
 * started run on 2025/05/15 at 16:11:18.405     
   ID    Z sym.   atoms
    1    7 N      1, 3, 5
    2    6 C      2, 4, 6, 7, 9, 11, 13, 14
    3   16 S      8
    4    8 O      10, 12, 15
    5    1 H      16-26

           -------------------------------------------------
          |                Calculation Setup                |
           -------------------------------------------------

          program call               : xtb /rds/general/user/hgt20/home/callum/QDESCP/Lamivudine_rdkit_conf_1/Lamivudine_rdkit_conf_1.xyz --acc 1 --gfn 2 --chrg 0 --uhf 0 --etemp 300 --input /rds/general/user/hgt20/home/callum/QDESCP/Lamivudine_rdkit_conf_1/Lamivudine_rdkit_conf_1_xtb.inp -P 1
          hostname                   : login-c
          coordinate file            : /rds/general/user/hgt20/home/callum/QDESCP/Lamivudine_rdkit_conf_1/Lamivudine_rdkit_conf_1.xyz
          omp threads                :                     1


           -------------------------------------------------
          |                 G F N 2 - x T B                 |
           -------------------------------------------------

        Reference                      10.1021/acs.jctc.8b01176
      * Hamiltonian:
        H0-scaling (s, p, d)           1.850000    2.230000    2.230000
        zeta-weighting                 0.500000
      * Dispersion:
        s8                             2.700000
        a1                             0.520000
        a2                             5.000000
        s9                             5.000000
      * Repulsion:
        kExp                           1.500000    1.000000
        rExp                           1.000000
      * Coulomb:
        alpha                          2.000000
        third order                    shell-resolved
        anisotropic                    true
        a3                             3.000000
        a5                             4.000000
        cn-shift                       1.200000
        cn-exp                         4.000000
        max-rad                        5.000000

q/qsh data taken from xtbrestart
CAMM data taken from xtbrestart

          ...................................................
          :                      SETUP                      :
          :.................................................:
          :  # basis functions                  77          :
          :  # atomic orbitals                  76          :
          :  # shells                           42          :
          :  # electrons                        82          :
          :  max. iterations                   250          :
          :  Hamiltonian                  GFN2-xTB          :
          :  restarted?                       true          :
          :  GBSA solvation                  false          :
          :  PC potential                    false          :
          :  electronic temp.          300.0000000     K    :
          :  accuracy                    1.0000000          :
          :  -> integral cutoff          0.2500000E+02      :
          :  -> integral neglect         0.1000000E-07      :
          :  -> SCF convergence          0.1000000E-05 Eh   :
          :  -> wf. convergence          0.1000000E-03 e    :
          :  Broyden damping             0.4000000          :
          :  net charge                          0          :
          :  unpaired electrons                  0          :
          ...................................................

 iter      E             dE          RMSdq      gap      omega  full diag
   1    -47.4714576 -0.474715E+02  0.595E-06    3.07       0.0  T
   2    -47.4714576 -0.234479E-12  0.418E-06    3.07    4687.0  T
   3    -47.4714576 -0.305533E-12  0.210E-06    3.07    9322.5  T

   *** convergence criteria satisfied after 3 iterations ***

         #    Occupation            Energy/Eh            Energy/eV
      -------------------------------------------------------------
         1        2.0000           -0.7513860             -20.4463
       ...           ...                  ...                  ...
        35        2.0000           -0.4450295             -12.1099
        36        2.0000           -0.4291386             -11.6775
        37        2.0000           -0.4134635             -11.2509
        38        2.0000           -0.4092531             -11.1363
        39        2.0000           -0.3985573             -10.8453
        40        2.0000           -0.3838233             -10.4444
        41        2.0000           -0.3806310             -10.3575 (HOMO)
        42                         -0.2678864              -7.2896 (LUMO)
        43                         -0.2367754              -6.4430
        44                         -0.2193137              -5.9678
        45                         -0.1603612              -4.3637
        46                         -0.1218198              -3.3149
       ...                                ...                  ...
        76                          0.6760039              18.3950
      -------------------------------------------------------------
                  HL-Gap            0.1127446 Eh            3.0679 eV
             Fermi-level           -0.3242587 Eh           -8.8235 eV

 SCC (total)                   0 d,  0 h,  0 min,  0.020 sec
 SCC setup                      ...        0 min,  0.000 sec (  1.100%)
 Dispersion                     ...        0 min,  0.000 sec (  0.919%)
 classical contributions        ...        0 min,  0.000 sec (  0.315%)
 integral evaluation            ...        0 min,  0.004 sec ( 21.774%)
 iterations                     ...        0 min,  0.004 sec ( 21.495%)
 molecular gradient             ...        0 min,  0.011 sec ( 53.713%)
 printout                       ...        0 min,  0.000 sec (  0.653%)

         :::::::::::::::::::::::::::::::::::::::::::::::::::::
         ::                     SUMMARY                     ::
         :::::::::::::::::::::::::::::::::::::::::::::::::::::
         :: total energy             -46.983138081467 Eh    ::
         :: gradient norm              0.000398621299 Eh/a0 ::
         :: HOMO-LUMO gap              3.067936925836 eV    ::
         ::.................................................::
         :: SCC energy               -47.471409837835 Eh    ::
         :: -> isotropic ES            0.103502566835 Eh    ::
         :: -> anisotropic ES          0.000663957624 Eh    ::
         :: -> anisotropic XC          0.013415968931 Eh    ::
         :: -> dispersion             -0.025930291823 Eh    ::
         :: repulsion energy           0.488271756368 Eh    ::
         :: add. restraining           0.000000000000 Eh    ::
         :: total charge              -0.000000000000 e     ::
         :::::::::::::::::::::::::::::::::::::::::::::::::::::

           -------------------------------------------------
          |                Property Printout                |
           -------------------------------------------------

    * Orbital Energies and Occupations

         #    Occupation            Energy/Eh            Energy/eV
      -------------------------------------------------------------
         1        2.0000           -0.7513860             -20.4463
       ...           ...                  ...                  ...
        29        2.0000           -0.5004554             -13.6181
        30        2.0000           -0.4956843             -13.4883
        31        2.0000           -0.4907994             -13.3553
        32        2.0000           -0.4863573             -13.2345
        33        2.0000           -0.4778463             -13.0029
        34        2.0000           -0.4625335             -12.5862
        35        2.0000           -0.4450295             -12.1099
        36        2.0000           -0.4291386             -11.6775
        37        2.0000           -0.4134635             -11.2509
        38        2.0000           -0.4092531             -11.1363
        39        2.0000           -0.3985573             -10.8453
        40        2.0000           -0.3838233             -10.4444
        41        2.0000           -0.3806310             -10.3575 (HOMO)
        42                         -0.2678864              -7.2896 (LUMO)
        43                         -0.2367754              -6.4430
        44                         -0.2193137              -5.9678
        45                         -0.1603612              -4.3637
        46                         -0.1218198              -3.3149
        47                         -0.0437684              -1.1910
        48                         -0.0366959              -0.9985
        49                         -0.0163685              -0.4454
        50                         -0.0122729              -0.3340
        51                         -0.0019045              -0.0518
        52                          0.0309168               0.8413
       ...                                ...                  ...
        76                          0.6760039              18.3950
      -------------------------------------------------------------
                  HL-Gap            0.1127446 Eh            3.0679 eV
             Fermi-level           -0.3242587 Eh           -8.8235 eV

     #   Z          covCN         q      C6AA      α(0)
     1   7 N        2.655    -0.236    26.166     7.597
     2   6 C        2.869     0.186    24.023     8.034
     3   7 N        1.851    -0.311    28.910     7.969
     4   6 C        2.736     0.336    21.296     7.556
     5   7 N        2.748    -0.101    23.218     7.156
     6   6 C        3.834     0.198    17.450     5.943
     7   6 C        3.796    -0.016    20.871     6.505
     8  16 S        2.071    -0.210   149.997    20.613
     9   6 C        3.779     0.150    18.194     6.077
    10   8 O        1.723    -0.298    18.955     5.878
    11   6 C        3.698     0.077    19.451     6.308
    12   8 O        1.656    -0.421    21.258     6.224
    13   6 C        2.861     0.051    26.851     8.494
    14   6 C        2.911    -0.098    30.463     9.050
    15   8 O        0.859    -0.447    22.643     6.380
    16   1 H        0.860     0.204     1.086     1.632
    17   1 H        0.861     0.186     1.179     1.701
    18   1 H        0.923     0.057     2.233     2.337
    19   1 H        0.925     0.073     2.050     2.239
    20   1 H        0.924     0.054     2.274     2.358
    21   1 H        0.923     0.027     2.624     2.533
    22   1 H        0.924     0.071     2.080     2.255
    23   1 H        0.923     0.036     2.508     2.477
    24   1 H        0.805     0.305     0.706     1.320
    25   1 H        0.926     0.076     2.015     2.220
    26   1 H        0.926     0.050     2.325     2.384

 Mol. C6AA /au·bohr⁶  :       8766.173535
 Mol. C8AA /au·bohr⁸  :     223122.657188
 Mol. α(0) /au        :        143.241473


Wiberg/Mayer (AO) data.
largest (>0.10) Wiberg bond orders for each atom

 ---------------------------------------------------------------------------
     #   Z sym  total        # sym  WBO       # sym  WBO       # sym  WBO
 ---------------------------------------------------------------------------
     1   7 N    3.389 --     2 C    1.272    17 H    0.948    16 H    0.939
                             3 N    0.105
     2   6 C    3.966 --     3 N    1.415     1 N    1.272    14 C    1.175
     3   7 N    3.051 --     2 C    1.415     4 C    1.246    15 O    0.121
                             1 N    0.105
     4   6 C    3.949 --    15 O    1.652     3 N    1.246     5 N    0.964
     5   7 N    3.571 --    13 C    1.262     6 C    0.984     4 C    0.964
                            15 O    0.123
     6   6 C    3.936 --     5 N    0.984    10 O    0.973     7 C    0.961
                            18 H    0.945
     7   6 C    3.976 --     8 S    1.005    20 H    0.976    19 H    0.973
                             6 C    0.961
     8  16 S    2.071 --     7 C    1.005     9 C    0.917
     9   6 C    3.934 --    10 O    1.011    11 C    0.982    21 H    0.959
                             8 S    0.917
    10   8 O    2.140 --     9 C    1.011     6 C    0.973
    11   6 C    3.966 --    12 O    1.024     9 C    0.982    23 H    0.965
                            22 H    0.961
    12   8 O    1.976 --    11 C    1.024    24 H    0.883
    13   6 C    3.963 --    14 C    1.600     5 N    1.262    25 H    0.955
    14   6 C    3.972 --    13 C    1.600     2 C    1.175    26 H    0.967
    15   8 O    2.004 --     4 C    1.652     5 N    0.123     3 N    0.121
    16   1 H    0.958 --     1 N    0.939
    17   1 H    0.964 --     1 N    0.948
    18   1 H    0.996 --     6 C    0.945
    19   1 H    0.994 --     7 C    0.973
    20   1 H    0.997 --     7 C    0.976
    21   1 H    0.999 --     9 C    0.959
    22   1 H    0.995 --    11 C    0.961
    23   1 H    0.998 --    11 C    0.965
    24   1 H    0.907 --    12 O    0.883
    25   1 H    0.993 --    13 C    0.955
    26   1 H    0.997 --    14 C    0.967
 ---------------------------------------------------------------------------

Topologies differ in total number of bonds
Writing topology from bond orders to xtbtopo.mol

molecular dipole:
                 x           y           z       tot (Debye)
 q only:        0.940      -0.722      -1.405
   full:        1.078      -0.616      -1.619       5.186
[...]
     |          Mulliken Center for Theoretical Chemistry        |     
     |                    University of Bonn                     |     
      -----------------------------------------------------------      

   * xtb version 6.7.1 (edcfbbe) compiled by 'conda@3ef47c1a292c' on 2024-11-25

   xtb is free software: you can redistribute it and/or modify it under
   the terms of the GNU Lesser General Public License as published by
   the Free Software Foundation, either version 3 of the License, or
   (at your option) any later version.
   
   xtb is distributed in the hope that it will be useful,
   but WITHOUT ANY WARRANTY; without even the implied warranty of
   MERCHANTABILITY or FITNESS FOR A PARTICULAR PURPOSE.  See the
   GNU Lesser General Public License for more details.
   
   Cite this work as:
   * C. Bannwarth, E. Caldeweyher, S. Ehlert, A. Hansen, P. Pracht,
     J. Seibert, S. Spicher, S. Grimme, WIREs Comput. Mol. Sci., 2020, 11,
     e01493. DOI: 10.1002/wcms.1493
   
   for GFN2-xTB:
   * C. Bannwarth, S. Ehlert and S. Grimme., J. Chem. Theory Comput., 2019,
     15, 1652-1671. DOI: 10.1021/acs.jctc.8b01176
   for GFN1-xTB:
   * S. Grimme, C. Bannwarth, P. Shushkov, J. Chem. Theory Comput., 2017,
     13, 1989-2009. DOI: 10.1021/acs.jctc.7b00118
   for GFN0-xTB:
   * P. Pracht, E. Caldeweyher, S. Ehlert, S. Grimme, ChemRxiv, 2019, preprint.
     DOI: 10.26434/chemrxiv.8326202.v1
   for GFN-FF:
   * S. Spicher and S. Grimme, Angew. Chem. Int. Ed., 2020, 59, 15665-15673.
     DOI: 10.1002/anie.202004239
   
   for ALPB and GBSA implicit solvation:
   * S. Ehlert, M. Stahn, S. Spicher, S. Grimme, J. Chem. Theory Comput.,
     2021, 17, 4250-4261. DOI: 10.1021/acs.jctc.1c00471
   
   for ddCOSMO and CPCM-X implicit solvation:
   * M. Stahn, S. Ehlert, S. Grimme, J. Phys. Chem. A,
     2023, XX, XXXX-XXXX. DOI: 10.1021/acs.jpca.3c04382
   
   for DFT-D4:
   * E. Caldeweyher, C. Bannwarth and S. Grimme, J. Chem. Phys., 2017,
     147, 034112. DOI: 10.1063/1.4993215
   * E. Caldeweyher, S. Ehlert, A. Hansen, H. Neugebauer, S. Spicher,
     C. Bannwarth and S. Grimme, J. Chem. Phys., 2019, 150, 154122.
     DOI: 10.1063/1.5090222
   * E. Caldeweyher, J.-M. Mewes, S. Ehlert and S. Grimme, Phys. Chem. Chem. Phys.
     2020, 22, 8499-8512. DOI: 10.1039/D0CP00502A
   
   for sTDA-xTB:
   * S. Grimme and C. Bannwarth, J. Chem. Phys., 2016, 145, 054103.
     DOI: 10.1063/1.4959605
   
   in the mass-spec context:
   * V. Asgeirsson, C. Bauer and S. Grimme, Chem. Sci., 2017, 8, 4879.
     DOI: 10.1039/c7sc00601b
   * J. Koopman and S. Grimme, ACS Omega 2019, 4, 12, 15120-15133.
     DOI: 10.1021/acsomega.9b02011
   
   for metadynamics refer to:
   * S. Grimme, J. Chem. Theory Comput., 2019, 155, 2847-2862
     DOI: 10.1021/acs.jctc.9b00143
   
   for SPH calculations refer to:
   * S. Spicher and S. Grimme, J. Chem. Theory Comput., 2021, 17, 1701-1714
     DOI: 10.1021/acs.jctc.0c01306
   
   for ONIOM refer to:
   * C. Plett, A. Katbashev, S. Ehlert, S. Grimme, M. Bursch,
     Phys. Chem. Chem. Phys., 2023, 25, 17860-17868. DOI: 10.1039/D3CP02178E
   
   for DIPRO refer to:
   * J. Kohn, N. Gildemeister, S. Grimme, D. Fazzi, A. Hansen,
     J. Chem. Phys., 2023, just accepted.
   
   for PTB refer to:
   * S. Grimme, M. Mueller, A. Hansen, J. Chem. Phys., 2023, 158, 124111.
     DOI: 10.1063/5.0137838
   
   with help from (in alphabetical order)
   P. Atkinson, C. Bannwarth, F. Bohle, G. Brandenburg, E. Caldeweyher
   M. Checinski, S. Dohm, S. Ehlert, S. Ehrlich, I. Gerasimov, C. Hölzer
   A. Katbashev, J. Kohn, J. Koopman, C. Lavigne, S. Lehtola, F. März, M. Müller,
   F. Musil, H. Neugebauer, J. Pisarek, C. Plett, P. Pracht, F. Pultar,
   J. Seibert, P. Shushkov, S. Spicher, M. Stahn, M. Steiner, T. Strunk,
   J. Stückrath, T. Rose, and J. Unsleber
   
 * started run on 2025/05/15 at 16:11:20.094     
   ID    Z sym.   atoms
    1    7 N      1, 3, 5
    2    6 C      2, 4, 6, 7, 9, 11, 13, 14
    3   16 S      8
    4    8 O      10, 12, 15
    5    1 H      16-26

           -------------------------------------------------
          |                Calculation Setup                |
           -------------------------------------------------

          program call               : xtb /rds/general/user/hgt20/home/callum/QDESCP/Lamivudine_rdkit_conf_1/Lamivudine_rdkit_conf_1.xyz --acc 1 --gfn 2 --chrg 0 --uhf 2 --etemp 300 --input /rds/general/user/hgt20/home/callum/QDESCP/Lamivudine_rdkit_conf_1/Lamivudine_rdkit_conf_1_xtb.inp -P 1
          hostname                   : login-c
          coordinate file            : /rds/general/user/hgt20/home/callum/QDESCP/Lamivudine_rdkit_conf_1/Lamivudine_rdkit_conf_1.xyz
          omp threads                :                     1


           -------------------------------------------------
          |                 G F N 2 - x T B                 |
           -------------------------------------------------

        Reference                      10.1021/acs.jctc.8b01176
      * Hamiltonian:
        H0-scaling (s, p, d)           1.850000    2.230000    2.230000
        zeta-weighting                 0.500000
      * Dispersion:
        s8                             2.700000
        a1                             0.520000
        a2                             5.000000
        s9                             5.000000
      * Repulsion:
        kExp                           1.500000    1.000000
        rExp                           1.000000
      * Coulomb:
        alpha                          2.000000
        third order                    shell-resolved
        anisotropic                    true
        a3                             3.000000
        a5                             4.000000
        cn-shift                       1.200000
        cn-exp                         4.000000
        max-rad                        5.000000


          ...................................................
          :                      SETUP                      :
          :.................................................:
          :  # basis functions                  77          :
          :  # atomic orbitals                  76          :
          :  # shells                           42          :
          :  # electrons                        82          :
          :  max. iterations                   250          :
          :  Hamiltonian                  GFN2-xTB          :
          :  restarted?                      false          :
          :  GBSA solvation                  false          :
          :  PC potential                    false          :
          :  electronic temp.          300.0000000     K    :
          :  accuracy                    1.0000000          :
          :  -> integral cutoff          0.2500000E+02      :
          :  -> integral neglect         0.1000000E-07      :
          :  -> SCF convergence          0.1000000E-05 Eh   :
          :  -> wf. convergence          0.1000000E-03 e    :
          :  Broyden damping             0.4000000          :
          :  net charge                          0          :
          :  unpaired electrons                  2          :
          ...................................................

 iter      E             dE          RMSdq      gap      omega  full diag
   1    -47.1009971 -0.471010E+02  0.512E+00    0.39       0.0  T
   2    -47.1333144 -0.323174E-01  0.373E+00    1.35       1.0  T
   3    -47.0039847  0.129330E+00  0.358E+00    1.31       1.0  T
   4    -47.2963453 -0.292361E+00  0.208E+00    0.80       1.0  T
   5    -47.2593949  0.369504E-01  0.181E+00    0.39       1.0  T
   6    -47.1691795  0.902154E-01  0.219E+00    0.38       1.0  T
   7    -47.1862682 -0.170887E-01  0.252E+00    0.77       1.0  T
   8    -47.2940196 -0.107751E+00  0.129E+00    0.48       1.0  T
   9    -47.2565597  0.374599E-01  0.136E+00    0.36       1.0  T
  10    -47.3154644 -0.589047E-01  0.104E+00    0.38       1.0  T
  11    -47.3328677 -0.174033E-01  0.792E-01    0.43       1.0  T
  12    -47.3393853 -0.651760E-02  0.168E-01    0.44       1.0  T
  13    -47.3182599  0.211255E-01  0.952E-01    0.46       1.0  T
  14    -47.3307243 -0.124644E-01  0.745E-01    0.41       1.0  T
  15    -47.3370966 -0.637234E-02  0.477E-01    0.42       1.0  T
  16    -47.3397113 -0.261470E-02  0.164E-01    0.43       1.0  T
  17    -47.3394503  0.261021E-03  0.278E-01    0.42       1.0  T
  18    -47.3405899 -0.113963E-02  0.332E-02    0.43       1.0  T
  19    -47.3405695  0.204077E-04  0.781E-02    0.42       1.0  T
  20    -47.3406306 -0.610185E-04  0.177E-02    0.42       1.1  T
  21    -47.3406438 -0.131970E-04  0.467E-03    0.42       4.2  T
  22    -47.3406432  0.553480E-06  0.724E-03    0.42       2.7  T
  23    -47.3406444 -0.123142E-05  0.124E-03    0.42      15.8  T
  24    -47.3406443  0.120569E-06  0.293E-03    0.42       6.7  T
  25    -47.3406445 -0.143439E-06  0.441E-04    0.42      44.4  T
  26    -47.3406445 -0.155618E-08  0.822E-05    0.42     238.7  T

   *** convergence criteria satisfied after 26 iterations ***

         #    Occupation            Energy/Eh            Energy/eV
      -------------------------------------------------------------
         1        2.0000           -0.7508652             -20.4321
       ...           ...                  ...                  ...
        36        2.0000           -0.4312430             -11.7347
        37        2.0000           -0.4208101             -11.4508
        38        2.0000           -0.4089417             -11.1279
        39        1.8409           -0.3962862             -10.7835
        40        1.6008           -0.3950929             -10.7510
        41        1.5584           -0.3949275             -10.7465
        42        0.9997           -0.2532879              -6.8923 (HOMO)
        43        0.0003           -0.2378151              -6.4713 (LUMO)
        44                         -0.2172968              -5.9129
        45                         -0.1702498              -4.6327
        46                         -0.1155192              -3.1434
        47                         -0.0449990              -1.2245
       ...                                ...                  ...
        76                          0.6728503              18.3092
      -------------------------------------------------------------
                  HL-Gap            0.0154728 Eh            0.4210 eV
             Fermi-level           -0.3201281 Eh           -8.7111 eV

 transition dipole moment (au) for excitation:          41          42
     X       Y       Z   
  -1.0782  -0.0558  -0.0360  total (au/Debye):    1.080   2.746
 dE (eV)             :    3.854
 oscillator strength :  0.15582E+00

 SCC (total)                   0 d,  0 h,  0 min,  0.095 sec
 SCC setup                      ...        0 min,  0.000 sec (  0.207%)
 Dispersion                     ...        0 min,  0.000 sec (  0.198%)
 classical contributions        ...        0 min,  0.000 sec (  0.065%)
 integral evaluation            ...        0 min,  0.004 sec (  4.471%)
 iterations                     ...        0 min,  0.027 sec ( 28.834%)
 molecular gradient             ...        0 min,  0.058 sec ( 61.486%)
 printout                       ...        0 min,  0.004 sec (  4.733%)

         :::::::::::::::::::::::::::::::::::::::::::::::::::::
         ::                     SUMMARY                     ::
         :::::::::::::::::::::::::::::::::::::::::::::::::::::
         :: total energy             -46.852324944003 Eh    ::
         :: gradient norm              0.100780897415 Eh/a0 ::
         :: HOMO-LUMO gap              0.421037206533 eV    ::
         ::.................................................::
         :: SCC energy               -47.340596700370 Eh    ::
         :: -> isotropic ES            0.093427307003 Eh    ::
         :: -> anisotropic ES          0.000877336477 Eh    ::
         :: -> anisotropic XC          0.006855322994 Eh    ::
         :: -> dispersion             -0.025940419464 Eh    ::
         :: repulsion energy           0.488271756368 Eh    ::
         :: add. restraining           0.000000000000 Eh    ::
         :: total charge               0.000000000012 e     ::
         :::::::::::::::::::::::::::::::::::::::::::::::::::::

           -------------------------------------------------
          |                Property Printout                |
           -------------------------------------------------

    * Orbital Energies and Occupations

         #    Occupation            Energy/Eh            Energy/eV
      -------------------------------------------------------------
         1        2.0000           -0.7508652             -20.4321
       ...           ...                  ...                  ...
        30        2.0000           -0.4926023             -13.4044
        31        2.0000           -0.4846070             -13.1868
        32        2.0000           -0.4836768             -13.1615
        33        2.0000           -0.4735698             -12.8865
        34        2.0000           -0.4643132             -12.6346
        35        2.0000           -0.4450030             -12.1091
        36        2.0000           -0.4312430             -11.7347
        37        2.0000           -0.4208101             -11.4508
        38        2.0000           -0.4089417             -11.1279
        39        1.8409           -0.3962862             -10.7835
        40        1.6008           -0.3950929             -10.7510
        41        1.5584           -0.3949275             -10.7465
        42        0.9997           -0.2532879              -6.8923 (HOMO)
        43        0.0003           -0.2378151              -6.4713 (LUMO)
        44                         -0.2172968              -5.9129
        45                         -0.1702498              -4.6327
        46                         -0.1155192              -3.1434
        47                         -0.0449990              -1.2245
        48                         -0.0409920              -1.1154
        49                         -0.0249784              -0.6797
        50                         -0.0163398              -0.4446
        51                          0.0064275               0.1749
        52                          0.0326778               0.8892
        53                          0.0431314               1.1737
       ...                                ...                  ...
        76                          0.6728503              18.3092
      -------------------------------------------------------------
                  HL-Gap            0.0154728 Eh            0.4210 eV
             Fermi-level           -0.3201281 Eh           -8.7111 eV

     #   Z          covCN         q      C6AA      α(0)
     1   7 N        2.655    -0.246    26.402     7.631
     2   6 C        2.869     0.139    24.958     8.189
     3   7 N        1.851    -0.259    27.579     7.783
     4   6 C        2.736     0.331    21.376     7.570
     5   7 N        2.748    -0.095    23.098     7.138
     6   6 C        3.834     0.198    17.452     5.944
     7   6 C        3.796    -0.030    21.108     6.542
     8  16 S        2.071    -0.157   147.693    20.454
     9   6 C        3.779     0.137    18.381     6.108
    10   8 O        1.723    -0.297    18.932     5.875
    11   6 C        3.698     0.078    19.444     6.307
    12   8 O        1.656    -0.418    21.194     6.215
    13   6 C        2.861    -0.008    28.207     8.705
    14   6 C        2.911    -0.073    29.814     8.953
    15   8 O        0.859    -0.425    22.195     6.316
    16   1 H        0.860     0.193     1.143     1.675
    17   1 H        0.861     0.178     1.223     1.733
    18   1 H        0.923     0.053     2.284     2.363
    19   1 H        0.925     0.074     2.038     2.232
    20   1 H        0.924     0.062     2.176     2.307
    21   1 H        0.923     0.029     2.601     2.522
    22   1 H        0.924     0.073     2.055     2.242
    23   1 H        0.923     0.037     2.492     2.469
    24   1 H        0.805     0.303     0.711     1.325
    25   1 H        0.926     0.068     2.110     2.272
    26   1 H        0.926     0.053     2.286     2.364

 Mol. C6AA /au·bohr⁶  :       8763.368776
 Mol. C8AA /au·bohr⁸  :     222970.355926
 Mol. α(0) /au        :        143.234156


Wiberg/Mayer (AO) data.
largest (>0.10) Wiberg bond orders for each atom

 ---------------------------------------------------------------------------
     #   Z sym  total        # sym  WBO       # sym  WBO       # sym  WBO
 ---------------------------------------------------------------------------
     1   7 N    3.261 --     2 C    1.201    17 H    0.951    16 H    0.944
     2   6 C    3.835 --     3 N    1.267    14 C    1.217     1 N    1.201
     3   7 N    2.911 --     4 C    1.289     2 C    1.267    15 O    0.162
     4   6 C    3.940 --    15 O    1.614     3 N    1.289     5 N    0.938
     5   7 N    3.389 --    13 C    1.181     6 C    0.998     4 C    0.938
     6   6 C    3.931 --     5 N    0.998    10 O    0.968     7 C    0.949
                            18 H    0.944
     7   6 C    3.956 --    19 H    0.970    20 H    0.968     8 S    0.964
                             6 C    0.949
     8  16 S    2.083 --     7 C    0.964     9 C    0.862
     9   6 C    3.905 --    10 O    1.012    11 C    0.978    21 H    0.952
                             8 S    0.862
    10   8 O    2.137 --     9 C    1.012     6 C    0.968
    11   6 C    3.958 --    12 O    1.024     9 C    0.978    23 H    0.964
                            22 H    0.961
    12   8 O    1.976 --    11 C    1.024    24 H    0.884
    13   6 C    3.820 --    14 C    1.404     5 N    1.181    25 H    0.943
    14   6 C    3.750 --    13 C    1.404     2 C    1.217    26 H    0.962
    15   8 O    1.950 --     4 C    1.614     3 N    0.162
    16   1 H    0.961 --     1 N    0.944
    17   1 H    0.967 --     1 N    0.951
    18   1 H    0.992 --     6 C    0.944
    19   1 H    0.989 --     7 C    0.970
    20   1 H    0.986 --     7 C    0.968
    21   1 H    0.990 --     9 C    0.952
    22   1 H    0.994 --    11 C    0.961
    23   1 H    0.997 --    11 C    0.964
    24   1 H    0.908 --    12 O    0.884
    25   1 H    0.978 --    13 C    0.943
    26   1 H    0.990 --    14 C    0.962
 ---------------------------------------------------------------------------

Topologies differ in total number of bonds
Writing topology from bond orders to xtbtopo.mol

molecular dipole:
                 x           y           z       tot (Debye)
 q only:        0.447      -0.701      -1.066
   full:        0.747      -0.502      -1.198       3.809
molecular quadrupole (traceless):
                xx          xy          yy          xz          yz          zz
 q only:       21.492      -6.688      -5.822     -10.152      -6.465     -15.670
  q+dip:       18.942     -11.463      -2.663     -12.087      -6.357     -16.278
   full:       18.975     -11.413      -2.209     -11.983      -7.810     -16.766


           -------------------------------------------------
          | TOTAL ENERGY              -46.852324944003 Eh   |
          | GRADIENT NORM               0.100780897415 Eh/α |
          | HOMO-LUMO GAP               0.421037206533 eV   |
           -------------------------------------------------

------------------------------------------------------------------------
 * finished run on 2025/05/15 at 16:11:20.198     
------------------------------------------------------------------------
 total:
 * wall-time:     0 d,  0 h,  0 min,  0.104 sec
 *  cpu-time:     0 d,  0 h,  0 min,  0.056 sec
 * ratio c/w:     0.537 speedup
 SCF:
 * wall-time:     0 d,  0 h,  0 min,  0.095 sec
 *  cpu-time:     0 d,  0 h,  0 min,  0.048 sec
 * ratio c/w:     0.502 speedup


