38
 energy: -65.475047580913 gnorm: 0.000427527902 xtb: 6.7.1 (edcfbbe)
O           -2.04201671821992        2.30528450056788        2.13077808517445
C           -2.84204919847327        1.26263303378539        1.65084753695615
C           -2.29081602991147        0.68376457206327        0.34323262321450
O           -0.98444492140350        0.20930622516385        0.62558752170023
C           -0.32504105603496       -0.29082936358962       -0.50569209968207
C           -1.07627928441182       -1.50667696107774       -1.07301747071585
C           -2.50468263669364       -1.08416568865130       -1.42285141453828
C           -3.17537824421832       -0.44374380928260       -0.19952070510735
O           -4.42502027279649        0.09005993329634       -0.53509787562699
O           -3.28826772508351       -2.18039375170773       -1.82031619766325
O           -0.46646897060653       -1.99516271335549       -2.24037785757068
O            0.94285101056211       -0.73038271745078       -0.15173956375195
C            1.92761245211904        0.20273681826178        0.13886953971383
C            1.68806893795768        1.55620939462772        0.30793408324167
C            2.74267555326459        2.41166521159245        0.58296703682994
C            4.02908566723753        1.92046480832440        0.69596167760401
C            4.26202076696574        0.56412478214910        0.53992869076325
C            3.22586342364650       -0.30983964691724        0.25650994269690
C            3.46209251334533       -1.78904659992140        0.07647881364954
O            2.73383207852624       -2.58534374744591        0.97859519199602
H           -1.14759178922247        1.95915369657762        2.24046476827898
H           -3.83395773978486        1.67467331445375        1.46354377184952
H           -2.91569559087394        0.45205136400130        2.38821092428335
H           -2.23731254941733        1.48259330616299       -0.41320226150743
H           -0.26326875401058        0.49253749372782       -1.28954478528355
H           -1.10641517881892       -2.28372425183111       -0.29307976336514
H           -2.45569621901685       -0.34249830550185       -2.23766144083566
H           -3.28201713946807       -1.22166233879716        0.57405807276395
H           -4.90644034577807       -0.59509383926772       -1.01720667588830
H           -2.78938476457809       -2.66800179503072       -2.48697708274407
H            0.46052040588846       -2.17846840871369       -2.04540654111556
H            0.68666555430403        1.94939460814497        0.24192876585158
H            2.54660822787985        3.46500474130117        0.71271758374835
H            4.84906792202686        2.58767668167136        0.91205002241241
H            5.26408216728249        0.17369724569589        0.63506257752838
H            3.20909947361849       -2.06545595607052       -0.96198526310822
H            4.51392781758452       -2.02703027860572        0.24749982914866
H            1.81417115661237       -2.29321155835136        0.95014993909884
