48
 energy: -69.044201806076 gnorm: 0.000729303438 xtb: 6.7.1 (edcfbbe)
O           -0.79302930811335        1.25077090878992        1.64687532641200
C           -0.16186971904316        1.15970890465243        0.39095537972878
C            0.57103748292385       -0.19525732634630        0.26439120423865
N            1.33212303580852       -0.45746169693042        1.48875722323521
C            1.67810603423122       -1.87162295686855        1.52244800120865
C            2.39440395027954       -2.28593027867244        0.22006513803883
C            2.55412726151600        0.33470743261098        1.53144878830365
C            3.54248993918380       -0.07927666421200        0.41539188417854
C            4.15270926108660        1.07997443106801       -0.31993949225501
C            4.42571684605744        2.26601175723935        0.19147105669658
C            2.76653846347701       -1.00577856057885       -0.53547316171000
C            1.48485050178123       -0.28577931957182       -0.96810418027736
C           -1.13600884269082        1.30551203803060       -0.75241421966053
C           -0.80769536075300        2.12925953177778       -1.80337297425684
C           -1.64673267683756        2.19916607959955       -2.92420324267531
N           -2.74781520326197        1.51269183683996       -3.04518782616268
C           -3.11498239319657        0.71335982418551       -2.02767078600177
C           -2.34898374683629        0.57238441273504       -0.83462361624363
C           -2.82714532284894       -0.27257791035634        0.18756365254671
C           -4.00567390170933       -0.96018072261301        0.03372224087985
O           -4.55249045085235       -1.78906203049771        0.96466905568502
C           -3.89818175579099       -1.92714788142114        2.20291280950505
C           -4.74899779214071       -0.83549153142847       -1.16301611179835
C           -4.31663241567900       -0.01802319844938       -2.16109328931913
H           -0.20345558992372        0.81029243840185        2.27730545337006
H            0.57771028219390        1.97467000126390        0.30282116583655
H           -0.19908442142487       -0.97218619741999        0.21272141424570
H            0.76013609555892       -2.44702499392380        1.66804467362704
H            2.31695321130344       -2.03493179503159        2.39311962379569
H            1.74210703257615       -2.89812072382191       -0.40486921668614
H            3.29047173286392       -2.86772918820322        0.44017344257145
H            2.28185969457170        1.38494232485930        1.42671316168841
H            2.99972302426263        0.20174428279497        2.52063612988840
H            4.36732534427204       -0.65717036356962        0.85264092867652
H            4.40608664960980        0.87506158503118       -1.35350359051577
H            4.88550877143626        3.04030819219622       -0.39886667874778
H            4.21637039852316        2.51979358739684        1.21742469405766
H            3.37740790686845       -1.24913757419097       -1.40930628843965
H            1.73690667991178        0.71086859479981       -1.33593953237094
H            0.98718618920863       -0.82504181814931       -1.77488114612853
H            0.09621522659938        2.72035437872582       -1.77870966855372
H           -1.39277432339691        2.84109605415802       -3.75826676473207
H           -2.26588999695262       -0.32789303587012        1.10388434520716
H           -2.91040392159152       -2.38483062330351        2.08489315676472
H           -3.79174738554713       -0.96344519923518        2.70999308486363
H           -4.52994806052132       -2.58335257907852        2.79919566256113
H           -5.66687685798122       -1.39629548643422       -1.24620489722715
H           -4.87765156900713        0.10207105901519       -3.07429201404227
