42
 energy: -71.299495472026 gnorm: 0.000340896908 xtb: 6.7.1 (edcfbbe)
O           -5.45064630835881        3.15128092690663       -0.86480923265431
C           -5.10573564212380        2.02799745497188       -0.62112604894730
O           -6.02317126171142        1.04727755926365       -0.39948361071829
C           -3.72570693619278        1.52961926628115       -0.50739891649958
C           -3.49104056141112        0.37167245663622        0.16639172014940
N           -2.27239708449654       -0.17353805089685        0.34977789463101
C           -1.14447789790943        0.49349419715047       -0.10451656027126
C            0.13180071648069       -0.00013621744853        0.15301624518902
C            1.28914669900438        0.63949481287654       -0.30339842416073
N            2.52370840962316        0.11265888842890       -0.06986627688938
C            3.73352805977957        0.91372019360584       -0.05996809102089
C            4.71718421884610        0.31847075294967        0.95156410661039
N            5.10311398942011       -1.04756826772810        0.63232357872787
C            4.07029616402511       -1.75714087132038       -0.11013610283948
C            2.68824348937383       -1.27259713292937        0.31622930793925
C            1.08868967955728        1.83060942784117       -1.03747149344692
F            2.15173800137503        2.49081391239225       -1.56731705718030
C           -0.15621864574345        2.34124371263753       -1.27689057499421
C           -1.30459974599077        1.68968340876751       -0.81978799801190
C           -2.62075936793457        2.28005617221395       -1.11356675470616
O           -2.74723313163301        3.27497772305475       -1.80165747164965
C           -2.15673647635241       -1.41225102260115        1.06097219697762
C           -1.66970557746222       -2.63371485686763        0.33337026556158
C           -3.10485016953399       -2.52931017458971        0.74412691925379
H           -6.90886712888978        1.43116938148008       -0.48838483604888
H           -4.31512256451534       -0.16912826331087        0.60905580714040
H            0.23557575583412       -0.89330965653942        0.74220816296307
H            3.49721118015270        1.93659994439141        0.23640813880369
H            4.19377810807851        0.94345420016599       -1.05682128168461
H            5.60656898734055        0.94647447937762        1.01244757685363
H            4.24334791115892        0.31548345602234        1.94046619673152
H            5.97164248741376       -1.06982379506356        0.11109615391130
H            4.16688036603644       -2.82562173577760        0.10703248380499
H            4.15957895843176       -1.62435635268012       -1.19972206064221
H            1.93111592462283       -1.87523378024032       -0.19233640370533
H            2.57776475842694       -1.40884804194651        1.40062127321438
H           -0.27405584192416        3.25104522337101       -1.84487476189713
H           -1.85171097093245       -1.28619173084985        2.09627543335653
H           -1.02238672993089       -3.31929855918911        0.85856838183759
H           -1.44054242282087       -2.52871067894306       -0.71584437811046
H           -3.83577991543550       -2.37177084637859       -0.03336432247070
H           -3.45936948367867       -3.13874751548681        1.56069081489269
