51
 energy: -84.105104329645 gnorm: 0.000297761584 xtb: 6.7.1 (edcfbbe)
F           -6.99931882684977        2.79953044422573       -2.68907580809157
C           -6.28552544500009        2.10039675692660       -1.78645736447880
C           -6.30461586749298        0.71741049687865       -1.84404808836433
C           -5.56438659959126       -0.00080911455288       -0.92430055290570
C           -4.81847236951368        0.65792451905316        0.05136854648850
C           -4.83851626130049        2.05168828194579        0.09661073060178
C           -5.56152504097244        2.78288050542918       -0.82479908879385
C           -4.01459416373791       -0.05093415219496        1.08812878726914
C           -3.39422129525682       -1.37588093304781        0.67669673573277
C           -2.54211597617187       -1.97562628930426        1.79713634808952
C           -1.24511992919031       -1.19442516073657        1.99430613989570
N           -0.50085813793520       -1.14639014902601        0.74841445417407
C           -1.26575940088701       -0.43815373064242       -0.25856196084494
C           -2.53051888721932       -1.22714679264927       -0.58164577917449
C            0.84661522149933       -0.63779703745506        0.89542326187236
C            1.76808093485871       -1.28318845306594       -0.14773040933667
N            3.13817305658328       -0.81825807130584        0.00591459701165
C            3.92665324132121       -1.50118332456138        0.91248996189244
N            5.21182239665951       -1.03755923690333        1.04633670781651
C            5.73642086134827        0.03528785453438        0.36786261166374
C            7.05463948169772        0.44644170122524        0.55749783377641
C            7.53968893147070        1.53055158560168       -0.14436751838189
C            6.72655928557028        2.21900615157985       -1.03899948777435
C            5.42221389209528        1.81764276433655       -1.22998159905893
C            4.91475238933786        0.72295420606355       -0.53044056205845
C            3.52738313628829        0.29306401027773       -0.73254536615295
O            2.75306969117650        0.84043504742800       -1.48832259984084
O            3.53258366008333       -2.45018494097683        1.54900370976860
O           -3.87911466878122        0.42725917606980        2.19083573443382
H           -6.89398490715774        0.22209027409220       -2.59950210870549
H           -5.59292432715474       -1.07876879632010       -0.95810506376304
H           -4.27154044865826        2.55146454217330        0.86743546180560
H           -5.57600500801018        3.86098008619709       -0.80500913907053
H           -4.22716470683681       -2.05641381177395        0.46326398714724
H           -2.29500434805520       -3.00583353130487        1.53758211014533
H           -3.10479363619853       -1.97148961149353        2.73146904620115
H           -1.47869442476311       -0.18479925466162        2.36953573598287
H           -0.63419015593572       -1.70573746587245        2.74150911146914
H           -0.65957437830347       -0.33602567669154       -1.15998730662100
H           -1.54118503346508        0.57813684368732        0.08305309874324
H           -2.23802084973529       -2.22058754927009       -0.92486318144669
H           -3.08155663829893       -0.72897277418631       -1.38038173216130
H            1.22041200918375       -0.91003989065970        1.88526782108432
H            0.89525586673861        0.45969251345359        0.79671960057046
H            1.75414875615858       -2.36520906343065       -0.01401501020162
H            1.44982530144354       -1.02302573240579       -1.15746217673734
H            5.79121282272978       -1.54220891461580        1.70390108624542
H            7.68452334943558       -0.08867959668041        1.25257109073845
H            8.56136778908249        1.84597069579069        0.00440789879760
H            7.11909586628519        3.06532076049041       -1.58051535199341
H            4.76500379144184        2.32929983834489       -1.91592495349011
