----- Optimization -----
      -----------------------------------------------------------      
     |                   =====================                   |     
     |                           x T B                           |     
     |                   =====================                   |     
     |                         S. Grimme                         |     
     |          Mulliken Center for Theoretical Chemistry        |     
     |                    University of Bonn                     |     
      -----------------------------------------------------------      

   * xtb version 6.7.1 (edcfbbe) compiled by 'conda@3ef47c1a292c' on 2024-11-25

   xtb is free software: you can redistribute it and/or modify it under
   the terms of the GNU Lesser General Public License as published by
   the Free Software Foundation, either version 3 of the License, or
   (at your option) any later version.
   
   xtb is distributed in the hope that it will be useful,
   but WITHOUT ANY WARRANTY; without even the implied warranty of
   MERCHANTABILITY or FITNESS FOR A PARTICULAR PURPOSE.  See the
   GNU Lesser General Public License for more details.
   
   Cite this work as:
   * C. Bannwarth, E. Caldeweyher, S. Ehlert, A. Hansen, P. Pracht,
     J. Seibert, S. Spicher, S. Grimme, WIREs Comput. Mol. Sci., 2020, 11,
     e01493. DOI: 10.1002/wcms.1493
   
   for GFN2-xTB:
   * C. Bannwarth, S. Ehlert and S. Grimme., J. Chem. Theory Comput., 2019,
     15, 1652-1671. DOI: 10.1021/acs.jctc.8b01176
   for GFN1-xTB:
   * S. Grimme, C. Bannwarth, P. Shushkov, J. Chem. Theory Comput., 2017,
     13, 1989-2009. DOI: 10.1021/acs.jctc.7b00118
   for GFN0-xTB:
   * P. Pracht, E. Caldeweyher, S. Ehlert, S. Grimme, ChemRxiv, 2019, preprint.
     DOI: 10.26434/chemrxiv.8326202.v1
   for GFN-FF:
   * S. Spicher and S. Grimme, Angew. Chem. Int. Ed., 2020, 59, 15665-15673.
     DOI: 10.1002/anie.202004239
   
   for ALPB and GBSA implicit solvation:
   * S. Ehlert, M. Stahn, S. Spicher, S. Grimme, J. Chem. Theory Comput.,
     2021, 17, 4250-4261. DOI: 10.1021/acs.jctc.1c00471
   
   for ddCOSMO and CPCM-X implicit solvation:
   * M. Stahn, S. Ehlert, S. Grimme, J. Phys. Chem. A,
     2023, XX, XXXX-XXXX. DOI: 10.1021/acs.jpca.3c04382
   
   for DFT-D4:
   * E. Caldeweyher, C. Bannwarth and S. Grimme, J. Chem. Phys., 2017,
     147, 034112. DOI: 10.1063/1.4993215
   * E. Caldeweyher, S. Ehlert, A. Hansen, H. Neugebauer, S. Spicher,
     C. Bannwarth and S. Grimme, J. Chem. Phys., 2019, 150, 154122.
     DOI: 10.1063/1.5090222
   * E. Caldeweyher, J.-M. Mewes, S. Ehlert and S. Grimme, Phys. Chem. Chem. Phys.
     2020, 22, 8499-8512. DOI: 10.1039/D0CP00502A
   
   for sTDA-xTB:
   * S. Grimme and C. Bannwarth, J. Chem. Phys., 2016, 145, 054103.
     DOI: 10.1063/1.4959605
   
   in the mass-spec context:
   * V. Asgeirsson, C. Bauer and S. Grimme, Chem. Sci., 2017, 8, 4879.
     DOI: 10.1039/c7sc00601b
   * J. Koopman and S. Grimme, ACS Omega 2019, 4, 12, 15120-15133.
     DOI: 10.1021/acsomega.9b02011
   
   for metadynamics refer to:
   * S. Grimme, J. Chem. Theory Comput., 2019, 155, 2847-2862
     DOI: 10.1021/acs.jctc.9b00143
   
   for SPH calculations refer to:
   * S. Spicher and S. Grimme, J. Chem. Theory Comput., 2021, 17, 1701-1714
     DOI: 10.1021/acs.jctc.0c01306
   
   for ONIOM refer to:
   * C. Plett, A. Katbashev, S. Ehlert, S. Grimme, M. Bursch,
     Phys. Chem. Chem. Phys., 2023, 25, 17860-17868. DOI: 10.1039/D3CP02178E
   
   for DIPRO refer to:
   * J. Kohn, N. Gildemeister, S. Grimme, D. Fazzi, A. Hansen,
     J. Chem. Phys., 2023, just accepted.
   
   for PTB refer to:
   * S. Grimme, M. Mueller, A. Hansen, J. Chem. Phys., 2023, 158, 124111.
     DOI: 10.1063/5.0137838
   
   with help from (in alphabetical order)
   P. Atkinson, C. Bannwarth, F. Bohle, G. Brandenburg, E. Caldeweyher
   M. Checinski, S. Dohm, S. Ehlert, S. Ehrlich, I. Gerasimov, C. Hölzer
   A. Katbashev, J. Kohn, J. Koopman, C. Lavigne, S. Lehtola, F. März, M. Müller,
   F. Musil, H. Neugebauer, J. Pisarek, C. Plett, P. Pracht, F. Pultar,
   J. Seibert, P. Shushkov, S. Spicher, M. Stahn, M. Steiner, T. Strunk,
   J. Stückrath, T. Rose, and J. Unsleber
   
 * started run on 2025/05/15 at 16:24:05.888     
   ID    Z sym.   atoms
    1    6 C      1-5, 7-11, 13, 14, 16-18, 20-23
    2    7 N      6
    3   17 Cl     12
    4    8 O      15, 19, 24, 25
    5    1 H      26-41

           -------------------------------------------------
          |                Calculation Setup                |
           -------------------------------------------------

          program call               : xtb /rds/general/user/hgt20/home/callum/QDESCP/Indomethacin_rdkit_conf_2/Indomethacin_rdkit_conf_2.xyz --opt normal --acc 1 --gfn 2 --chrg 0 --uhf 0 -P 1
          hostname                   : login-c
          coordinate file            : /rds/general/user/hgt20/home/callum/QDESCP/Indomethacin_rdkit_conf_2/Indomethacin_rdkit_conf_2.xyz
          omp threads                :                     1


           -------------------------------------------------
          |                 G F N 2 - x T B                 |
           -------------------------------------------------

        Reference                      10.1021/acs.jctc.8b01176
      * Hamiltonian:
        H0-scaling (s, p, d)           1.850000    2.230000    2.230000
        zeta-weighting                 0.500000
      * Dispersion:
        s8                             2.700000
        a1                             0.520000
        a2                             5.000000
        s9                             5.000000
      * Repulsion:
        kExp                           1.500000    1.000000
        rExp                           1.000000
      * Coulomb:
        alpha                          2.000000
        third order                    shell-resolved
        anisotropic                    true
        a3                             3.000000
        a5                             4.000000
        cn-shift                       1.200000
        cn-exp                         4.000000
        max-rad                        5.000000


          ...................................................
          :                      SETUP                      :
          :.................................................:
          :  # basis functions                 122          :
          :  # atomic orbitals                 121          :
          :  # shells                           67          :
          :  # electrons                       128          :
          :  max. iterations                   250          :
          :  Hamiltonian                  GFN2-xTB          :
          :  restarted?                      false          :
          :  GBSA solvation                  false          :
          :  PC potential                    false          :
          :  electronic temp.          300.0000000     K    :
          :  accuracy                    1.0000000          :
          :  -> integral cutoff          0.2500000E+02      :
          :  -> integral neglect         0.1000000E-07      :
          :  -> SCF convergence          0.1000000E-05 Eh   :
          :  -> wf. convergence          0.1000000E-03 e    :
          :  Broyden damping             0.4000000          :
          :  net charge                          0          :
          :  unpaired electrons                  0          :
          ...................................................

 iter      E             dE          RMSdq      gap      omega  full diag
   1    -73.3973748 -0.733974E+02  0.463E+00    2.67       0.0  T
   2    -73.5061727 -0.108798E+00  0.266E+00    2.12       1.0  T
   3    -73.4982636  0.790915E-02  0.151E+00    2.59       1.0  T
   4    -73.5242172 -0.259536E-01  0.538E-01    2.14       1.0  T
   5    -73.5332982 -0.908101E-02  0.147E-01    2.28       1.0  T
   6    -73.5338330 -0.534811E-03  0.613E-02    2.27       1.0  T
   7    -73.5338584 -0.254033E-04  0.316E-02    2.27       1.0  T
   8    -73.5338714 -0.129935E-04  0.151E-02    2.27       1.0  T
   9    -73.5338741 -0.276709E-05  0.948E-03    2.27       1.6  T
  10    -73.5338749 -0.745304E-06  0.690E-03    2.27       2.3  T
  11    -73.5338756 -0.739251E-06  0.465E-03    2.27       3.4  T
  12    -73.5338760 -0.425834E-06  0.195E-03    2.27       8.0  T
  13    -73.5338761 -0.625095E-07  0.999E-04    2.27      15.6  T
  14    -73.5338761 -0.168536E-07  0.431E-04    2.27      36.3  T

   *** convergence criteria satisfied after 14 iterations ***

         #    Occupation            Energy/Eh            Energy/eV
      -------------------------------------------------------------
         1        2.0000           -1.0650679             -28.9820
       ...           ...                  ...                  ...
        58        2.0000           -0.4279588             -11.6454
        59        2.0000           -0.4275409             -11.6340
        60        2.0000           -0.4199432             -11.4272
        61        2.0000           -0.4130240             -11.2390
        62        2.0000           -0.4069970             -11.0750
        63        2.0000           -0.3785811             -10.3017
        64        2.0000           -0.3698126             -10.0631 (HOMO)
        65                         -0.2863817              -7.7928 (LUMO)
        66                         -0.2557400              -6.9590
        67                         -0.2484467              -6.7606
        68                         -0.2449101              -6.6643
        69                         -0.2312984              -6.2939
       ...                                ...                  ...
       121                          0.6821801              18.5631
      -------------------------------------------------------------
                  HL-Gap            0.0834309 Eh            2.2703 eV
             Fermi-level           -0.3280972 Eh           -8.9280 eV

 SCC (total)                   0 d,  0 h,  0 min,  0.118 sec
 SCC setup                      ...        0 min,  0.000 sec (  0.319%)
 Dispersion                     ...        0 min,  0.000 sec (  0.414%)
 classical contributions        ...        0 min,  0.000 sec (  0.121%)
 integral evaluation            ...        0 min,  0.009 sec (  7.260%)
 iterations                     ...        0 min,  0.084 sec ( 71.026%)
 molecular gradient             ...        0 min,  0.024 sec ( 20.676%)
 printout                       ...        0 min,  0.000 sec (  0.178%)

         :::::::::::::::::::::::::::::::::::::::::::::::::::::
         ::                     SUMMARY                     ::
         :::::::::::::::::::::::::::::::::::::::::::::::::::::
         :: total energy             -72.615435041038 Eh    ::
         :: gradient norm              0.095313077313 Eh/a0 ::
         :: HOMO-LUMO gap              2.270270281736 eV    ::
         ::.................................................::
         :: SCC energy               -73.533636177115 Eh    ::
         :: -> isotropic ES            0.099371062209 Eh    ::
         :: -> anisotropic ES          0.003393862292 Eh    ::
         :: -> anisotropic XC          0.020498645787 Eh    ::
         :: -> dispersion             -0.047830465959 Eh    ::
         :: repulsion energy           0.918201136077 Eh    ::
         :: add. restraining           0.000000000000 Eh    ::
         :: total charge               0.000000000000 e     ::
         :::::::::::::::::::::::::::::::::::::::::::::::::::::

      ----------------------------------------------------------- 
     |                   =====================                   |
     |                        A N C O P T                        |
     |                   =====================                   |
     |               Approximate Normal Coordinate               |
     |                Rational Function Optimizer                |
      ----------------------------------------------------------- 
      ----------------------------------------------------------- 
     |                   =====================                   |
     |                        A N C O P T                        |
     |                   =====================                   |
     |               Approximate Normal Coordinate               |
     |                Rational Function Optimizer                |
      ----------------------------------------------------------- 

          ...................................................
          :                      SETUP                      :
          :.................................................:
          :   optimization level            normal          :
          :   max. optcycles                   200          :
          :   ANC micro-cycles                  20          :
          :   degrees of freedom               117          :
          :.................................................:
          :   RF solver                   davidson          :
          :   write xtbopt.log                true          :
          :   linear?                        false          :
          :   energy convergence         0.5000000E-05 Eh   :
          :   grad. convergence          0.1000000E-02 Eh/α :
          :   maxmium RF displ.          1.0000000          :
          :   Hlow (freq-cutoff)         0.1000000E-01      :
          :   Hmax (freq-cutoff)         5.0000000          :
          :   S6 in model hess.         20.0000000          :
          ...................................................

generating ANC from exact Hessian ...
Using Lindh-Hessian (1995)
 Shifting diagonal of input Hessian by    9.6173493510416201E-003
 Lowest  eigenvalues of input Hessian
    0.000000    0.000000    0.000000    0.000000    0.000000    0.000000
    0.010000    0.010178    0.010496    0.010652    0.010998    0.011679
    0.012685    0.013615    0.014058    0.014815    0.016276    0.016815
 Highest eigenvalues
    1.924522    1.998751    2.051525    2.088735    2.204060    2.257097


........................................................................
.............................. CYCLE    1 ..............................
........................................................................

 iter      E             dE          RMSdq      gap      omega  full diag
   1    -73.5338761 -0.735339E+02  0.204E-04    2.27       0.0  T
   2    -73.5338761 -0.309740E-09  0.141E-04    2.27     110.8  T
   3    -73.5338761 -0.301441E-09  0.944E-05    2.27     165.4  T
     SCC iter.                  ...        0 min,  0.008 sec
     gradient                   ...        0 min,  0.024 sec
 * total energy  :   -72.6154350 Eh     change       -0.1822556E-08 Eh
   gradient norm :     0.0953116 Eh/α   predicted     0.0000000E+00 (-100.00%)
   displ. norm   :     0.3220955 α      lambda       -0.1364874E-01
   maximum displ.:     0.0995483 α      in ANC's #19, #23, #24, ...

........................................................................
.............................. CYCLE    2 ..............................
........................................................................

 iter      E             dE          RMSdq      gap      omega  full diag
   1    -73.5825943 -0.735826E+02  0.207E-01    2.38       0.0  T
   2    -73.5826903 -0.959826E-04  0.123E-01    2.39       1.0  T
   3    -73.5826532  0.371443E-04  0.461E-02    2.39       1.0  T
   4    -73.5827061 -0.529694E-04  0.914E-03    2.39       1.7  T
   5    -73.5827089 -0.273054E-05  0.352E-03    2.39       4.4  T
   6    -73.5827091 -0.228431E-06  0.196E-03    2.39       8.0  T
   7    -73.5827091 -0.247338E-07  0.104E-03    2.39      15.0  T
   8    -73.5827092 -0.203555E-07  0.526E-04    2.39      29.7  T
   9    -73.5827092 -0.282925E-08  0.335E-04    2.39      46.6  T
     SCC iter.                  ...        0 min,  0.074 sec
     gradient                   ...        0 min,  0.024 sec
 * total energy  :   -72.6249750 Eh     change       -0.9539945E-02 Eh
   gradient norm :     0.0381650 Eh/α   predicted    -0.7541851E-02 ( -20.94%)
   displ. norm   :     0.3247014 α      lambda       -0.4671743E-02
   maximum displ.:     0.1274349 α      in ANC's #7, #19, #23, ...

........................................................................
.............................. CYCLE    3 ..............................
........................................................................

 iter      E             dE          RMSdq      gap      omega  full diag
   1    -73.6083414 -0.736083E+02  0.144E-01    2.47       0.0  T
   2    -73.6083802 -0.387900E-04  0.848E-02    2.48       1.0  T
   3    -73.6083620  0.181640E-04  0.317E-02    2.48       1.0  T
   4    -73.6083885 -0.264795E-04  0.570E-03    2.49       2.7  T
   5    -73.6083893 -0.842583E-06  0.285E-03    2.49       5.5  T
   6    -73.6083895 -0.162821E-06  0.148E-03    2.49      10.5  T
   7    -73.6083895 -0.208243E-07  0.730E-04    2.49      21.4  T
   8    -73.6083895 -0.999769E-08  0.352E-04    2.49      44.3  T
     SCC iter.                  ...        0 min,  0.019 sec
     gradient                   ...        0 min,  0.024 sec
 * total energy  :   -72.6277434 Eh     change       -0.2768440E-02 Eh
   gradient norm :     0.0106962 Eh/α   predicted    -0.2583275E-02 (  -6.69%)
   displ. norm   :     0.1969670 α      lambda       -0.6994987E-03
   maximum displ.:     0.1210670 α      in ANC's #7, #15, #14, ...

........................................................................
.............................. CYCLE    4 ..............................
........................................................................

 iter      E             dE          RMSdq      gap      omega  full diag
   1    -73.6102575 -0.736103E+02  0.525E-02    2.49       0.0  T
   2    -73.6102614 -0.388463E-05  0.314E-02    2.50       1.0  T
   3    -73.6102584  0.300871E-05  0.114E-02    2.50       1.4  T
   4    -73.6102622 -0.384297E-05  0.289E-03    2.50       5.4  T
   5    -73.6102625 -0.272754E-06  0.115E-03    2.50      13.6  T
   6    -73.6102625 -0.170310E-07  0.601E-04    2.50      26.0  T
   7    -73.6102625 -0.275845E-08  0.232E-04    2.50      67.2  T
     SCC iter.                  ...        0 min,  0.017 sec
     gradient                   ...        0 min,  0.024 sec
 * total energy  :   -72.6282387 Eh     change       -0.4952650E-03 Eh
   gradient norm :     0.0076396 Eh/α   predicted    -0.3633233E-03 ( -26.64%)
   displ. norm   :     0.2190559 α      lambda       -0.4107508E-03
   maximum displ.:     0.1526796 α      in ANC's #7, #2, #3, ...

........................................................................
.............................. CYCLE    5 ..............................
........................................................................

 iter      E             dE          RMSdq      gap      omega  full diag
   1    -73.6096544 -0.736097E+02  0.530E-02    2.49       0.0  T
   2    -73.6096580 -0.363221E-05  0.314E-02    2.50       1.0  T
   3    -73.6096562  0.179607E-05  0.966E-03    2.50       1.6  T
   4    -73.6096584 -0.223190E-05  0.301E-03    2.50       5.2  T
   5    -73.6096587 -0.264929E-06  0.118E-03    2.50      13.2  T
   6    -73.6096587 -0.113469E-07  0.755E-04    2.50      20.7  T
   7    -73.6096587 -0.516009E-08  0.416E-04    2.50      37.5  T
     SCC iter.                  ...        0 min,  0.016 sec
     gradient                   ...        0 min,  0.024 sec
 * total energy  :   -72.6285050 Eh     change       -0.2663482E-03 Eh
   gradient norm :     0.0042572 Eh/α   predicted    -0.2152307E-03 ( -19.19%)
   displ. norm   :     0.1455473 α      lambda       -0.1394471E-03
   maximum displ.:     0.1002286 α      in ANC's #7, #2, #3, ...

........................................................................
.............................. CYCLE    6 ..............................
........................................................................

 iter      E             dE          RMSdq      gap      omega  full diag
   1    -73.6091294 -0.736091E+02  0.355E-02    2.49       0.0  T
   2    -73.6091300 -0.589286E-06  0.209E-02    2.49       1.0  T
   3    -73.6091294  0.521830E-06  0.450E-03    2.49       3.5  T
   4    -73.6091301 -0.679414E-06  0.121E-03    2.49      12.9  T
   5    -73.6091302 -0.219167E-07  0.741E-04    2.49      21.1  T
   6    -73.6091302 -0.364784E-08  0.491E-04    2.49      31.8  T
     SCC iter.                  ...        0 min,  0.059 sec
     gradient                   ...        0 min,  0.024 sec
 * total energy  :   -72.6286083 Eh     change       -0.1032324E-03 Eh
   gradient norm :     0.0031166 Eh/α   predicted    -0.7120066E-04 ( -31.03%)
   displ. norm   :     0.1627958 α      lambda       -0.1172442E-03
   maximum displ.:     0.0970737 α      in ANC's #7, #2, #3, ...

........................................................................
.............................. CYCLE    7 ..............................
........................................................................

 iter      E             dE          RMSdq      gap      omega  full diag
   1    -73.6088877 -0.736089E+02  0.427E-02    2.48       0.0  T
   2    -73.6088883 -0.554658E-06  0.252E-02    2.48       1.0  T
   3    -73.6088874  0.816826E-06  0.481E-03    2.48       3.2  T
   4    -73.6088885 -0.101475E-05  0.113E-03    2.48      13.8  T
   5    -73.6088885 -0.211543E-07  0.713E-04    2.48      21.9  T
   6    -73.6088885 -0.486995E-08  0.438E-04    2.48      35.6  T
     SCC iter.                  ...        0 min,  0.065 sec
     gradient                   ...        0 min,  0.024 sec
 * total energy  :   -72.6286979 Eh     change       -0.8960341E-04 Eh
   gradient norm :     0.0035259 Eh/α   predicted    -0.6017624E-04 ( -32.84%)
   displ. norm   :     0.2154948 α      lambda       -0.1173143E-03
   maximum displ.:     0.1134558 α      in ANC's #7, #2, #3, ...

........................................................................
.............................. CYCLE    8 ..............................
........................................................................

 iter      E             dE          RMSdq      gap      omega  full diag
   1    -73.6088164 -0.736088E+02  0.565E-02    2.46       0.0  T
   2    -73.6088177 -0.137597E-05  0.333E-02    2.46       1.0  T
   3    -73.6088164  0.129801E-05  0.629E-03    2.46       2.5  T
   4    -73.6088180 -0.152376E-05  0.195E-03    2.46       8.0  T
   5    -73.6088181 -0.123762E-06  0.827E-04    2.46      18.9  T
   6    -73.6088181 -0.475792E-08  0.511E-04    2.46      30.6  T
     SCC iter.                  ...        0 min,  0.065 sec
     gradient                   ...        0 min,  0.024 sec
 * total energy  :   -72.6287844 Eh     change       -0.8651317E-04 Eh
   gradient norm :     0.0039282 Eh/α   predicted    -0.6138323E-04 ( -29.05%)
   displ. norm   :     0.2193413 α      lambda       -0.9203900E-04
   maximum displ.:     0.1073387 α      in ANC's #2, #3, #7, ...

........................................................................
.............................. CYCLE    9 ..............................
........................................................................

 iter      E             dE          RMSdq      gap      omega  full diag
   1    -73.6089525 -0.736090E+02  0.589E-02    2.45       0.0  T
   2    -73.6089544 -0.192705E-05  0.346E-02    2.44       1.0  T
   3    -73.6089524  0.196215E-05  0.781E-03    2.45       2.0  T
   4    -73.6089546 -0.216988E-05  0.259E-03    2.44       6.0  T
   5    -73.6089548 -0.237456E-06  0.950E-04    2.44      16.4  T
   6    -73.6089548 -0.503721E-08  0.628E-04    2.44      24.9  T
     SCC iter.                  ...        0 min,  0.014 sec
     gradient                   ...        0 min,  0.063 sec
 * total energy  :   -72.6288510 Eh     change       -0.6664901E-04 Eh
   gradient norm :     0.0030683 Eh/α   predicted    -0.4823511E-04 ( -27.63%)
   displ. norm   :     0.1788741 α      lambda       -0.6203110E-04
   maximum displ.:     0.0871096 α      in ANC's #2, #3, #5, ...

........................................................................
.............................. CYCLE   10 ..............................
........................................................................

 iter      E             dE          RMSdq      gap      omega  full diag
   1    -73.6096044 -0.736096E+02  0.491E-02    2.44       0.0  T
   2    -73.6096059 -0.145821E-05  0.288E-02    2.43       1.0  T
   3    -73.6096043  0.159329E-05  0.696E-03    2.44       2.2  T
   4    -73.6096061 -0.176408E-05  0.226E-03    2.43       6.9  T
   5    -73.6096063 -0.174537E-06  0.876E-04    2.43      17.8  T
   6    -73.6096063 -0.437096E-08  0.595E-04    2.43      26.3  T
     SCC iter.                  ...        0 min,  0.015 sec
     gradient                   ...        0 min,  0.069 sec
 * total energy  :   -72.6288949 Eh     change       -0.4386947E-04 Eh
   gradient norm :     0.0016964 Eh/α   predicted    -0.3200832E-04 ( -27.04%)
   displ. norm   :     0.1870833 α      lambda       -0.3578535E-04
   maximum displ.:     0.0880361 α      in ANC's #3, #2, #1, ...

........................................................................
.............................. CYCLE   11 ..............................
........................................................................

 iter      E             dE          RMSdq      gap      omega  full diag
   1    -73.6103606 -0.736104E+02  0.532E-02    2.44       0.0  T
   2    -73.6103619 -0.138948E-05  0.312E-02    2.43       1.0  T
   3    -73.6103591  0.284984E-05  0.876E-03    2.44       1.8  T
   4    -73.6103623 -0.322528E-05  0.190E-03    2.43       8.2  T
   5    -73.6103624 -0.102926E-06  0.827E-04    2.43      18.9  T
   6    -73.6103624 -0.422688E-08  0.512E-04    2.43      30.5  T
     SCC iter.                  ...        0 min,  0.015 sec
     gradient                   ...        0 min,  0.069 sec
 * total energy  :   -72.6289270 Eh     change       -0.3211499E-04 Eh
   gradient norm :     0.0023799 Eh/α   predicted    -0.1817545E-04 ( -43.41%)
   displ. norm   :     0.0602143 α      lambda       -0.1900883E-04
   maximum displ.:     0.0325154 α      in ANC's #1, #3, #2, ...

........................................................................
.............................. CYCLE   12 ..............................
........................................................................

 iter      E             dE          RMSdq      gap      omega  full diag
   1    -73.6104430 -0.736104E+02  0.170E-02    2.44       0.0  T
   2    -73.6104430 -0.579937E-07  0.997E-03    2.44       1.6  T
   3    -73.6104429  0.142314E-06  0.195E-03    2.44       8.0  T
   4    -73.6104430 -0.170666E-06  0.439E-04    2.44      35.6  T
   5    -73.6104430 -0.340046E-08  0.262E-04    2.44      59.6  T
     SCC iter.                  ...        0 min,  0.012 sec
     gradient                   ...        0 min,  0.070 sec
 * total energy  :   -72.6289438 Eh     change       -0.1675607E-04 Eh
   gradient norm :     0.0019807 Eh/α   predicted    -0.9541799E-05 ( -43.05%)
   displ. norm   :     0.2496305 α      lambda       -0.5005041E-04
   maximum displ.:     0.1367534 α      in ANC's #1, #3, #2, ...

........................................................................
.............................. CYCLE   13 ..............................
........................................................................

 iter      E             dE          RMSdq      gap      omega  full diag
   1    -73.6097859 -0.736098E+02  0.718E-02    2.45       0.0  T
   2    -73.6097871 -0.127132E-05  0.421E-02    2.45       1.0  T
   3    -73.6097835  0.366173E-05  0.102E-02    2.45       1.5  T
   4    -73.6097878 -0.429523E-05  0.210E-03    2.45       7.5  T
   5    -73.6097878 -0.840707E-07  0.127E-03    2.45      12.3  T
   6    -73.6097879 -0.132215E-07  0.805E-04    2.45      19.4  T
   7    -73.6097879 -0.735193E-08  0.461E-04    2.45      33.8  T
     SCC iter.                  ...        0 min,  0.017 sec
     gradient                   ...        0 min,  0.024 sec
 * total energy  :   -72.6289901 Eh     change       -0.4634340E-04 Eh
   gradient norm :     0.0024353 Eh/α   predicted    -0.2571958E-04 ( -44.50%)
   displ. norm   :     0.0985760 α      lambda       -0.2179316E-04
   maximum displ.:     0.0560987 α      in ANC's #1, #3, #2, ...

........................................................................
.............................. CYCLE   14 ..............................
........................................................................

 iter      E             dE          RMSdq      gap      omega  full diag
   1    -73.6099673 -0.736100E+02  0.258E-02    2.46       0.0  T
   2    -73.6099675 -0.138011E-06  0.152E-02    2.46       1.0  T
   3    -73.6099668  0.696797E-06  0.448E-03    2.46       3.5  T
   4    -73.6099676 -0.813043E-06  0.686E-04    2.46      22.8  T
   5    -73.6099676 -0.497833E-08  0.448E-04    2.46      34.8  T
     SCC iter.                  ...        0 min,  0.012 sec
     gradient                   ...        0 min,  0.025 sec
 * total energy  :   -72.6290092 Eh     change       -0.1902860E-04 Eh
   gradient norm :     0.0018525 Eh/α   predicted    -0.1100407E-04 ( -42.17%)
   displ. norm   :     0.3325007 α      lambda       -0.4800582E-04
   maximum displ.:     0.1907155 α      in ANC's #1, #3, #2, ...

........................................................................
.............................. CYCLE   15 ..............................
........................................................................

 iter      E             dE          RMSdq      gap      omega  full diag
   1    -73.6097070 -0.736097E+02  0.870E-02    2.48       0.0  T
   2    -73.6097085 -0.158787E-05  0.511E-02    2.48       1.0  T
   3    -73.6096991  0.945888E-05  0.166E-02    2.48       1.0  T
   4    -73.6097101 -0.109980E-04  0.233E-03    2.48       6.7  T
   5    -73.6097101 -0.508316E-07  0.149E-03    2.48      10.5  T
   6    -73.6097102 -0.214926E-07  0.538E-04    2.48      29.0  T
   7    -73.6097102 -0.320804E-08  0.251E-04    2.48      62.3  T
     SCC iter.                  ...        0 min,  0.062 sec
     gradient                   ...        0 min,  0.024 sec
 * total energy  :   -72.6290503 Eh     change       -0.4110763E-04 Eh
   gradient norm :     0.0020256 Eh/α   predicted    -0.2518392E-04 ( -38.74%)
   displ. norm   :     0.0532291 α      lambda       -0.1066930E-04
   maximum displ.:     0.0306043 α      in ANC's #1, #2, #3, ...

........................................................................
.............................. CYCLE   16 ..............................
........................................................................

 iter      E             dE          RMSdq      gap      omega  full diag
   1    -73.6103965 -0.736104E+02  0.112E-02    2.48       0.0  T
   2    -73.6103966 -0.156223E-06  0.663E-03    2.48       2.4  T
   3    -73.6103965  0.183101E-06  0.263E-03    2.48       5.9  T
   4    -73.6103967 -0.221296E-06  0.613E-04    2.48      25.5  T
   5    -73.6103967 -0.119556E-07  0.243E-04    2.48      64.2  T
     SCC iter.                  ...        0 min,  0.012 sec
     gradient                   ...        0 min,  0.064 sec
 * total energy  :   -72.6290579 Eh     change       -0.7609588E-05 Eh
   gradient norm :     0.0008240 Eh/α   predicted    -0.5351792E-05 ( -29.67%)
   displ. norm   :     0.1790294 α      lambda       -0.1255406E-04
   maximum displ.:     0.0994225 α      in ANC's #1, #2, #3, ...

........................................................................
.............................. CYCLE   17 ..............................
........................................................................

 iter      E             dE          RMSdq      gap      omega  full diag
   1    -73.6105115 -0.736105E+02  0.412E-02    2.49       0.0  T
   2    -73.6105121 -0.552540E-06  0.243E-02    2.48       1.0  T
   3    -73.6105087  0.333553E-05  0.949E-03    2.49       1.6  T
   4    -73.6105126 -0.384246E-05  0.122E-03    2.49      12.8  T
   5    -73.6105126 -0.135587E-07  0.748E-04    2.49      20.9  T
   6    -73.6105126 -0.260535E-08  0.353E-04    2.49      44.3  T
     SCC iter.                  ...        0 min,  0.014 sec
     gradient                   ...        0 min,  0.070 sec
 * total energy  :   -72.6290674 Eh     change       -0.9535929E-05 Eh
   gradient norm :     0.0011248 Eh/α   predicted    -0.6367089E-05 ( -33.23%)
   displ. norm   :     0.0294835 α      lambda       -0.4024895E-05
   maximum displ.:     0.0124321 α      in ANC's #2, #1, #5, ...

........................................................................
.............................. CYCLE   18 ..............................
........................................................................

 iter      E             dE          RMSdq      gap      omega  full diag
   1    -73.6107974 -0.736108E+02  0.865E-03    2.48       0.0  T
   2    -73.6107975 -0.454949E-07  0.512E-03    2.48       3.1  T
   3    -73.6107974  0.547000E-07  0.151E-03    2.48      10.3  T
   4    -73.6107975 -0.711706E-07  0.293E-04    2.48      53.4  T
   5    -73.6107975 -0.140682E-08  0.173E-04    2.48      90.2  T
     SCC iter.                  ...        0 min,  0.012 sec
     gradient                   ...        0 min,  0.070 sec
 * total energy  :   -72.6290724 Eh     change       -0.4986486E-05 Eh
   gradient norm :     0.0006965 Eh/α   predicted    -0.2014491E-05 ( -59.60%)
   displ. norm   :     0.1355707 α      lambda       -0.1067221E-04
   maximum displ.:     0.0745059 α      in ANC's #1, #2, #3, ...

   *** GEOMETRY OPTIMIZATION CONVERGED AFTER 18 ITERATIONS ***

------------------------------------------------------------------------
 total energy gain   :        -0.0136374 Eh       -8.5576 kcal/mol
 total RMSD          :         0.3590233 a0        0.1900 Å
 total power (kW/mol):        -1.9891589 (step)  -21.3281 (real)
------------------------------------------------------------------------

 ANCopt (total)                0 d,  0 h,  0 min,  1.679 sec
 optimizer setup                ...        0 min,  0.000 sec (  0.004%)
 model hessian                  ...        0 min,  0.010 sec (  0.575%)
 ANC generation                 ...        0 min,  0.001 sec (  0.086%)
 coordinate transformation      ...        0 min,  0.000 sec (  0.012%)
 single point calculation       ...        0 min,  1.660 sec ( 98.901%)
 optimization log               ...        0 min,  0.004 sec (  0.234%)
 hessian update                 ...        0 min,  0.000 sec (  0.015%)
 rational function              ...        0 min,  0.001 sec (  0.085%)

================
 final structure:
================
41
 xtb: 6.7.1 (edcfbbe)
C           -0.05456393884593       -3.40956936381731       -1.24622888041686
C           -0.42489004782773       -2.00556542375832       -0.94207427290416
C           -1.65702939218792       -1.48313865110467       -0.69605459966313
C           -1.49005931363945       -0.08444378258046       -0.42075457352946
C           -0.10786355878440        0.18879392212009       -0.50973987918220
N            0.54418916227074       -1.00575304476332       -0.81342260268724
C            1.90642332737174       -1.19709422049974       -0.98215813251022
C            2.78486132718276       -0.30359864488924       -0.17846498264720
C            3.95181166531707        0.19953100750767       -0.74402562675798
C            4.82035863245154        0.96672424181464        0.00903102830592
C            4.53117109653213        1.20402250569197        1.34443439648872
Cl           5.61366852883891        2.15706887191231        2.29336622295131
C            3.38825254664009        0.67966063909389        1.93167301165626
C            2.51546604873041       -0.07098945857735        1.16854978341583
O            2.35945302068070       -2.06609635264126       -1.69307029798556
C            0.35851537071884        1.48573991265953       -0.39527106250080
C           -0.54911973288054        2.49391108253015       -0.11959386497328
C           -1.91359346989302        2.22597252766155        0.02315695822877
O           -2.85736921127275        3.17022246113012        0.30523045188300
C           -2.44678817945674        4.50101363297402        0.49892591331470
C           -2.39105698955114        0.93110718194663       -0.14405061503833
C           -2.95816079171805       -2.21108932667874       -0.65447673799802
C           -3.19983370071922       -2.85067780959036        0.69631858825421
O           -4.46604603283466       -3.27817565621944        0.80805328312313
O           -2.39121954992599       -2.98878450956701        1.57117733266430
H           -0.91453623071916       -4.05800668603548       -1.10788944631905
H            0.30909525915199       -3.49928053579550       -2.26910533054534
H            0.74484268972407       -3.74414344737982       -0.58763236374617
H            4.16610715836333       -0.00830990929223       -1.78108717842555
H            5.71818133365080        1.37225378224814       -0.42986970261143
H            3.18795886488902        0.85834503828519        2.97603344647502
H            1.62642963232372       -0.48400019857512        1.62102909488001
H            1.40017292839039        1.73394500025342       -0.51981076233126
H           -0.17713905882152        3.50098924434905       -0.02481401126711
H           -1.74308022429817        4.58852255067549        1.33307934865030
H           -1.99297801020989        4.91944129362440       -0.40549569637459
H           -3.35325472454421        5.05645262903611        0.73452511094032
H           -3.45023951820495        0.74954227085855       -0.06105616297173
H           -2.99145112356728       -3.00743104353819       -1.40181460387289
H           -3.78684226996149       -1.53218178039192       -0.85901225240699
H           -4.60964352336515       -3.69492995067586        1.67218966843444

 Bond Distances (Angstroems)
 ---------------------------
C1-C2=1.4835         C1-H26=1.0859        C1-H27=1.0893        C1-H28=1.0885        C2-C1=1.4835         C2-C3=1.3607         
C2-N6=1.3983         C3-C2=1.3607         C3-C4=1.4353         C3-C22=1.4915        C4-C3=1.4353         C4-C5=1.4118         
C4-C21=1.3855        C5-C4=1.4118         C5-N6=1.3944         C5-C16=1.3830        N6-C2=1.3983         N6-C5=1.3944         
N6-C7=1.3859         C7-N6=1.3859         C7-C8=1.4886         C7-O15=1.2107        C8-C7=1.4886         C8-C9=1.3910         
C8-C14=1.3932        C9-C8=1.3910         C9-C10=1.3820        C9-H29=1.0792        C10-C9=1.3820        C10-C11=1.3868       
C10-H30=1.0785       C11-C10=1.3868       C11-Cl12=1.7264      C11-C13=1.3878       Cl12-C11=1.7264      C13-C11=1.3878       
C13-C14=1.3812       C13-H31=1.0783       C14-C8=1.3932        C14-C13=1.3812       C14-H32=1.0797       O15-C7=1.2107        
C16-C5=1.3830        C16-C17=1.3843       C16-H33=1.0780       C17-C16=1.3843       C17-C18=1.3978       C17-H34=1.0778       
C18-C17=1.3978       C18-O19=1.3645       C18-C21=1.3902       O19-C18=1.3645       O19-C20=1.4061       C20-O19=1.4061       
C20-H35=1.0948       C20-H36=1.0950       C20-H37=1.0889       C21-C4=1.3855        C21-C18=1.3902       C21-H38=1.0778       
C22-C3=1.4915        C22-C23=1.5140       C22-H39=1.0926       C22-H40=1.0906       C23-C22=1.5140       C23-O24=1.3411       
C23-O25=1.1993       O24-C23=1.3411       O24-H41=0.9701       O25-C23=1.1993       H26-C1=1.0859        H27-C1=1.0893        
H28-C1=1.0885        H29-C9=1.0792        H30-C10=1.0785       H31-C13=1.0783       H32-C14=1.0797       H33-C16=1.0780       
H34-C17=1.0778       H35-C20=1.0948       H36-C20=1.0950       H37-C20=1.0889       H38-C21=1.0778       H39-C22=1.0926       
H40-C22=1.0906       H41-O24=0.9701       
 C  H  Rav=1.0850 sigma=0.0065  Rmin=1.0778  Rmax=1.0950    15
 C  C  Rav=1.4138 sigma=0.0457  Rmin=1.3607  Rmax=1.5140    18
 N  C  Rav=1.3929 sigma=0.0052  Rmin=1.3859  Rmax=1.3983     3
 O  H  Rav=0.9701 sigma=0.0000  Rmin=0.9701  Rmax=0.9701     1
 O  C  Rav=1.3043 sigma=0.0838  Rmin=1.1993  Rmax=1.4061     5
 Cl C  Rav=1.7264 sigma=0.0000  Rmin=1.7264  Rmax=1.7264     1

 selected bond angles (degree)
 --------------------
H26-C1-C2=109.96               H27-C1-C2=110.72               H27-C1-H26=109.56              H28-C1-C2=110.50               
H28-C1-H26=108.72              H28-C1-H27=107.32              C3-C2-C1=128.79                N6-C2-C1=121.50                
N6-C2-C3=109.66                C4-C3-C2=107.67                C22-C3-C2=127.41               C22-C3-C4=124.87               
C5-C4-C3=106.88                C21-C4-C3=132.61               C21-C4-C5=120.49               N6-C5-C4=107.80                
C16-C5-C4=120.43               C16-C5-N6=131.58               C5-N6-C2=107.97                C7-N6-C2=124.84                
C7-N6-C5=127.19                C8-C7-N6=115.56                O15-C7-N6=122.57               O15-C7-C8=121.81               
C9-C8-C7=119.52                C14-C8-C7=120.54               C14-C8-C9=119.67               C10-C9-C8=120.43               
H29-C9-C8=119.19               H29-C9-C10=120.38              C11-C10-C9=119.25              H30-C10-C9=120.67              
H30-C10-C11=120.07             

 selected dihedral angles (degree)
 ---------------------------------
C3-C2-C1-H26=351.55           C3-C2-C1-H27=112.76           C3-C2-C1-H28=231.52           N6-C2-C1-H26=168.65           
N6-C2-C1-H27=289.86           N6-C2-C1-H28= 48.63           C4-C3-C2-C1=178.47            C4-C3-C2-N6=  1.09            
C22-C3-C2-C1=  0.85           C22-C3-C2-N6=183.47           C5-C4-C3-C2=359.73            C5-C4-C3-C22=177.43           
C21-C4-C3-C2=178.02           C21-C4-C3-C22=355.71          N6-C5-C4-C3=359.35            N6-C5-C4-C21=180.81           
C16-C5-C4-C3=174.95           C16-C5-C4-C21=356.41          C5-N6-C2-C1=180.88            C5-N6-C2-C3=358.48            
C7-N6-C2-C1=  1.66            C7-N6-C2-C3=179.26            C2-N6-C5-C4=  1.31            C2-N6-C5-C16=186.39           
C7-N6-C5-C4=180.51            C7-N6-C5-C16=  5.58           C8-C7-N6-C2=209.98            C8-C7-N6-C5= 30.92            
O15-C7-N6-C2= 27.14           O15-C7-N6-C5=208.08           C9-C8-C7-N6=218.82            C9-C8-C7-O15= 41.64           
C14-C8-C7-N6= 44.94           C14-C8-C7-O15=227.75          C10-C9-C8-C7=183.79           C10-C9-C8-C14=357.72          
H29-C9-C8-C7=  4.39           H29-C9-C8-C14=178.32          C11-C10-C9-C8=  1.48          C11-C10-C9-H29=180.87         
H30-C10-C9-C8=181.01          H30-C10-C9-H29=  0.40         
           -------------------------------------------------
          |                Final Singlepoint                |
           -------------------------------------------------

          ...................................................
          :                      SETUP                      :
          :.................................................:
          :  # basis functions                 122          :
          :  # atomic orbitals                 121          :
          :  # shells                           67          :
          :  # electrons                       128          :
          :  max. iterations                   250          :
          :  Hamiltonian                  GFN2-xTB          :
          :  restarted?                      false          :
          :  GBSA solvation                  false          :
          :  PC potential                    false          :
          :  electronic temp.          300.0000000     K    :
          :  accuracy                    1.0000000          :
          :  -> integral cutoff          0.2500000E+02      :
          :  -> integral neglect         0.1000000E-07      :
          :  -> SCF convergence          0.1000000E-05 Eh   :
          :  -> wf. convergence          0.1000000E-03 e    :
          :  Broyden damping             0.4000000          :
          :  net charge                          0          :
          :  unpaired electrons                  0          :
          ...................................................

 iter      E             dE          RMSdq      gap      omega  full diag
   1    -73.6107975 -0.736108E+02  0.991E-05    2.48       0.0  T
   2    -73.6107975 -0.453753E-10  0.808E-05    2.48     193.3  T
   3    -73.6107975 -0.689084E-10  0.623E-05    2.48     250.5  T

   *** convergence criteria satisfied after 3 iterations ***

         #    Occupation            Energy/Eh            Energy/eV
      -------------------------------------------------------------
         1        2.0000           -1.0632574             -28.9327
       ...           ...                  ...                  ...
        58        2.0000           -0.4271553             -11.6235
        59        2.0000           -0.4258115             -11.5869
        60        2.0000           -0.4214868             -11.4692
        61        2.0000           -0.4102346             -11.1631
        62        2.0000           -0.4080710             -11.1042
        63        2.0000           -0.3777158             -10.2782
        64        2.0000           -0.3721856             -10.1277 (HOMO)
        65                         -0.2808834              -7.6432 (LUMO)
        66                         -0.2509417              -6.8285
        67                         -0.2434289              -6.6240
        68                         -0.2370828              -6.4514
        69                         -0.2267373              -6.1698
       ...                                ...                  ...
       121                          0.7176263              19.5276
      -------------------------------------------------------------
                  HL-Gap            0.0913022 Eh            2.4845 eV
             Fermi-level           -0.3265345 Eh           -8.8855 eV

 SCC (total)                   0 d,  0 h,  0 min,  0.041 sec
 SCC setup                      ...        0 min,  0.000 sec (  0.748%)
 Dispersion                     ...        0 min,  0.000 sec (  0.712%)
 classical contributions        ...        0 min,  0.000 sec (  0.325%)
 integral evaluation            ...        0 min,  0.008 sec ( 20.115%)
 iterations                     ...        0 min,  0.007 sec ( 17.618%)
 molecular gradient             ...        0 min,  0.025 sec ( 60.056%)
 printout                       ...        0 min,  0.000 sec (  0.410%)

         :::::::::::::::::::::::::::::::::::::::::::::::::::::
         ::                     SUMMARY                     ::
         :::::::::::::::::::::::::::::::::::::::::::::::::::::
         :: total energy             -72.629072392067 Eh    ::
         :: gradient norm              0.000697142276 Eh/a0 ::
         :: HOMO-LUMO gap              2.484460105209 eV    ::
         ::.................................................::
         :: SCC energy               -73.610456347299 Eh    ::
         :: -> isotropic ES            0.097358611137 Eh    ::
         :: -> anisotropic ES          0.003095326483 Eh    ::
         :: -> anisotropic XC          0.018593915938 Eh    ::
         :: -> dispersion             -0.049194239594 Eh    ::
         :: repulsion energy           0.981383955232 Eh    ::
         :: add. restraining           0.000000000000 Eh    ::
         :: total charge              -0.000000000000 e     ::
         :::::::::::::::::::::::::::::::::::::::::::::::::::::

           -------------------------------------------------
          |                Property Printout                |
           -------------------------------------------------

    * Orbital Energies and Occupations

         #    Occupation            Energy/Eh            Energy/eV
      -------------------------------------------------------------
         1        2.0000           -1.0632574             -28.9327
       ...           ...                  ...                  ...
        52        2.0000           -0.4578209             -12.4579
        53        2.0000           -0.4530176             -12.3272
        54        2.0000           -0.4491848             -12.2229
        55        2.0000           -0.4379781             -11.9180
        56        2.0000           -0.4361373             -11.8679
        57        2.0000           -0.4325461             -11.7702
        58        2.0000           -0.4271553             -11.6235
        59        2.0000           -0.4258115             -11.5869
        60        2.0000           -0.4214868             -11.4692
        61        2.0000           -0.4102346             -11.1631
        62        2.0000           -0.4080710             -11.1042
        63        2.0000           -0.3777158             -10.2782
        64        2.0000           -0.3721856             -10.1277 (HOMO)
        65                         -0.2808834              -7.6432 (LUMO)
        66                         -0.2509417              -6.8285
        67                         -0.2434289              -6.6240
        68                         -0.2370828              -6.4514
        69                         -0.2267373              -6.1698
        70                         -0.1937854              -5.2732
        71                         -0.1637361              -4.4555
        72                         -0.1445918              -3.9345
        73                         -0.1174366              -3.1956
        74                         -0.0813471              -2.2136
        75                         -0.0017135              -0.0466
       ...                                ...                  ...
       121                          0.7176263              19.5276
      -------------------------------------------------------------
                  HL-Gap            0.0913022 Eh            2.4845 eV
             Fermi-level           -0.3265345 Eh           -8.8855 eV

     #   Z          covCN         q      C6AA      α(0)
     1   6 C        3.754    -0.110    22.669     6.789
     2   6 C        3.043     0.056    26.711     8.477
     3   6 C        3.049    -0.026    28.608     8.772
     4   6 C        3.092    -0.008    28.119     8.691
     5   6 C        3.053     0.030    27.277     8.565
     6   7 N        2.814    -0.053    22.254     7.006
     7   6 C        2.762     0.277    22.312     7.735
     8   6 C        2.974    -0.015    28.371     8.737
     9   6 C        2.925    -0.018    28.462     8.749
    10   6 C        2.954    -0.037    28.917     8.820
    11   6 C        2.889     0.104    25.706     8.312
    12  17 Cl       0.968    -0.166   104.360    15.629
    13   6 C        2.954    -0.036    28.905     8.818
    14   6 C        2.924    -0.022    28.553     8.763
    15   8 O        0.858    -0.384    21.358     6.196
    16   6 C        2.911    -0.048    29.196     8.860
    17   6 C        2.922    -0.071    29.766     8.947
    18   6 C        2.864     0.139    24.971     8.191
    19   8 O        1.706    -0.270    18.474     5.803
    20   6 C        3.643     0.037    20.288     6.475
    21   6 C        2.914    -0.062    29.551     8.914
    22   6 C        3.806    -0.089    22.193     6.706
    23   6 C        2.690     0.364    20.820     7.467
    24   8 O        1.660    -0.381    20.486     6.110
    25   8 O        0.856    -0.403    21.749     6.253
    26   1 H        0.925     0.051     2.313     2.378
    27   1 H        0.925     0.074     2.043     2.235
    28   1 H        0.925     0.067     2.124     2.279
    29   1 H        0.926     0.065     2.143     2.289
    30   1 H        0.926     0.064     2.151     2.293
    31   1 H        0.926     0.064     2.154     2.295
    32   1 H        0.926     0.057     2.238     2.339
    33   1 H        0.926     0.033     2.544     2.494
    34   1 H        0.926     0.040     2.454     2.450
    35   1 H        0.924     0.040     2.448     2.447
    36   1 H        0.924     0.040     2.455     2.450
    37   1 H        0.925     0.062     2.172     2.305
    38   1 H        0.926     0.050     2.323     2.384
    39   1 H        0.924     0.078     2.001     2.212
    40   1 H        0.924     0.081     1.965     2.192
    41   1 H        0.804     0.329     0.639     1.256

 Mol. C6AA /au·bohr⁶  :      23520.676481
 Mol. C8AA /au·bohr⁸  :     597052.278870
 Mol. α(0) /au        :        240.087893


Wiberg/Mayer (AO) data.
largest (>0.10) Wiberg bond orders for each atom

 ---------------------------------------------------------------------------
     #   Z sym  total        # sym  WBO       # sym  WBO       # sym  WBO
 ---------------------------------------------------------------------------
     1   6 C    3.992 --     2 C    1.040    26 H    0.980    28 H    0.965
                            27 H    0.961
     2   6 C    3.952 --     3 C    1.599     6 N    1.098     1 C    1.040
     3   6 C    3.973 --     2 C    1.599     4 C    1.159    22 C    1.015
     4   6 C    3.986 --    21 C    1.374     5 C    1.258     3 C    1.159
     5   6 C    3.952 --    16 C    1.384     4 C    1.258     6 N    1.083
     6   7 N    3.604 --     7 C    1.108     2 C    1.098     5 C    1.083
                            15 O    0.121
     7   6 C    3.942 --    15 O    1.738     6 N    1.108     8 C    0.990
     8   6 C    3.987 --     9 C    1.393    14 C    1.383     7 C    0.990
     9   6 C    3.986 --    10 C    1.449     8 C    1.393    29 H    0.966
                            13 C    0.105
    10   6 C    3.988 --     9 C    1.449    11 C    1.400    30 H    0.966
                            14 C    0.106
    11   6 C    3.918 --    10 C    1.400    13 C    1.394    12 Cl   0.983
    12  17 Cl   1.121 --    11 C    0.983
    13   6 C    3.988 --    14 C    1.456    11 C    1.394    31 H    0.966
                             9 C    0.105
    14   6 C    3.990 --    13 C    1.456     8 C    1.383    32 H    0.967
                            10 C    0.106
    15   8 O    2.040 --     7 C    1.738     6 N    0.121
    16   6 C    3.989 --    17 C    1.453     5 C    1.384    33 H    0.965
                            21 C    0.106
    17   6 C    3.981 --    16 C    1.453    18 C    1.343    34 H    0.966
    18   6 C    3.929 --    21 C    1.385    17 C    1.343    19 O    1.057
    19   8 O    2.221 --    18 C    1.057    20 C    0.987
    20   6 C    3.947 --    19 O    0.987    37 H    0.979    35 H    0.977
                            36 H    0.976
    21   6 C    3.978 --    18 C    1.385     4 C    1.374    38 H    0.965
                            16 C    0.106
    22   6 C    3.993 --     3 C    1.015    23 C    0.962    40 H    0.952
                            39 H    0.940
    23   6 C    3.911 --    25 O    1.777    24 O    1.125    22 C    0.962
    24   8 O    2.191 --    23 C    1.125    41 H    0.866    25 O    0.171
    25   8 O    2.049 --    23 C    1.777    24 O    0.171
    26   1 H    0.997 --     1 C    0.980
    27   1 H    0.990 --     1 C    0.961
    28   1 H    0.993 --     1 C    0.965
    29   1 H    0.996 --     9 C    0.966
    30   1 H    0.995 --    10 C    0.966
    31   1 H    0.995 --    13 C    0.966
    32   1 H    0.997 --    14 C    0.967
    33   1 H    0.998 --    16 C    0.965
    34   1 H    0.998 --    17 C    0.966
    35   1 H    0.998 --    20 C    0.977
    36   1 H    0.998 --    20 C    0.976
    37   1 H    0.996 --    20 C    0.979
    38   1 H    0.997 --    21 C    0.965
    39   1 H    0.993 --    22 C    0.940
    40   1 H    0.992 --    22 C    0.952
    41   1 H    0.891 --    24 O    0.866
 ---------------------------------------------------------------------------

Topologies differ in total number of bonds
Writing topology from bond orders to xtbtopo.mol

molecular dipole:
                 x           y           z       tot (Debye)
 q only:       -1.025       0.405      -0.291
   full:       -0.861       0.642       0.007       2.730
molecular quadrupole (traceless):
                xx          xy          yy          xz          yz          zz
 q only:       -4.423       5.115       8.786      -4.008      -2.179      -4.363
  q+dip:       -1.686      11.876       7.530      -4.190      -2.419      -5.843
   full:       -4.022      10.538       9.111      -2.871      -3.453      -5.089

           -------------------------------------------------
          |                Geometry Summary                 |
           -------------------------------------------------

      molecular mass/u    :      357.7882946
   center of mass at/Å    :        0.4692566      -0.0064419       0.1909259
  moments of inertia/u·Å² :        0.1879941E+04   0.4050827E+04   0.5163842E+04
rotational constants/cm⁻¹ :        0.8967106E-02   0.4161529E-02   0.3264552E-02

 * 41 selected distances

     #   Z          #   Z                                           value/Å
     1   6 C        2   6 C                                       1.4835360
     2   6 C        3   6 C                                       1.3607436
     3   6 C        4   6 C                                       1.4352759
     4   6 C        5   6 C                                       1.4117516
     2   6 C        6   7 N                                       1.3983172
     5   6 C        6   7 N                                       1.3943955
     6   7 N        7   6 C                                       1.3859168
     8   6 C        9   6 C                                       1.3909607
     9   6 C       10   6 C                                       1.3820470
    10   6 C       11   6 C                                       1.3868102
    11   6 C       12  17 Cl                                      1.7264328 (max)
    11   6 C       13   6 C                                       1.3878284
     8   6 C       14   6 C                                       1.3932444
    13   6 C       14   6 C                                       1.3811550
     7   6 C       15   8 O                                       1.2107010
     5   6 C       16   6 C                                       1.3829974
    16   6 C       17   6 C                                       1.3842720
    17   6 C       18   6 C                                       1.3978404
    18   6 C       19   8 O                                       1.3645096
    19   8 O       20   6 C                                       1.4060940
     4   6 C       21   6 C                                       1.3855346
    18   6 C       21   6 C                                       1.3901821
     3   6 C       22   6 C                                       1.4915040
    23   6 C       24   8 O                                       1.3410940
    23   6 C       25   8 O                                       1.1992950
     1   6 C       26   1 H                                       1.0858919
     1   6 C       27   1 H                                       1.0892991
     1   6 C       28   1 H                                       1.0884578
     9   6 C       29   1 H                                       1.0791744
    10   6 C       30   1 H                                       1.0785054
    13   6 C       31   1 H                                       1.0783017
    14   6 C       32   1 H                                       1.0796765
    16   6 C       33   1 H                                       1.0780383
    17   6 C       34   1 H                                       1.0777567
    20   6 C       35   1 H                                       1.0948401
    20   6 C       36   1 H                                       1.0949904
    20   6 C       37   1 H                                       1.0888991
    21   6 C       38   1 H                                       1.0778320
    22   6 C       39   1 H                                       1.0926035
    22   6 C       40   1 H                                       1.0906253
    24   8 O       41   1 H                                       0.9700702 (min)

 * 6 distinct bonds (by element types)

   Z      Z             #   av. dist./Å        max./Å        min./Å
   1 H    6 C          15     1.0849928     1.0949904     1.0777567
   6 C    6 C          16     1.4028552     1.4915040     1.3607436
   6 C    7 N           3     1.3928765     1.3983172     1.3859168
   1 H    8 O           1     0.9700702     0.9700702     0.9700702
   6 C    8 O           5     1.3043387     1.4060940     1.1992950
   6 C   17 Cl          1     1.7264328     1.7264328     1.7264328


optimized geometry written to: xtbopt.xyz


           -------------------------------------------------
          | TOTAL ENERGY              -72.629072392067 Eh   |
          | GRADIENT NORM               0.000697142276 Eh/α |
          | HOMO-LUMO GAP               2.484460105209 eV   |
           -------------------------------------------------

------------------------------------------------------------------------
 * finished run on 2025/05/15 at 16:24:07.789     
------------------------------------------------------------------------
 total:
 * wall-time:     0 d,  0 h,  0 min,  1.901 sec
 *  cpu-time:     0 d,  0 h,  0 min,  1.003 sec
 * ratio c/w:     0.528 speedup
 SCF:
 * wall-time:     0 d,  0 h,  0 min,  0.118 sec
 *  cpu-time:     0 d,  0 h,  0 min,  0.068 sec
 * ratio c/w:     0.581 speedup
 ANC optimizer:
 * wall-time:     0 d,  0 h,  0 min,  1.721 sec
 *  cpu-time:     0 d,  0 h,  0 min,  0.921 sec
 * ratio c/w:     0.535 speedup



----- Single-point -----
      -----------------------------------------------------------      
     |                   =====================                   |     
     |                           x T B                           |     
     |                   =====================                   |     
     |                         S. Grimme                         |     
     |          Mulliken Center for Theoretical Chemistry        |     
     |                    University of Bonn                     |     
      -----------------------------------------------------------      

   * xtb version 6.7.1 (edcfbbe) compiled by 'conda@3ef47c1a292c' on 2024-11-25

   xtb is free software: you can redistribute it and/or modify it under
   the terms of the GNU Lesser General Public License as published by
   the Free Software Foundation, either version 3 of the License, or
   (at your option) any later version.
   
   xtb is distributed in the hope that it will be useful,
   but WITHOUT ANY WARRANTY; without even the implied warranty of
   MERCHANTABILITY or FITNESS FOR A PARTICULAR PURPOSE.  See the
   GNU Lesser General Public License for more details.
   
   Cite this work as:
   * C. Bannwarth, E. Caldeweyher, S. Ehlert, A. Hansen, P. Pracht,
     J. Seibert, S. Spicher, S. Grimme, WIREs Comput. Mol. Sci., 2020, 11,
     e01493. DOI: 10.1002/wcms.1493
   
   for GFN2-xTB:
   * C. Bannwarth, S. Ehlert and S. Grimme., J. Chem. Theory Comput., 2019,
     15, 1652-1671. DOI: 10.1021/acs.jctc.8b01176
   for GFN1-xTB:
   * S. Grimme, C. Bannwarth, P. Shushkov, J. Chem. Theory Comput., 2017,
     13, 1989-2009. DOI: 10.1021/acs.jctc.7b00118
   for GFN0-xTB:
   * P. Pracht, E. Caldeweyher, S. Ehlert, S. Grimme, ChemRxiv, 2019, preprint.
     DOI: 10.26434/chemrxiv.8326202.v1
   for GFN-FF:
   * S. Spicher and S. Grimme, Angew. Chem. Int. Ed., 2020, 59, 15665-15673.
     DOI: 10.1002/anie.202004239
   
   for ALPB and GBSA implicit solvation:
   * S. Ehlert, M. Stahn, S. Spicher, S. Grimme, J. Chem. Theory Comput.,
     2021, 17, 4250-4261. DOI: 10.1021/acs.jctc.1c00471
   
   for ddCOSMO and CPCM-X implicit solvation:
   * M. Stahn, S. Ehlert, S. Grimme, J. Phys. Chem. A,
     2023, XX, XXXX-XXXX. DOI: 10.1021/acs.jpca.3c04382
   
   for DFT-D4:
   * E. Caldeweyher, C. Bannwarth and S. Grimme, J. Chem. Phys., 2017,
     147, 034112. DOI: 10.1063/1.4993215
   * E. Caldeweyher, S. Ehlert, A. Hansen, H. Neugebauer, S. Spicher,
     C. Bannwarth and S. Grimme, J. Chem. Phys., 2019, 150, 154122.
     DOI: 10.1063/1.5090222
   * E. Caldeweyher, J.-M. Mewes, S. Ehlert and S. Grimme, Phys. Chem. Chem. Phys.
     2020, 22, 8499-8512. DOI: 10.1039/D0CP00502A
   
   for sTDA-xTB:
   * S. Grimme and C. Bannwarth, J. Chem. Phys., 2016, 145, 054103.
     DOI: 10.1063/1.4959605
   
   in the mass-spec context:
   * V. Asgeirsson, C. Bauer and S. Grimme, Chem. Sci., 2017, 8, 4879.
     DOI: 10.1039/c7sc00601b
   * J. Koopman and S. Grimme, ACS Omega 2019, 4, 12, 15120-15133.
     DOI: 10.1021/acsomega.9b02011
   
   for metadynamics refer to:
   * S. Grimme, J. Chem. Theory Comput., 2019, 155, 2847-2862
     DOI: 10.1021/acs.jctc.9b00143
   
   for SPH calculations refer to:
   * S. Spicher and S. Grimme, J. Chem. Theory Comput., 2021, 17, 1701-1714
     DOI: 10.1021/acs.jctc.0c01306
   
   for ONIOM refer to:
   * C. Plett, A. Katbashev, S. Ehlert, S. Grimme, M. Bursch,
     Phys. Chem. Chem. Phys., 2023, 25, 17860-17868. DOI: 10.1039/D3CP02178E
   
   for DIPRO refer to:
   * J. Kohn, N. Gildemeister, S. Grimme, D. Fazzi, A. Hansen,
     J. Chem. Phys., 2023, just accepted.
   
   for PTB refer to:
   * S. Grimme, M. Mueller, A. Hansen, J. Chem. Phys., 2023, 158, 124111.
     DOI: 10.1063/5.0137838
   
   with help from (in alphabetical order)
   P. Atkinson, C. Bannwarth, F. Bohle, G. Brandenburg, E. Caldeweyher
   M. Checinski, S. Dohm, S. Ehlert, S. Ehrlich, I. Gerasimov, C. Hölzer
   A. Katbashev, J. Kohn, J. Koopman, C. Lavigne, S. Lehtola, F. März, M. Müller,
   F. Musil, H. Neugebauer, J. Pisarek, C. Plett, P. Pracht, F. Pultar,
   J. Seibert, P. Shushkov, S. Spicher, M. Stahn, M. Steiner, T. Strunk,
   J. Stückrath, T. Rose, and J. Unsleber
   
 * started run on 2025/05/15 at 16:24:07.814     
   ID    Z sym.   atoms
    1    6 C      1-5, 7-11, 13, 14, 16-18, 20-23
    2    7 N      6
    3   17 Cl     12
    4    8 O      15, 19, 24, 25
    5    1 H      26-41

           -------------------------------------------------
          |                Calculation Setup                |
           -------------------------------------------------

          program call               : xtb /rds/general/user/hgt20/home/callum/QDESCP/Indomethacin_rdkit_conf_2/Indomethacin_rdkit_conf_2.xyz --acc 1 --gfn 2 --chrg 0 --uhf 0 --etemp 300 --input /rds/general/user/hgt20/home/callum/QDESCP/Indomethacin_rdkit_conf_2/Indomethacin_rdkit_conf_2_xtb.inp -P 1
          hostname                   : login-c
          coordinate file            : /rds/general/user/hgt20/home/callum/QDESCP/Indomethacin_rdkit_conf_2/Indomethacin_rdkit_conf_2.xyz
          omp threads                :                     1


           -------------------------------------------------
          |                 G F N 2 - x T B                 |
           -------------------------------------------------

        Reference                      10.1021/acs.jctc.8b01176
      * Hamiltonian:
        H0-scaling (s, p, d)           1.850000    2.230000    2.230000
        zeta-weighting                 0.500000
      * Dispersion:
        s8                             2.700000
        a1                             0.520000
        a2                             5.000000
        s9                             5.000000
      * Repulsion:
        kExp                           1.500000    1.000000
        rExp                           1.000000
      * Coulomb:
        alpha                          2.000000
        third order                    shell-resolved
        anisotropic                    true
        a3                             3.000000
        a5                             4.000000
        cn-shift                       1.200000
        cn-exp                         4.000000
        max-rad                        5.000000

q/qsh data taken from xtbrestart
CAMM data taken from xtbrestart

          ...................................................
          :                      SETUP                      :
          :.................................................:
          :  # basis functions                 122          :
          :  # atomic orbitals                 121          :
          :  # shells                           67          :
          :  # electrons                       128          :
          :  max. iterations                   250          :
          :  Hamiltonian                  GFN2-xTB          :
          :  restarted?                       true          :
          :  GBSA solvation                  false          :
          :  PC potential                    false          :
          :  electronic temp.          300.0000000     K    :
          :  accuracy                    1.0000000          :
          :  -> integral cutoff          0.2500000E+02      :
          :  -> integral neglect         0.1000000E-07      :
          :  -> SCF convergence          0.1000000E-05 Eh   :
          :  -> wf. convergence          0.1000000E-03 e    :
          :  Broyden damping             0.4000000          :
          :  net charge                          0          :
          :  unpaired electrons                  0          :
          ...................................................

 iter      E             dE          RMSdq      gap      omega  full diag
   1    -73.6107975 -0.736108E+02  0.298E-05    2.48       0.0  T
   2    -73.6107975 -0.598277E-11  0.252E-05    2.48     619.9  T
   3    -73.6107975 -0.343903E-11  0.215E-05    2.48     727.0  T

   *** convergence criteria satisfied after 3 iterations ***

         #    Occupation            Energy/Eh            Energy/eV
      -------------------------------------------------------------
         1        2.0000           -1.0632574             -28.9327
       ...           ...                  ...                  ...
        58        2.0000           -0.4271557             -11.6235
        59        2.0000           -0.4258118             -11.5869
        60        2.0000           -0.4214872             -11.4693
        61        2.0000           -0.4102349             -11.1631
        62        2.0000           -0.4080714             -11.1042
        63        2.0000           -0.3777161             -10.2782
        64        2.0000           -0.3721860             -10.1277 (HOMO)
        65                         -0.2808837              -7.6432 (LUMO)
        66                         -0.2509422              -6.8285
        67                         -0.2434292              -6.6240
        68                         -0.2370832              -6.4514
        69                         -0.2267376              -6.1698
       ...                                ...                  ...
       121                          0.7176260              19.5276
      -------------------------------------------------------------
                  HL-Gap            0.0913023 Eh            2.4845 eV
             Fermi-level           -0.3265348 Eh           -8.8855 eV

 SCC (total)                   0 d,  0 h,  0 min,  0.072 sec
 SCC setup                      ...        0 min,  0.000 sec (  0.540%)
 Dispersion                     ...        0 min,  0.001 sec (  0.713%)
 classical contributions        ...        0 min,  0.000 sec (  0.209%)
 integral evaluation            ...        0 min,  0.009 sec ( 12.121%)
 iterations                     ...        0 min,  0.009 sec ( 12.211%)
 molecular gradient             ...        0 min,  0.053 sec ( 73.849%)
 printout                       ...        0 min,  0.000 sec (  0.346%)

         :::::::::::::::::::::::::::::::::::::::::::::::::::::
         ::                     SUMMARY                     ::
         :::::::::::::::::::::::::::::::::::::::::::::::::::::
         :: total energy             -72.629072392133 Eh    ::
         :: gradient norm              0.000697792640 Eh/a0 ::
         :: HOMO-LUMO gap              2.484462341067 eV    ::
         ::.................................................::
         :: SCC energy               -73.610456347365 Eh    ::
         :: -> isotropic ES            0.097358693767 Eh    ::
         :: -> anisotropic ES          0.003095548325 Eh    ::
         :: -> anisotropic XC          0.018594017667 Eh    ::
         :: -> dispersion             -0.049194244591 Eh    ::
         :: repulsion energy           0.981383955232 Eh    ::
         :: add. restraining           0.000000000000 Eh    ::
         :: total charge              -0.000000000000 e     ::
         :::::::::::::::::::::::::::::::::::::::::::::::::::::

           -------------------------------------------------
          |                Property Printout                |
           -------------------------------------------------

    * Orbital Energies and Occupations

         #    Occupation            Energy/Eh            Energy/eV
      -------------------------------------------------------------
         1        2.0000           -1.0632574             -28.9327
       ...           ...                  ...                  ...
        52        2.0000           -0.4578211             -12.4579
        53        2.0000           -0.4530180             -12.3272
        54        2.0000           -0.4491851             -12.2229
        55        2.0000           -0.4379783             -11.9180
        56        2.0000           -0.4361377             -11.8679
        57        2.0000           -0.4325466             -11.7702
        58        2.0000           -0.4271557             -11.6235
        59        2.0000           -0.4258118             -11.5869
        60        2.0000           -0.4214872             -11.4693
        61        2.0000           -0.4102349             -11.1631
        62        2.0000           -0.4080714             -11.1042
        63        2.0000           -0.3777161             -10.2782
        64        2.0000           -0.3721860             -10.1277 (HOMO)
        65                         -0.2808837              -7.6432 (LUMO)
        66                         -0.2509422              -6.8285
        67                         -0.2434292              -6.6240
        68                         -0.2370832              -6.4514
        69                         -0.2267376              -6.1698
        70                         -0.1937858              -5.2732
        71                         -0.1637364              -4.4555
        72                         -0.1445937              -3.9346
        73                         -0.1174370              -3.1956
        74                         -0.0813475              -2.2136
        75                         -0.0017136              -0.0466
       ...                                ...                  ...
       121                          0.7176260              19.5276
      -------------------------------------------------------------
                  HL-Gap            0.0913023 Eh            2.4845 eV
             Fermi-level           -0.3265348 Eh           -8.8855 eV

     #   Z          covCN         q      C6AA      α(0)
     1   6 C        3.754    -0.110    22.669     6.789
     2   6 C        3.043     0.056    26.711     8.477
     3   6 C        3.049    -0.026    28.608     8.772
     4   6 C        3.092    -0.008    28.119     8.691
     5   6 C        3.053     0.030    27.277     8.565
     6   7 N        2.814    -0.053    22.254     7.006
     7   6 C        2.762     0.277    22.312     7.735
     8   6 C        2.974    -0.015    28.371     8.737
     9   6 C        2.925    -0.018    28.462     8.749
    10   6 C        2.954    -0.037    28.917     8.820
    11   6 C        2.889     0.104    25.706     8.312
    12  17 Cl       0.968    -0.166   104.360    15.629
    13   6 C        2.954    -0.036    28.905     8.818
    14   6 C        2.924    -0.022    28.553     8.763
    15   8 O        0.858    -0.384    21.358     6.196
    16   6 C        2.911    -0.048    29.196     8.860
    17   6 C        2.922    -0.071    29.766     8.947
    18   6 C        2.864     0.139    24.971     8.191
    19   8 O        1.706    -0.270    18.474     5.803
    20   6 C        3.643     0.037    20.288     6.475
    21   6 C        2.914    -0.062    29.551     8.914
    22   6 C        3.806    -0.089    22.193     6.706
    23   6 C        2.690     0.364    20.820     7.467
    24   8 O        1.660    -0.381    20.486     6.110
    25   8 O        0.856    -0.403    21.749     6.253
    26   1 H        0.925     0.051     2.313     2.378
    27   1 H        0.925     0.074     2.043     2.235
    28   1 H        0.925     0.067     2.124     2.279
    29   1 H        0.926     0.065     2.143     2.289
    30   1 H        0.926     0.064     2.151     2.293
    31   1 H        0.926     0.064     2.154     2.295
    32   1 H        0.926     0.057     2.238     2.339
    33   1 H        0.926     0.033     2.544     2.494
    34   1 H        0.926     0.040     2.454     2.450
    35   1 H        0.924     0.040     2.448     2.447
    36   1 H        0.924     0.040     2.455     2.450
    37   1 H        0.925     0.062     2.172     2.305
    38   1 H        0.926     0.050     2.323     2.384
    39   1 H        0.924     0.078     2.001     2.212
    40   1 H        0.924     0.081     1.965     2.192
    41   1 H        0.804     0.329     0.639     1.256

 Mol. C6AA /au·bohr⁶  :      23520.677484
 Mol. C8AA /au·bohr⁸  :     597052.280407
 Mol. α(0) /au        :        240.087899


Wiberg/Mayer (AO) data.
largest (>0.10) Wiberg bond orders for each atom

 ---------------------------------------------------------------------------
     #   Z sym  total        # sym  WBO       # sym  WBO       # sym  WBO
 ---------------------------------------------------------------------------
     1   6 C    3.992 --     2 C    1.040    26 H    0.980    28 H    0.965
                            27 H    0.961
     2   6 C    3.952 --     3 C    1.599     6 N    1.098     1 C    1.040
     3   6 C    3.973 --     2 C    1.599     4 C    1.159    22 C    1.015
     4   6 C    3.986 --    21 C    1.374     5 C    1.258     3 C    1.159
     5   6 C    3.952 --    16 C    1.384     4 C    1.258     6 N    1.083
     6   7 N    3.604 --     7 C    1.108     2 C    1.098     5 C    1.083
                            15 O    0.121
     7   6 C    3.942 --    15 O    1.738     6 N    1.108     8 C    0.990
     8   6 C    3.987 --     9 C    1.393    14 C    1.383     7 C    0.990
     9   6 C    3.986 --    10 C    1.449     8 C    1.393    29 H    0.966
                            13 C    0.105
    10   6 C    3.988 --     9 C    1.449    11 C    1.400    30 H    0.966
                            14 C    0.106
    11   6 C    3.918 --    10 C    1.400    13 C    1.394    12 Cl   0.983
    12  17 Cl   1.121 --    11 C    0.983
    13   6 C    3.988 --    14 C    1.456    11 C    1.394    31 H    0.966
                             9 C    0.105
    14   6 C    3.990 --    13 C    1.456     8 C    1.383    32 H    0.967
                            10 C    0.106
    15   8 O    2.040 --     7 C    1.738     6 N    0.121
    16   6 C    3.989 --    17 C    1.453     5 C    1.384    33 H    0.965
                            21 C    0.106
    17   6 C    3.981 --    16 C    1.453    18 C    1.343    34 H    0.966
    18   6 C    3.929 --    21 C    1.385    17 C    1.343    19 O    1.057
    19   8 O    2.221 --    18 C    1.057    20 C    0.987
[...]
     DOI: 10.1002/anie.202004239
   
   for ALPB and GBSA implicit solvation:
   * S. Ehlert, M. Stahn, S. Spicher, S. Grimme, J. Chem. Theory Comput.,
     2021, 17, 4250-4261. DOI: 10.1021/acs.jctc.1c00471
   
   for ddCOSMO and CPCM-X implicit solvation:
   * M. Stahn, S. Ehlert, S. Grimme, J. Phys. Chem. A,
     2023, XX, XXXX-XXXX. DOI: 10.1021/acs.jpca.3c04382
   
   for DFT-D4:
   * E. Caldeweyher, C. Bannwarth and S. Grimme, J. Chem. Phys., 2017,
     147, 034112. DOI: 10.1063/1.4993215
   * E. Caldeweyher, S. Ehlert, A. Hansen, H. Neugebauer, S. Spicher,
     C. Bannwarth and S. Grimme, J. Chem. Phys., 2019, 150, 154122.
     DOI: 10.1063/1.5090222
   * E. Caldeweyher, J.-M. Mewes, S. Ehlert and S. Grimme, Phys. Chem. Chem. Phys.
     2020, 22, 8499-8512. DOI: 10.1039/D0CP00502A
   
   for sTDA-xTB:
   * S. Grimme and C. Bannwarth, J. Chem. Phys., 2016, 145, 054103.
     DOI: 10.1063/1.4959605
   
   in the mass-spec context:
   * V. Asgeirsson, C. Bauer and S. Grimme, Chem. Sci., 2017, 8, 4879.
     DOI: 10.1039/c7sc00601b
   * J. Koopman and S. Grimme, ACS Omega 2019, 4, 12, 15120-15133.
     DOI: 10.1021/acsomega.9b02011
   
   for metadynamics refer to:
   * S. Grimme, J. Chem. Theory Comput., 2019, 155, 2847-2862
     DOI: 10.1021/acs.jctc.9b00143
   
   for SPH calculations refer to:
   * S. Spicher and S. Grimme, J. Chem. Theory Comput., 2021, 17, 1701-1714
     DOI: 10.1021/acs.jctc.0c01306
   
   for ONIOM refer to:
   * C. Plett, A. Katbashev, S. Ehlert, S. Grimme, M. Bursch,
     Phys. Chem. Chem. Phys., 2023, 25, 17860-17868. DOI: 10.1039/D3CP02178E
   
   for DIPRO refer to:
   * J. Kohn, N. Gildemeister, S. Grimme, D. Fazzi, A. Hansen,
     J. Chem. Phys., 2023, just accepted.
   
   for PTB refer to:
   * S. Grimme, M. Mueller, A. Hansen, J. Chem. Phys., 2023, 158, 124111.
     DOI: 10.1063/5.0137838
   
   with help from (in alphabetical order)
   P. Atkinson, C. Bannwarth, F. Bohle, G. Brandenburg, E. Caldeweyher
   M. Checinski, S. Dohm, S. Ehlert, S. Ehrlich, I. Gerasimov, C. Hölzer
   A. Katbashev, J. Kohn, J. Koopman, C. Lavigne, S. Lehtola, F. März, M. Müller,
   F. Musil, H. Neugebauer, J. Pisarek, C. Plett, P. Pracht, F. Pultar,
   J. Seibert, P. Shushkov, S. Spicher, M. Stahn, M. Steiner, T. Strunk,
   J. Stückrath, T. Rose, and J. Unsleber
   
 * started run on 2025/05/15 at 16:24:10.724     
   ID    Z sym.   atoms
    1    6 C      1-5, 7-11, 13, 14, 16-18, 20-23
    2    7 N      6
    3   17 Cl     12
    4    8 O      15, 19, 24, 25
    5    1 H      26-41

           -------------------------------------------------
          |                Calculation Setup                |
           -------------------------------------------------

          program call               : xtb /rds/general/user/hgt20/home/callum/QDESCP/Indomethacin_rdkit_conf_2/Indomethacin_rdkit_conf_2.xyz --acc 1 --gfn 2 --chrg 0 --uhf 2 --etemp 300 --input /rds/general/user/hgt20/home/callum/QDESCP/Indomethacin_rdkit_conf_2/Indomethacin_rdkit_conf_2_xtb.inp -P 1
          hostname                   : login-c
          coordinate file            : /rds/general/user/hgt20/home/callum/QDESCP/Indomethacin_rdkit_conf_2/Indomethacin_rdkit_conf_2.xyz
          omp threads                :                     1


           -------------------------------------------------
          |                 G F N 2 - x T B                 |
           -------------------------------------------------

        Reference                      10.1021/acs.jctc.8b01176
      * Hamiltonian:
        H0-scaling (s, p, d)           1.850000    2.230000    2.230000
        zeta-weighting                 0.500000
      * Dispersion:
        s8                             2.700000
        a1                             0.520000
        a2                             5.000000
        s9                             5.000000
      * Repulsion:
        kExp                           1.500000    1.000000
        rExp                           1.000000
      * Coulomb:
        alpha                          2.000000
        third order                    shell-resolved
        anisotropic                    true
        a3                             3.000000
        a5                             4.000000
        cn-shift                       1.200000
        cn-exp                         4.000000
        max-rad                        5.000000


          ...................................................
          :                      SETUP                      :
          :.................................................:
          :  # basis functions                 122          :
          :  # atomic orbitals                 121          :
          :  # shells                           67          :
          :  # electrons                       128          :
          :  max. iterations                   250          :
          :  Hamiltonian                  GFN2-xTB          :
          :  restarted?                      false          :
          :  GBSA solvation                  false          :
          :  PC potential                    false          :
          :  electronic temp.          300.0000000     K    :
          :  accuracy                    1.0000000          :
          :  -> integral cutoff          0.2500000E+02      :
          :  -> integral neglect         0.1000000E-07      :
          :  -> SCF convergence          0.1000000E-05 Eh   :
          :  -> wf. convergence          0.1000000E-03 e    :
          :  Broyden damping             0.4000000          :
          :  net charge                          0          :
          :  unpaired electrons                  2          :
          ...................................................

 iter      E             dE          RMSdq      gap      omega  full diag
   1    -73.3465542 -0.733466E+02  0.450E+00    0.56       0.0  T
   2    -73.1940725  0.152482E+00  0.285E+00    0.34       1.0  T
   3    -73.1983480 -0.427548E-02  0.280E+00    1.28       1.0  T
   4    -73.4026423 -0.204294E+00  0.167E+00    0.79       1.0  T
   5    -73.4038678 -0.122551E-02  0.131E+00    0.71       1.0  T
   6    -73.4555726 -0.517048E-01  0.895E-01    0.44       1.0  T
   7    -73.4848043 -0.292317E-01  0.499E-01    0.39       1.0  T
   8    -73.4838061  0.998158E-03  0.465E-01    0.40       1.0  T
   9    -73.4896958 -0.588965E-02  0.306E-01    0.32       1.0  T
  10    -73.4819728  0.772303E-02  0.469E-01    0.42       1.0  T
  11    -73.4963011 -0.143283E-01  0.146E-01    0.35       1.0  T
  12    -73.4975434 -0.124235E-02  0.540E-02    0.34       1.0  T
  13    -73.4970873  0.456160E-03  0.927E-02    0.33       1.0  T
  14    -73.4974916 -0.404354E-03  0.583E-02    0.35       1.0  T
  15    -73.4977488 -0.257169E-03  0.115E-02    0.34       1.4  T
  16    -73.4977414  0.740150E-05  0.129E-02    0.34       1.2  T
  17    -73.4977461 -0.472174E-05  0.106E-02    0.34       1.5  T
  18    -73.4977538 -0.774142E-05  0.296E-03    0.34       5.3  T
  19    -73.4977529  0.978987E-06  0.468E-03    0.34       3.3  T
  20    -73.4977506  0.230261E-05  0.707E-03    0.34       2.2  T
  21    -73.4977544 -0.383586E-05  0.113E-03    0.34      13.8  T
  22    -73.4977544 -0.395999E-07  0.894E-04    0.34      17.5  T
  23    -73.4977545 -0.631351E-07  0.160E-04    0.34      97.6  T

   *** convergence criteria satisfied after 23 iterations ***

         #    Occupation            Energy/Eh            Energy/eV
      -------------------------------------------------------------
         1        2.0000           -1.0507882             -28.5934
       ...           ...                  ...                  ...
        59        2.0000           -0.4115876             -11.1999
        60        2.0000           -0.4110713             -11.1858
        61        1.9994           -0.3930028             -10.6942
        62        1.9918           -0.3905145             -10.6264
        63        1.7388           -0.3869507             -10.5295
        64        1.2701           -0.3850185             -10.4769
        65        0.9986           -0.2635105              -7.1705 (HOMO)
        66        0.0013           -0.2509812              -6.8295 (LUMO)
        67        0.0001           -0.2487735              -6.7695
        68                         -0.2289504              -6.2301
        69                         -0.2225297              -6.0553
        70                         -0.1965505              -5.3484
       ...                                ...                  ...
       121                          0.7076465              19.2560
      -------------------------------------------------------------
                  HL-Gap            0.0125293 Eh            0.3409 eV
             Fermi-level           -0.3216267 Eh           -8.7519 eV

 transition dipole moment (au) for excitation:          64          65
     X       Y       Z   
  -1.5870   0.5113   0.1488  total (au/Debye):    1.674   4.255
 dE (eV)             :    3.306
 oscillator strength :  0.32100E+00

 SCC (total)                   0 d,  0 h,  0 min,  0.254 sec
 SCC setup                      ...        0 min,  0.000 sec (  0.151%)
 Dispersion                     ...        0 min,  0.000 sec (  0.195%)
 classical contributions        ...        0 min,  0.000 sec (  0.055%)
 integral evaluation            ...        0 min,  0.055 sec ( 21.567%)
 iterations                     ...        0 min,  0.107 sec ( 42.128%)
 molecular gradient             ...        0 min,  0.027 sec ( 10.626%)
 printout                       ...        0 min,  0.064 sec ( 25.275%)

         :::::::::::::::::::::::::::::::::::::::::::::::::::::
         ::                     SUMMARY                     ::
         :::::::::::::::::::::::::::::::::::::::::::::::::::::
         :: total energy             -72.516029379832 Eh    ::
         :: gradient norm              0.110446674811 Eh/a0 ::
         :: HOMO-LUMO gap              0.340940037875 eV    ::
         ::.................................................::
         :: SCC energy               -73.497413335064 Eh    ::
         :: -> isotropic ES            0.097360163873 Eh    ::
         :: -> anisotropic ES          0.003122544949 Eh    ::
         :: -> anisotropic XC          0.017798404055 Eh    ::
         :: -> dispersion             -0.049148843587 Eh    ::
         :: repulsion energy           0.981383955232 Eh    ::
         :: add. restraining           0.000000000000 Eh    ::
         :: total charge               0.000000000000 e     ::
         :::::::::::::::::::::::::::::::::::::::::::::::::::::

           -------------------------------------------------
          |                Property Printout                |
           -------------------------------------------------

    * Orbital Energies and Occupations

         #    Occupation            Energy/Eh            Energy/eV
      -------------------------------------------------------------
         1        2.0000           -1.0507882             -28.5934
       ...           ...                  ...                  ...
        53        2.0000           -0.4484951             -12.2042
        54        2.0000           -0.4460317             -12.1371
        55        2.0000           -0.4428855             -12.0515
        56        2.0000           -0.4366130             -11.8808
        57        2.0000           -0.4341478             -11.8138
        58        2.0000           -0.4331028             -11.7853
        59        2.0000           -0.4115876             -11.1999
        60        2.0000           -0.4110713             -11.1858
        61        1.9994           -0.3930028             -10.6942
        62        1.9918           -0.3905145             -10.6264
        63        1.7388           -0.3869507             -10.5295
        64        1.2701           -0.3850185             -10.4769
        65        0.9986           -0.2635105              -7.1705 (HOMO)
        66        0.0013           -0.2509812              -6.8295 (LUMO)
        67        0.0001           -0.2487735              -6.7695
        68                         -0.2289504              -6.2301
        69                         -0.2225297              -6.0553
        70                         -0.1965505              -5.3484
        71                         -0.1659128              -4.5147
        72                         -0.1292289              -3.5165
        73                         -0.0975984              -2.6558
        74                         -0.0926772              -2.5219
        75                         -0.0034228              -0.0931
        76                          0.0122999               0.3347
       ...                                ...                  ...
       121                          0.7076465              19.2560
      -------------------------------------------------------------
                  HL-Gap            0.0125293 Eh            0.3409 eV
             Fermi-level           -0.3216267 Eh           -8.7519 eV

     #   Z          covCN         q      C6AA      α(0)
     1   6 C        3.754    -0.110    22.658     6.787
     2   6 C        3.043     0.049    26.855     8.500
     3   6 C        3.049    -0.003    28.056     8.687
     4   6 C        3.092    -0.021    28.428     8.739
     5   6 C        3.053     0.037    27.113     8.540
     6   7 N        2.814    -0.025    21.737     6.924
     7   6 C        2.762     0.231    23.151     7.880
     8   6 C        2.974    -0.021    28.527     8.761
     9   6 C        2.925    -0.030    28.750     8.793
    10   6 C        2.954    -0.040    28.990     8.831
    11   6 C        2.889     0.087    26.065     8.370
    12  17 Cl       0.968    -0.175   104.632    15.649
    13   6 C        2.954    -0.041    29.027     8.837
    14   6 C        2.924    -0.035    28.865     8.811
    15   8 O        0.858    -0.414    21.956     6.282
    16   6 C        2.911    -0.033    28.833     8.805
    17   6 C        2.922    -0.076    29.909     8.968
    18   6 C        2.864     0.147    24.810     8.165
    19   8 O        1.706    -0.249    18.132     5.749
    20   6 C        3.643     0.032    20.380     6.490
    21   6 C        2.914    -0.046    29.142     8.852
    22   6 C        3.806    -0.089    22.202     6.708
    23   6 C        2.690     0.366    20.786     7.461
    24   8 O        1.660    -0.377    20.415     6.100
    25   8 O        0.856    -0.395    21.578     6.228
    26   1 H        0.925     0.051     2.310     2.377
    27   1 H        0.925     0.083     1.946     2.182
    28   1 H        0.925     0.077     2.008     2.216
    29   1 H        0.926     0.053     2.280     2.361
    30   1 H        0.926     0.053     2.286     2.365
    31   1 H        0.926     0.050     2.314     2.379
    32   1 H        0.926     0.039     2.466     2.455
    33   1 H        0.926     0.051     2.306     2.375
    34   1 H        0.926     0.045     2.384     2.415
    35   1 H        0.924     0.050     2.320     2.382
    36   1 H        0.924     0.049     2.331     2.388
    37   1 H        0.925     0.069     2.095     2.263
    38   1 H        0.926     0.057     2.237     2.339
    39   1 H        0.924     0.086     1.915     2.164
    40   1 H        0.924     0.086     1.919     2.166
    41   1 H        0.804     0.333     0.629     1.246

 Mol. C6AA /au·bohr⁶  :      23499.280800
 Mol. C8AA /au·bohr⁸  :     596982.686642
 Mol. α(0) /au        :        239.989063


Wiberg/Mayer (AO) data.
largest (>0.10) Wiberg bond orders for each atom

 ---------------------------------------------------------------------------
     #   Z sym  total        # sym  WBO       # sym  WBO       # sym  WBO
 ---------------------------------------------------------------------------
     1   6 C    3.982 --     2 C    1.050    26 H    0.978    28 H    0.959
                            27 H    0.949
     2   6 C    3.818 --     3 C    1.333     6 N    1.165     1 C    1.050
     3   6 C    3.806 --     2 C    1.333     4 C    1.221    22 C    1.029
     4   6 C    3.949 --    21 C    1.313     3 C    1.221     5 C    1.206
     5   6 C    3.922 --    16 C    1.402     4 C    1.206     6 N    1.097
     6   7 N    3.584 --     2 C    1.165     5 C    1.097     7 C    1.055
     7   6 C    3.903 --    15 O    1.588     6 N    1.055     8 C    1.026
     8   6 C    3.908 --     9 C    1.322    14 C    1.317     7 C    1.026
     9   6 C    3.965 --    10 C    1.479     8 C    1.322    29 H    0.967
    10   6 C    3.969 --     9 C    1.479    11 C    1.362    30 H    0.967
    11   6 C    3.824 --    10 C    1.362    13 C    1.349    12 Cl   0.968
    12  17 Cl   1.076 --    11 C    0.968
    13   6 C    3.968 --    14 C    1.489    11 C    1.349    31 H    0.967
    14   6 C    3.978 --    13 C    1.489     8 C    1.317    32 H    0.968
    15   8 O    1.895 --     7 C    1.588
    16   6 C    3.942 --     5 C    1.402    17 C    1.372    33 H    0.963
    17   6 C    3.903 --    16 C    1.372    18 C    1.338    34 H    0.966
    18   6 C    3.891 --    17 C    1.338    21 C    1.332    19 O    1.078
    19   8 O    2.225 --    18 C    1.078    20 C    0.984
    20   6 C    3.938 --    19 O    0.984    37 H    0.978    35 H    0.973
                            36 H    0.973
    21   6 C    3.834 --    18 C    1.332     4 C    1.313    38 H    0.964
    22   6 C    3.988 --     3 C    1.029    23 C    0.950    40 H    0.949
                            39 H    0.935
    23   6 C    3.903 --    25 O    1.779    24 O    1.128    22 C    0.950
    24   8 O    2.193 --    23 C    1.128    41 H    0.864    25 O    0.172
    25   8 O    2.054 --    23 C    1.779    24 O    0.172
    26   1 H    0.995 --     1 C    0.978
    27   1 H    0.979 --     1 C    0.949
    28   1 H    0.987 --     1 C    0.959
    29   1 H    0.997 --     9 C    0.967
    30   1 H    0.996 --    10 C    0.967
    31   1 H    0.996 --    13 C    0.967
    32   1 H    0.998 --    14 C    0.968
    33   1 H    0.997 --    16 C    0.963
    34   1 H    0.998 --    17 C    0.966
    35   1 H    0.993 --    20 C    0.973
    36   1 H    0.993 --    20 C    0.973
    37   1 H    0.995 --    20 C    0.978
    38   1 H    0.996 --    21 C    0.964
    39   1 H    0.988 --    22 C    0.935
    40   1 H    0.990 --    22 C    0.949
    41   1 H    0.888 --    24 O    0.864
 ---------------------------------------------------------------------------

Topologies differ in total number of bonds
Writing topology from bond orders to xtbtopo.mol

molecular dipole:
                 x           y           z       tot (Debye)
 q only:       -2.615       0.606      -0.391
   full:       -2.544       0.813      -0.098       6.794
molecular quadrupole (traceless):
                xx          xy          yy          xz          yz          zz
 q only:      -10.354       3.880      15.707      -5.012      -2.718      -5.353
  q+dip:       -7.775      10.415      14.252      -5.099      -3.275      -6.477
   full:       -9.935       9.006      15.532      -3.949      -4.166      -5.597


           -------------------------------------------------
          | TOTAL ENERGY              -72.516029379832 Eh   |
          | GRADIENT NORM               0.110446674811 Eh/α |
          | HOMO-LUMO GAP               0.340940037875 eV   |
           -------------------------------------------------

------------------------------------------------------------------------
 * finished run on 2025/05/15 at 16:24:10.992     
------------------------------------------------------------------------
 total:
 * wall-time:     0 d,  0 h,  0 min,  0.268 sec
 *  cpu-time:     0 d,  0 h,  0 min,  0.113 sec
 * ratio c/w:     0.422 speedup
 SCF:
 * wall-time:     0 d,  0 h,  0 min,  0.254 sec
 *  cpu-time:     0 d,  0 h,  0 min,  0.100 sec
 * ratio c/w:     0.395 speedup


