41
 energy: -72.629072392067 gnorm: 0.000697142276 xtb: 6.7.1 (edcfbbe)
C           -0.05456393884593       -3.40956936381731       -1.24622888041686
C           -0.42489004782773       -2.00556542375832       -0.94207427290416
C           -1.65702939218792       -1.48313865110467       -0.69605459966313
C           -1.49005931363945       -0.08444378258046       -0.42075457352946
C           -0.10786355878440        0.18879392212009       -0.50973987918220
N            0.54418916227074       -1.00575304476332       -0.81342260268724
C            1.90642332737174       -1.19709422049974       -0.98215813251022
C            2.78486132718276       -0.30359864488924       -0.17846498264720
C            3.95181166531707        0.19953100750767       -0.74402562675798
C            4.82035863245154        0.96672424181464        0.00903102830592
C            4.53117109653213        1.20402250569197        1.34443439648872
Cl           5.61366852883891        2.15706887191231        2.29336622295131
C            3.38825254664009        0.67966063909389        1.93167301165626
C            2.51546604873041       -0.07098945857735        1.16854978341583
O            2.35945302068070       -2.06609635264126       -1.69307029798556
C            0.35851537071884        1.48573991265953       -0.39527106250080
C           -0.54911973288054        2.49391108253015       -0.11959386497328
C           -1.91359346989302        2.22597252766155        0.02315695822877
O           -2.85736921127275        3.17022246113012        0.30523045188300
C           -2.44678817945674        4.50101363297402        0.49892591331470
C           -2.39105698955114        0.93110718194663       -0.14405061503833
C           -2.95816079171805       -2.21108932667874       -0.65447673799802
C           -3.19983370071922       -2.85067780959036        0.69631858825421
O           -4.46604603283466       -3.27817565621944        0.80805328312313
O           -2.39121954992599       -2.98878450956701        1.57117733266430
H           -0.91453623071916       -4.05800668603548       -1.10788944631905
H            0.30909525915199       -3.49928053579550       -2.26910533054534
H            0.74484268972407       -3.74414344737982       -0.58763236374617
H            4.16610715836333       -0.00830990929223       -1.78108717842555
H            5.71818133365080        1.37225378224814       -0.42986970261143
H            3.18795886488902        0.85834503828519        2.97603344647502
H            1.62642963232372       -0.48400019857512        1.62102909488001
H            1.40017292839039        1.73394500025342       -0.51981076233126
H           -0.17713905882152        3.50098924434905       -0.02481401126711
H           -1.74308022429817        4.58852255067549        1.33307934865030
H           -1.99297801020989        4.91944129362440       -0.40549569637459
H           -3.35325472454421        5.05645262903611        0.73452511094032
H           -3.45023951820495        0.74954227085855       -0.06105616297173
H           -2.99145112356728       -3.00743104353819       -1.40181460387289
H           -3.78684226996149       -1.53218178039192       -0.85901225240699
H           -4.60964352336515       -3.69492995067586        1.67218966843444
