42
 energy: -62.120800696369 gnorm: 0.000293935813 xtb: 6.7.1 (edcfbbe)
N           -2.47575108456616       -0.85286053995385        1.46146066296738
C           -1.89352965846580       -1.17178196752796        0.17559991704591
C           -0.44819595362430       -0.71293529639587        0.14726150741887
C            0.50898435282821       -1.45165668953043        0.83290387986954
C            1.82787375685188       -1.04429694702723        0.85785187728887
C            2.22735413411411        0.11122053145179        0.19000307913321
C            3.63300205006456        0.54211317580328        0.20482950929822
C            4.23793461833037        1.02494444432714       -0.95326762740466
C            5.56040702035539        1.42723391022714       -0.94040087444837
C            6.29746501248092        1.35973640254994        0.23008163236329
C            5.70496971573744        0.88407136951783        1.38778438901320
C            4.38443144217423        0.47515164734653        1.37566456003915
C            1.26392360284250        0.84865001198231       -0.49304276981446
C           -0.05790640376477        0.44586187275422       -0.50999341808332
C           -2.69653860050011       -0.59718869068594       -0.97357740645301
C           -3.54361002337415        0.48967345197431       -0.80939519680858
C           -4.24362189777957        0.99770954268784       -1.89058336935842
C           -4.10032232544848        0.42890694766446       -3.14369563109024
C           -3.25319597673714       -0.65364937936794       -3.31409182484419
C           -2.55646098008584       -1.16422410538063       -2.23480636150780
C           -2.19627451740387        0.22414310710590        2.25642481242034
C           -3.03520576804950        0.12701026532451        3.32856336889876
N           -3.82239753812693       -0.97324894676729        3.20525116928451
C           -3.46754905033412       -1.53303839170310        2.08319400510563
H           -1.90827872145527       -2.26780282501110        0.08606478422258
H            0.21541693387698       -2.35256685466200        1.35336555287186
H            2.56170089800775       -1.63847404373051        1.38200972829597
H            3.67188034028002        1.06409952530912       -1.87278529336090
H            6.01891593770231        1.79375811300620       -1.84735102723099
H            7.32976930069173        1.67681698885818        0.23993851708522
H            6.27436183468417        0.83303256749205        2.30441981062327
H            3.92212212286895        0.12058847233227        2.28547192661697
H            1.54932779312312        1.75948592847598       -0.99850712904115
H           -0.79090083134197        1.03740259011934       -1.03882407598197
H           -3.66239215804924        0.94302774554584        0.16399258320349
H           -4.90175743836186        1.84235404425927       -1.75049569147874
H           -4.64697715755497        0.82688570235368       -3.98557125850881
H           -3.13689759475478       -1.10256298211198       -4.28942380599998
H           -1.89349824472592       -2.00761598665795       -2.36775727892219
H           -1.43907704653462        0.93765152201248        2.00382266964705
H           -3.12248087745843        0.77543184498289        4.17713362770046
H           -3.89702101851682       -2.42925807894787        1.68067646992361
