62
 energy: -94.881308766890 gnorm: 0.000798447282 xtb: 6.7.1 (edcfbbe)
C           -7.08817113815885       -0.81101414015196       -0.00331101077931
C           -6.53129220763153        0.01430544363403        1.11944114483426
C           -5.04392946556992       -0.04515714266107        1.27937113945284
C           -4.46814932450623       -0.29660237231654        2.49056342272709
C           -5.25463746833551       -0.56060910967272        3.73450969086433
C           -3.04262850761547       -0.35659481533456        2.56542939089429
C           -2.31019718838097       -0.64781083246647        3.72692796347278
N           -1.00470620661607       -0.69526028710280        3.76169515807304
C           -0.35033651876215       -0.45265563981810        2.60765445291186
N            0.99149435642349       -0.53318333809421        2.72178358986891
C            2.01183230590463       -0.36387307435645        1.79973426352699
N            3.22507129077534       -0.40910953348599        2.33975185283061
C            4.28206219335200       -0.24419564970504        1.57100558977017
C            4.21917629057982       -0.01464339513004        0.18982041900533
C            2.93046483429094       -0.00302773383505       -0.36712195821123
C            1.82274042643957       -0.18009977892841        0.43066530074281
N            5.33766034746598        0.11886431070249       -0.60979304516645
C            6.65536014376134       -0.17184251305710       -0.08662699693709
C            7.56776037022989       -0.60158737557974       -1.24879741895329
N            7.62799974213514        0.37115570209986       -2.32030431059877
C            6.28948741312893        0.68035170204764       -2.78358803213911
C            5.37647964736867        1.13932881094450       -1.63990330072158
N           -0.92822122132329       -0.15412486654469        1.45071430198095
C           -2.25976167864500       -0.09740536957512        1.41505079495418
N           -2.86216969295676        0.21601354345547        0.23610728763654
C           -2.02646796322134        0.53382823032587       -0.92032502189488
C           -2.26078577071955        1.94745300921695       -1.47680724674444
C           -1.93272990810689        1.80193424672051       -2.95924232238299
C           -2.56263166482219        0.45632794402937       -3.30667451831327
C           -2.21657964816407       -0.43256003237996       -2.10917354563142
C           -4.24825028914915        0.21528777117675        0.08161449182578
O           -4.73314299209704        0.44930500767424       -1.01194984392270
O           -7.22857135417037        0.67254905282836        1.85609330430562
H           -6.78446671154607       -0.35116793567638       -0.94198376215663
H           -8.17226787090195       -0.84105427120150        0.06004526304906
H           -6.67566596608153       -1.81669045945552        0.02336561092970
H           -6.32000792597955       -0.46894753441126        3.55666885728879
H           -4.97633388685207        0.15762882143648        4.50401431374658
H           -5.03891412156769       -1.56108737002551        4.10883507448776
H           -2.80625606311486       -0.84897544405063        4.66620529300361
H            1.31912631099090       -0.72078303800283        3.66204692956773
H            5.22442441758951       -0.28568330369789        2.09853901402964
H            2.79798761149923        0.12196117556367       -1.43121850704017
H            0.83080197387725       -0.19247085151421        0.01808447121907
H            6.58934946823836       -0.99235481356878        0.62751017440015
H            7.08962095395030        0.70775671839944        0.41886005279937
H            7.18114117591836       -1.53159267186156       -1.67523675449789
H            8.57811648721702       -0.78152569099824       -0.87699575189543
H            8.07677976400404        1.22066079531409       -1.98635605524653
H            5.87866209866494       -0.22856743114782       -3.23181292473618
H            6.34891385082472        1.45496096054192       -3.55046408483156
H            5.77560480108496        2.07944291573928       -1.21846670124041
H            4.37414517006820        1.33779729287486       -2.01392868954304
H           -1.00561643917535        0.46422885634911       -0.54782422797119
H           -3.30724013053750        2.22501711194408       -1.36470910164609
H           -1.64274560137605        2.68729538003560       -0.96891555480966
H           -0.85095582218983        1.76341825150065       -3.10444379097560
H           -2.33467628770570        2.61973463511979       -3.55471969335374
H           -3.64369188475586        0.57274813808346       -3.36801647529004
H           -2.19586412654390        0.04545593033093       -4.24606024826633
H           -1.29064961270268       -0.98099178533458       -2.28710509692524
H           -3.00355078579228       -1.15696215693787       -1.91043262137006
