66
 energy: -102.674155539725 gnorm: 0.000757337920 xtb: 6.7.1 (edcfbbe)
C           -5.71805923480978       -1.31021131704463       -0.25258402155137
C           -6.36758344082325       -0.00128813308150       -0.68207291692712
C           -5.32415155070093        1.06946328330438       -1.02133835245695
C           -4.53177564940273        1.43713818359633        0.18245374563624
N           -5.03594696878902        1.85863138178035        1.32304916839970
C           -4.01000975240314        2.07350679903707        2.17698368911563
C           -4.20386667976123        2.56287882051590        3.56277735088024
C           -2.81709715960865        1.77314922033504        1.54298602995864
N           -3.18551725927371        1.36498111482719        0.26882467632163
N           -2.23646571416581        1.01292589438710       -0.64996493391528
C           -0.93107082660396        1.06414657536894       -0.27277345792128
C            0.09181562373601        0.70286681413542       -1.26906001927726
C           -0.12575980956262       -0.16248997618743       -2.36062458591283
C            0.94271951847631       -0.48888123274313       -3.19439651505380
C            2.20303194097617        0.03220906719953       -2.96313336098284
C            2.40488226952513        0.90212250795187       -1.91000280939655
S            4.05633333800003        1.54228832988522       -1.58961958083524
O            4.88786905756333        1.15567083189183       -2.69184846168517
N            4.58816705204340        0.72093723752801       -0.25457324559561
C            4.00879900263918        1.07418515605470        1.02220151501806
C            4.93274174698307        0.54474494563783        2.12856569488461
N            5.15408515851346       -0.88406467844707        2.03661040106706
C            5.67293162765642       -1.21435410209804        0.72485080215575
C            4.78988858669994       -0.69790456501122       -0.42403031859693
C            4.04139896879670       -1.71145124384178        2.47730506754810
C            4.54667470865515       -3.04730474132916        3.01681106646239
O            3.95658446818447        2.92623071968638       -1.24403982574720
C            1.36393772600294        1.23550805886111       -1.07242373539759
O           -1.38497123947833       -0.64753993046970       -2.54206578295588
C           -1.63432235749885       -1.59917234039068       -3.56929600183323
C           -3.08862256029047       -2.02684959261639       -3.45453334789050
N           -0.52696117827497        1.43205347849366        0.88897551094673
C           -1.40901902581340        1.78979030542179        1.91010572131268
O           -0.99698944232972        2.08039091767719        3.01153847203746
H           -5.10242930707991       -1.15609753940249        0.63081463004539
H           -6.47841474266424       -2.04851298221830       -0.01180072518584
H           -5.09327580987498       -1.71185548021116       -1.04860010845243
H           -6.99992629936630       -0.17212304401326       -1.55544548268585
H           -6.99054451291847        0.37823168234995        0.12737109131940
H           -4.66046318585367        0.70898816124612       -1.81195033700587
H           -5.83803538158838        1.96121098042184       -1.38902239682655
H           -3.24803622853233        2.57046649909845        4.07951467412692
H           -4.61700049483047        3.57076910838644        3.54740919756732
H           -4.90811807318728        1.92157758722527        4.08986947379069
H           -2.53000607762564        0.57731246764249       -1.51436856909260
H            0.79835242560599       -1.15079058695456       -4.03256058572609
H            3.03615799493804       -0.21322479327244       -3.60216778971798
H            3.00432564658832        0.63940404091359        1.13769261534096
H            3.93743528328907        2.16056138953614        1.05530907000258
H            4.51338067544537        0.78297311599752        3.10699969018763
H            5.90658129679999        1.03333546501099        2.03420824203211
H            5.78727051766810       -2.29538720909843        0.64218834189401
H            6.65909174710025       -0.75093689873092        0.63612822876825
H            5.28239373553212       -0.84160832279255       -1.38567927098351
H            3.82493119945190       -1.23154139200944       -0.43447967874205
H            3.30074773879151       -1.89502144523195        1.68376304605169
H            3.53306165944936       -1.18094176295428        3.28497439258785
H            3.72321501968065       -3.60536522883194        3.45511708636227
H            5.30030380930695       -2.87190618875505        3.77883982516137
H            4.98895556105280       -3.65119935706118        2.22889769245203
H            1.51110709432460        1.92318063717365       -0.25631569525205
H           -1.44621036204162       -1.14504066272442       -4.55012580275297
H           -0.97532235593589       -2.46589420497752       -3.44146756383395
H           -3.31268359448427       -2.76554748976555       -4.21811947679681
H           -3.27160621307740       -2.46543786586767       -2.47666039713732
H           -3.74920971084412       -1.17388647043201       -3.59099105529987
