49
 energy: -69.210083634481 gnorm: 0.000577921809 xtb: 6.7.1 (edcfbbe)
C            0.45788704739602       -1.86060270967343       -0.84878135464373
C            0.55343615044210       -0.37486590657125       -0.48928038245929
N            1.85601348312316        0.15600841486670       -0.83253778087050
C            3.00197511553853       -0.04827800817329       -0.13165710768717
C            3.02127685242302       -0.63067447602860        1.12890507835380
C            4.23044142722993       -0.77421449133945        1.80598402063922
N            5.39386285457461       -0.40168864499621        1.34155353665738
C            5.42380647679775        0.17266279409763        0.12400823153226
C            4.26002268357886        0.38500808451239       -0.66782407082189
C            4.41453654805848        1.00572761139443       -1.92167941019672
C            5.64337466644637        1.39349550555553       -2.38268694341885
C            6.77994163884702        1.17158661304466       -1.59367104979023
Cl           8.32053138976694        1.66978331246216       -2.20035730505056
C            6.68250074729639        0.57683171861768       -0.36777654828042
C           -0.49723363248374        0.47038912654009       -1.21923147479114
C           -1.94487155740464        0.14984672186634       -0.84983951939175
C           -2.28164118913506        0.47314717696685        0.60792093014924
N           -3.68943690554637        0.22285668712813        0.87418646282978
C           -3.94710525106210       -0.29254924754951        2.21063448085683
C           -3.67341174496927       -1.79178043218231        2.28544818822352
C           -4.56149728784735        1.32556780630644        0.49897613820265
C           -5.86427094123706        0.75486930339093       -0.07537169606158
O           -5.58508435624389       -0.16216957991090       -1.09924510701991
H            1.29361666160812       -2.40219973764173       -0.41130245248816
H           -0.46480571841242       -2.29190701067372       -0.47254930958108
H            0.49041619804575       -1.99086812019424       -1.92850289303087
H            0.42200447096068       -0.25011515941178        0.58937958643459
H            1.96151485068587        0.40895515123177       -1.80181860833465
H            2.11672790080970       -0.98207836081931        1.59701778566450
H            4.24271309639323       -1.23175291475435        2.78762220152858
H            3.55517893048911        1.19831755842176       -2.54831137745583
H            5.74815611565828        1.86900620540536       -3.34505402634093
H            7.54619781497296        0.40253922967934        0.25268518088306
H           -0.37319133847380        0.32434640764800       -2.29572282088670
H           -0.29918800778191        1.52273549794966       -0.99971750812272
H           -2.15683200941013       -0.90334648674654       -1.03488867035937
H           -2.59969762679049        0.72967240496476       -1.50267363149221
H           -2.00444415795786        1.51604196100462        0.83221701932865
H           -1.69497098300787       -0.17106128246443        1.26342814935281
H           -3.34702401590200        0.23703566583022        2.96909128181309
H           -4.99933296265242       -0.12082126055031        2.44500019627874
H           -3.90575119110641       -2.16139383749795        3.28082984123636
H           -2.63099796158878       -2.01449477196442        2.07221628823692
H           -4.29155961659777       -2.31864271231950        1.56324970684987
H           -4.07069294008128        1.90749379731243       -0.28289490859301
H           -4.78021811749063        1.99844276927248        1.34166245322908
H           -6.47457044784055        1.55045399808955       -0.50855239857253
H           -6.44579371857110        0.26657951194867        0.72158957313275
H           -4.83240944155069       -0.68389588404355       -0.78157797567533
