42
 energy: -62.120684222310 gnorm: 0.000550284845 xtb: 6.7.1 (edcfbbe)
N           -2.32508357630059        1.88838244854086        0.27065330938325
C           -1.90283675350006        0.66948669140095        0.92752030353808
C           -0.45552502630388        0.37625307922602        0.58697752071751
C           -0.11604761502887       -0.43009210969403       -0.49208071169899
C            1.20931896478851       -0.64974305758026       -0.81322373829205
C            2.23075318412655       -0.07483620920603       -0.06106649055807
C            3.64094125339232       -0.30914045536116       -0.40570326856125
C            4.58193146406532       -0.56784185287324        0.58799060165944
C            5.90646600855558       -0.79076223389534        0.26066344679641
C            6.31317012977246       -0.75124412654033       -1.06262615277558
C            5.38621677039612       -0.49098510794925       -2.05811482385968
C            4.05994293580116       -0.27529743211122       -1.73365335260989
C            1.88506385578161        0.72855163374732        1.02268258363101
C            0.55954112162547        0.95388823714142        1.33879646018962
C           -2.80087623195602       -0.50410714618121        0.59009227376724
C           -2.80148920019295       -1.60561759184137        1.43733254178042
C           -3.58902475919896       -2.70628268292868        1.15573098875405
C           -4.38570854964006       -2.71786179633606        0.02275059802972
C           -4.38723192482602       -1.62496427575277       -0.82588119638005
C           -3.59750968388409       -0.52258330444130       -0.54587840554692
C           -1.91857706474899        2.36967931912567       -0.94303485614746
C           -2.64334851653770        3.50593219653670       -1.15859519988054
N           -3.48426160167887        3.72644889447645       -0.11497073795107
C           -3.27338923764835        2.74592054358961        0.71675643450272
H           -1.97519966709811        0.85407273458173        2.00873312394184
H           -0.89431108588477       -0.89146118497707       -1.08272274988014
H            1.45705685569251       -1.29044878486527       -1.64677091452791
H            4.26664689221344       -0.61523067317578        1.62047823357588
H            6.62488306937239       -0.99727195206452        1.04060992825829
H            7.34857120501009       -0.92247131049440       -1.31728273783220
H            5.69891767125192       -0.45474582528855       -3.09157251934766
H            3.34362939761032       -0.05673475442760       -2.51247248492833
H            2.66224522031285        1.19660833372142        1.60862318172663
H            0.30946186655661        1.58985351048236        2.17640084749855
H           -2.17847367946769       -1.59758189767043        2.32059525517924
H           -3.58364110990118       -3.55548507773000        1.82286849682316
H           -5.00385459490678       -3.57575776420102       -0.19631238820812
H           -5.00505554731835       -1.62717953627169       -1.71159078342647
H           -3.60832322165597        0.32510586390796       -1.21588533106368
H           -1.16174726677624        1.88580641597748       -1.52485778019782
H           -2.61308402311468        4.17586260710020       -1.99426443420700
H           -3.78005792875380        2.61387563430098        1.65240492812460
