----- Optimization -----
      -----------------------------------------------------------      
     |                   =====================                   |     
     |                           x T B                           |     
     |                   =====================                   |     
     |                         S. Grimme                         |     
     |          Mulliken Center for Theoretical Chemistry        |     
     |                    University of Bonn                     |     
      -----------------------------------------------------------      

   * xtb version 6.7.1 (edcfbbe) compiled by 'conda@3ef47c1a292c' on 2024-11-25

   xtb is free software: you can redistribute it and/or modify it under
   the terms of the GNU Lesser General Public License as published by
   the Free Software Foundation, either version 3 of the License, or
   (at your option) any later version.
   
   xtb is distributed in the hope that it will be useful,
   but WITHOUT ANY WARRANTY; without even the implied warranty of
   MERCHANTABILITY or FITNESS FOR A PARTICULAR PURPOSE.  See the
   GNU Lesser General Public License for more details.
   
   Cite this work as:
   * C. Bannwarth, E. Caldeweyher, S. Ehlert, A. Hansen, P. Pracht,
     J. Seibert, S. Spicher, S. Grimme, WIREs Comput. Mol. Sci., 2020, 11,
     e01493. DOI: 10.1002/wcms.1493
   
   for GFN2-xTB:
   * C. Bannwarth, S. Ehlert and S. Grimme., J. Chem. Theory Comput., 2019,
     15, 1652-1671. DOI: 10.1021/acs.jctc.8b01176
   for GFN1-xTB:
   * S. Grimme, C. Bannwarth, P. Shushkov, J. Chem. Theory Comput., 2017,
     13, 1989-2009. DOI: 10.1021/acs.jctc.7b00118
   for GFN0-xTB:
   * P. Pracht, E. Caldeweyher, S. Ehlert, S. Grimme, ChemRxiv, 2019, preprint.
     DOI: 10.26434/chemrxiv.8326202.v1
   for GFN-FF:
   * S. Spicher and S. Grimme, Angew. Chem. Int. Ed., 2020, 59, 15665-15673.
     DOI: 10.1002/anie.202004239
   
   for ALPB and GBSA implicit solvation:
   * S. Ehlert, M. Stahn, S. Spicher, S. Grimme, J. Chem. Theory Comput.,
     2021, 17, 4250-4261. DOI: 10.1021/acs.jctc.1c00471
   
   for ddCOSMO and CPCM-X implicit solvation:
   * M. Stahn, S. Ehlert, S. Grimme, J. Phys. Chem. A,
     2023, XX, XXXX-XXXX. DOI: 10.1021/acs.jpca.3c04382
   
   for DFT-D4:
   * E. Caldeweyher, C. Bannwarth and S. Grimme, J. Chem. Phys., 2017,
     147, 034112. DOI: 10.1063/1.4993215
   * E. Caldeweyher, S. Ehlert, A. Hansen, H. Neugebauer, S. Spicher,
     C. Bannwarth and S. Grimme, J. Chem. Phys., 2019, 150, 154122.
     DOI: 10.1063/1.5090222
   * E. Caldeweyher, J.-M. Mewes, S. Ehlert and S. Grimme, Phys. Chem. Chem. Phys.
     2020, 22, 8499-8512. DOI: 10.1039/D0CP00502A
   
   for sTDA-xTB:
   * S. Grimme and C. Bannwarth, J. Chem. Phys., 2016, 145, 054103.
     DOI: 10.1063/1.4959605
   
   in the mass-spec context:
   * V. Asgeirsson, C. Bauer and S. Grimme, Chem. Sci., 2017, 8, 4879.
     DOI: 10.1039/c7sc00601b
   * J. Koopman and S. Grimme, ACS Omega 2019, 4, 12, 15120-15133.
     DOI: 10.1021/acsomega.9b02011
   
   for metadynamics refer to:
   * S. Grimme, J. Chem. Theory Comput., 2019, 155, 2847-2862
     DOI: 10.1021/acs.jctc.9b00143
   
   for SPH calculations refer to:
   * S. Spicher and S. Grimme, J. Chem. Theory Comput., 2021, 17, 1701-1714
     DOI: 10.1021/acs.jctc.0c01306
   
   for ONIOM refer to:
   * C. Plett, A. Katbashev, S. Ehlert, S. Grimme, M. Bursch,
     Phys. Chem. Chem. Phys., 2023, 25, 17860-17868. DOI: 10.1039/D3CP02178E
   
   for DIPRO refer to:
   * J. Kohn, N. Gildemeister, S. Grimme, D. Fazzi, A. Hansen,
     J. Chem. Phys., 2023, just accepted.
   
   for PTB refer to:
   * S. Grimme, M. Mueller, A. Hansen, J. Chem. Phys., 2023, 158, 124111.
     DOI: 10.1063/5.0137838
   
   with help from (in alphabetical order)
   P. Atkinson, C. Bannwarth, F. Bohle, G. Brandenburg, E. Caldeweyher
   M. Checinski, S. Dohm, S. Ehlert, S. Ehrlich, I. Gerasimov, C. Hölzer
   A. Katbashev, J. Kohn, J. Koopman, C. Lavigne, S. Lehtola, F. März, M. Müller,
   F. Musil, H. Neugebauer, J. Pisarek, C. Plett, P. Pracht, F. Pultar,
   J. Seibert, P. Shushkov, S. Spicher, M. Stahn, M. Steiner, T. Strunk,
   J. Stückrath, T. Rose, and J. Unsleber
   
 * started run on 2025/05/15 at 16:33:32.488     
   ID    Z sym.   atoms
    1    7 N      1, 23
    2    6 C      2-22, 24
    3    1 H      25-42

           -------------------------------------------------
          |                Calculation Setup                |
           -------------------------------------------------

          program call               : xtb /rds/general/user/hgt20/home/callum/QDESCP/Bifonazole_rdkit_conf_7/Bifonazole_rdkit_conf_7.xyz --opt normal --acc 1 --gfn 2 --chrg 0 --uhf 0 -P 1
          hostname                   : login-c
          coordinate file            : /rds/general/user/hgt20/home/callum/QDESCP/Bifonazole_rdkit_conf_7/Bifonazole_rdkit_conf_7.xyz
          omp threads                :                     1


           -------------------------------------------------
          |                 G F N 2 - x T B                 |
           -------------------------------------------------

        Reference                      10.1021/acs.jctc.8b01176
      * Hamiltonian:
        H0-scaling (s, p, d)           1.850000    2.230000    2.230000
        zeta-weighting                 0.500000
      * Dispersion:
        s8                             2.700000
        a1                             0.520000
        a2                             5.000000
        s9                             5.000000
      * Repulsion:
        kExp                           1.500000    1.000000
        rExp                           1.000000
      * Coulomb:
        alpha                          2.000000
        third order                    shell-resolved
        anisotropic                    true
        a3                             3.000000
        a5                             4.000000
        cn-shift                       1.200000
        cn-exp                         4.000000
        max-rad                        5.000000


          ...................................................
          :                      SETUP                      :
          :.................................................:
          :  # basis functions                 114          :
          :  # atomic orbitals                 114          :
          :  # shells                           66          :
          :  # electrons                       116          :
          :  max. iterations                   250          :
          :  Hamiltonian                  GFN2-xTB          :
          :  restarted?                      false          :
          :  GBSA solvation                  false          :
          :  PC potential                    false          :
          :  electronic temp.          300.0000000     K    :
          :  accuracy                    1.0000000          :
          :  -> integral cutoff          0.2500000E+02      :
          :  -> integral neglect         0.1000000E-07      :
          :  -> SCF convergence          0.1000000E-05 Eh   :
          :  -> wf. convergence          0.1000000E-03 e    :
          :  Broyden damping             0.4000000          :
          :  net charge                          0          :
          :  unpaired electrons                  0          :
          ...................................................

 iter      E             dE          RMSdq      gap      omega  full diag
   1    -63.0970231 -0.630970E+02  0.408E+00    3.75       0.0  T
   2    -63.1632829 -0.662598E-01  0.254E+00    3.12       1.0  T
   3    -63.1517401  0.115428E-01  0.108E+00    3.35       1.0  T
   4    -63.1670683 -0.153282E-01  0.407E-01    3.12       1.0  T
   5    -63.1736173 -0.654892E-02  0.935E-02    3.16       1.0  T
   6    -63.1738193 -0.202026E-03  0.391E-02    3.16       1.0  T
   7    -63.1738646 -0.453558E-04  0.185E-02    3.15       1.0  T
   8    -63.1738664 -0.174817E-05  0.618E-03    3.15       2.5  T
   9    -63.1738675 -0.110892E-05  0.144E-03    3.15      10.7  T
  10    -63.1738676 -0.445559E-07  0.658E-04    3.15      23.4  T
  11    -63.1738676 -0.111671E-07  0.249E-04    3.15      62.1  T

   *** convergence criteria satisfied after 11 iterations ***

         #    Occupation            Energy/Eh            Energy/eV
      -------------------------------------------------------------
         1        2.0000           -0.6734474             -18.3254
       ...           ...                  ...                  ...
        52        2.0000           -0.4120481             -11.2124
        53        2.0000           -0.4101440             -11.1606
        54        2.0000           -0.4070603             -11.0767
        55        2.0000           -0.4055275             -11.0350
        56        2.0000           -0.3940453             -10.7225
        57        2.0000           -0.3769052             -10.2561
        58        2.0000           -0.3691436             -10.0449 (HOMO)
        59                         -0.2534971              -6.8980 (LUMO)
        60                         -0.2382900              -6.4842
        61                         -0.2370991              -6.4518
        62                         -0.2347574              -6.3881
        63                         -0.2308212              -6.2810
       ...                                ...                  ...
       114                          0.6457509              17.5718
      -------------------------------------------------------------
                  HL-Gap            0.1156465 Eh            3.1469 eV
             Fermi-level           -0.3113204 Eh           -8.4715 eV

 SCC (total)                   0 d,  0 h,  0 min,  0.104 sec
 SCC setup                      ...        0 min,  0.000 sec (  0.344%)
 Dispersion                     ...        0 min,  0.001 sec (  0.499%)
 classical contributions        ...        0 min,  0.000 sec (  0.141%)
 integral evaluation            ...        0 min,  0.008 sec (  7.427%)
 iterations                     ...        0 min,  0.025 sec ( 24.007%)
 molecular gradient             ...        0 min,  0.070 sec ( 67.397%)
 printout                       ...        0 min,  0.000 sec (  0.179%)

         :::::::::::::::::::::::::::::::::::::::::::::::::::::
         ::                     SUMMARY                     ::
         :::::::::::::::::::::::::::::::::::::::::::::::::::::
         :: total energy             -62.111875159076 Eh    ::
         :: gradient norm              0.051901259358 Eh/a0 ::
         :: HOMO-LUMO gap              3.146901261813 eV    ::
         ::.................................................::
         :: SCC energy               -63.173636238026 Eh    ::
         :: -> isotropic ES            0.013460378684 Eh    ::
         :: -> anisotropic ES          0.007742697807 Eh    ::
         :: -> anisotropic XC          0.045806966973 Eh    ::
         :: -> dispersion             -0.048559104860 Eh    ::
         :: repulsion energy           1.061761078950 Eh    ::
         :: add. restraining           0.000000000000 Eh    ::
         :: total charge               0.000000000000 e     ::
         :::::::::::::::::::::::::::::::::::::::::::::::::::::

      ----------------------------------------------------------- 
     |                   =====================                   |
     |                        A N C O P T                        |
     |                   =====================                   |
     |               Approximate Normal Coordinate               |
     |                Rational Function Optimizer                |
      ----------------------------------------------------------- 
      ----------------------------------------------------------- 
     |                   =====================                   |
     |                        A N C O P T                        |
     |                   =====================                   |
     |               Approximate Normal Coordinate               |
     |                Rational Function Optimizer                |
      ----------------------------------------------------------- 

          ...................................................
          :                      SETUP                      :
          :.................................................:
          :   optimization level            normal          :
          :   max. optcycles                   200          :
          :   ANC micro-cycles                  20          :
          :   degrees of freedom               120          :
          :.................................................:
          :   RF solver                   davidson          :
          :   write xtbopt.log                true          :
          :   linear?                        false          :
          :   energy convergence         0.5000000E-05 Eh   :
          :   grad. convergence          0.1000000E-02 Eh/α :
          :   maxmium RF displ.          1.0000000          :
          :   Hlow (freq-cutoff)         0.1000000E-01      :
          :   Hmax (freq-cutoff)         5.0000000          :
          :   S6 in model hess.         20.0000000          :
          ...................................................

generating ANC from exact Hessian ...
Using Lindh-Hessian (1995)
 Shifting diagonal of input Hessian by    9.7473460255440604E-003
 Lowest  eigenvalues of input Hessian
    0.000000    0.000000    0.000000    0.000000    0.000000    0.000000
    0.010000    0.010375    0.010447    0.010923    0.011196    0.011528
    0.011809    0.012116    0.012691    0.016311    0.017435    0.021175
 Highest eigenvalues
    1.924818    1.934722    1.936901    1.967228    2.003835    2.088496


........................................................................
.............................. CYCLE    1 ..............................
........................................................................

 iter      E             dE          RMSdq      gap      omega  full diag
   1    -63.1738676 -0.631739E+02  0.948E-05    3.15       0.0  T
   2    -63.1738676 -0.157023E-09  0.621E-05    3.15     248.5  T
   3    -63.1738676 -0.164079E-09  0.276E-05    3.15     558.4  T
     SCC iter.                  ...        0 min,  0.007 sec
     gradient                   ...        0 min,  0.062 sec
 * total energy  :   -62.1118752 Eh     change       -0.5822756E-09 Eh
   gradient norm :     0.0519003 Eh/α   predicted     0.0000000E+00 (-100.00%)
   displ. norm   :     0.3089998 α      lambda       -0.8920362E-02
   maximum displ.:     0.1371043 α      in ANC's #17, #10, #62, ...

........................................................................
.............................. CYCLE    2 ..............................
........................................................................

 iter      E             dE          RMSdq      gap      omega  full diag
   1    -63.2373599 -0.632374E+02  0.154E-01    3.17       0.0  T
   2    -63.2373807 -0.208064E-04  0.931E-02    3.16       1.0  T
   3    -63.2373216  0.591185E-04  0.366E-02    3.17       1.0  T
   4    -63.2373907 -0.691583E-04  0.641E-03    3.17       2.4  T
   5    -63.2373924 -0.172005E-05  0.230E-03    3.16       6.7  T
   6    -63.2373925 -0.485535E-07  0.122E-03    3.16      12.6  T
   7    -63.2373925 -0.261553E-07  0.301E-04    3.16      51.2  T
   8    -63.2373925 -0.123243E-08  0.120E-04    3.16     128.1  T
     SCC iter.                  ...        0 min,  0.017 sec
     gradient                   ...        0 min,  0.023 sec
 * total energy  :   -62.1176885 Eh     change       -0.5813353E-02 Eh
   gradient norm :     0.0150124 Eh/α   predicted    -0.4886569E-02 ( -15.94%)
   displ. norm   :     0.3012813 α      lambda       -0.2049847E-02
   maximum displ.:     0.1395804 α      in ANC's #17, #9, #10, ...

........................................................................
.............................. CYCLE    3 ..............................
........................................................................

 iter      E             dE          RMSdq      gap      omega  full diag
   1    -63.2645978 -0.632646E+02  0.832E-02    3.17       0.0  T
   2    -63.2646111 -0.133342E-04  0.512E-02    3.16       1.0  T
   3    -63.2645947  0.164066E-04  0.223E-02    3.17       1.0  T
   4    -63.2646156 -0.208949E-04  0.513E-03    3.17       3.0  T
   5    -63.2646168 -0.119388E-05  0.125E-03    3.17      12.4  T
   6    -63.2646168 -0.271601E-07  0.640E-04    3.17      24.1  T
   7    -63.2646168 -0.500502E-08  0.184E-04    3.17      83.8  T
     SCC iter.                  ...        0 min,  0.015 sec
     gradient                   ...        0 min,  0.023 sec
 * total energy  :   -62.1190056 Eh     change       -0.1317092E-02 Eh
   gradient norm :     0.0062429 Eh/α   predicted    -0.1118746E-02 ( -15.06%)
   displ. norm   :     0.2693231 α      lambda       -0.7069257E-03
   maximum displ.:     0.1538453 α      in ANC's #9, #10, #17, ...

........................................................................
.............................. CYCLE    4 ..............................
........................................................................

 iter      E             dE          RMSdq      gap      omega  full diag
   1    -63.2695392 -0.632695E+02  0.660E-02    3.17       0.0  T
   2    -63.2695436 -0.437286E-05  0.396E-02    3.16       1.0  T
   3    -63.2695353  0.826265E-05  0.139E-02    3.17       1.1  T
   4    -63.2695450 -0.966380E-05  0.287E-03    3.17       5.4  T
   5    -63.2695453 -0.354863E-06  0.785E-04    3.17      19.7  T
   6    -63.2695453 -0.558068E-08  0.427E-04    3.17      36.1  T
     SCC iter.                  ...        0 min,  0.064 sec
     gradient                   ...        0 min,  0.023 sec
 * total energy  :   -62.1195213 Eh     change       -0.5157359E-03 Eh
   gradient norm :     0.0054839 Eh/α   predicted    -0.3791089E-03 ( -26.49%)
   displ. norm   :     0.3131782 α      lambda       -0.5034532E-03
   maximum displ.:     0.1985505 α      in ANC's #9, #2, #10, ...

........................................................................
.............................. CYCLE    5 ..............................
........................................................................

 iter      E             dE          RMSdq      gap      omega  full diag
   1    -63.2675700 -0.632676E+02  0.812E-02    3.16       0.0  T
   2    -63.2675717 -0.169753E-05  0.478E-02    3.16       1.0  T
   3    -63.2675687  0.299305E-05  0.824E-03    3.16       1.9  T
   4    -63.2675723 -0.357780E-05  0.194E-03    3.16       7.9  T
   5    -63.2675724 -0.100907E-06  0.869E-04    3.16      17.8  T
   6    -63.2675724 -0.118953E-08  0.363E-04    3.16      42.5  T
     SCC iter.                  ...        0 min,  0.013 sec
     gradient                   ...        0 min,  0.055 sec
 * total energy  :   -62.1198702 Eh     change       -0.3488967E-03 Eh
   gradient norm :     0.0040021 Eh/α   predicted    -0.2764173E-03 ( -20.77%)
   displ. norm   :     0.2336445 α      lambda       -0.2381031E-03
   maximum displ.:     0.1390526 α      in ANC's #9, #2, #8, ...

........................................................................
.............................. CYCLE    6 ..............................
........................................................................

 iter      E             dE          RMSdq      gap      omega  full diag
   1    -63.2647971 -0.632648E+02  0.658E-02    3.15       0.0  T
   2    -63.2647977 -0.525215E-06  0.385E-02    3.15       1.0  T
   3    -63.2647976  0.186661E-07  0.260E-03    3.15       5.9  T
   4    -63.2647979 -0.228967E-06  0.116E-03    3.15      13.3  T
   5    -63.2647979 -0.106061E-07  0.415E-04    3.15      37.2  T
   6    -63.2647979 -0.540345E-08  0.129E-04    3.15     119.7  T
     SCC iter.                  ...        0 min,  0.013 sec
     gradient                   ...        0 min,  0.074 sec
 * total energy  :   -62.1200561 Eh     change       -0.1858527E-03 Eh
   gradient norm :     0.0037947 Eh/α   predicted    -0.1255586E-03 ( -32.44%)
   displ. norm   :     0.2995788 α      lambda       -0.2542621E-03
   maximum displ.:     0.1580344 α      in ANC's #9, #2, #8, ...

........................................................................
.............................. CYCLE    7 ..............................
........................................................................

 iter      E             dE          RMSdq      gap      omega  full diag
   1    -63.2625020 -0.632625E+02  0.907E-02    3.13       0.0  T
   2    -63.2625031 -0.114471E-05  0.530E-02    3.14       1.0  T
   3    -63.2625024  0.718073E-06  0.517E-03    3.13       3.0  T
   4    -63.2625035 -0.112789E-05  0.161E-03    3.14       9.6  T
   5    -63.2625036 -0.375117E-07  0.735E-04    3.14      21.0  T
   6    -63.2625036 -0.251093E-08  0.212E-04    3.14      72.9  T
     SCC iter.                  ...        0 min,  0.013 sec
     gradient                   ...        0 min,  0.023 sec
 * total energy  :   -62.1202444 Eh     change       -0.1883098E-03 Eh
   gradient norm :     0.0039433 Eh/α   predicted    -0.1385478E-03 ( -26.43%)
   displ. norm   :     0.2741032 α      lambda       -0.1835420E-03
   maximum displ.:     0.1413932 α      in ANC's #2, #8, #9, ...

........................................................................
.............................. CYCLE    8 ..............................
........................................................................

 iter      E             dE          RMSdq      gap      omega  full diag
   1    -63.2625203 -0.632625E+02  0.880E-02    3.12       0.0  T
   2    -63.2625211 -0.863774E-06  0.515E-02    3.12       1.0  T
   3    -63.2625199  0.122891E-05  0.559E-03    3.12       2.8  T
   4    -63.2625215 -0.161514E-05  0.136E-03    3.12      11.4  T
   5    -63.2625215 -0.257210E-07  0.661E-04    3.12      23.3  T
   6    -63.2625215 -0.287055E-08  0.266E-04    3.12      58.1  T
     SCC iter.                  ...        0 min,  0.047 sec
     gradient                   ...        0 min,  0.023 sec
 * total energy  :   -62.1203776 Eh     change       -0.1331508E-03 Eh
   gradient norm :     0.0032891 Eh/α   predicted    -0.9866618E-04 ( -25.90%)
   displ. norm   :     0.1985323 α      lambda       -0.1141868E-03
   maximum displ.:     0.1094428 α      in ANC's #8, #2, #5, ...

........................................................................
.............................. CYCLE    9 ..............................
........................................................................

 iter      E             dE          RMSdq      gap      omega  full diag
   1    -63.2645806 -0.632646E+02  0.658E-02    3.11       0.0  T
   2    -63.2645810 -0.345872E-06  0.386E-02    3.11       1.0  T
   3    -63.2645797  0.129627E-05  0.491E-03    3.11       3.1  T
   4    -63.2645812 -0.154241E-05  0.799E-04    3.11      19.3  T
   5    -63.2645812 -0.297336E-08  0.442E-04    3.11      34.9  T
   6    -63.2645812 -0.367472E-08  0.115E-04    3.11     134.0  T
     SCC iter.                  ...        0 min,  0.013 sec
     gradient                   ...        0 min,  0.069 sec
 * total energy  :   -62.1204620 Eh     change       -0.8442765E-04 Eh
   gradient norm :     0.0021445 Eh/α   predicted    -0.5937897E-04 ( -29.67%)
   displ. norm   :     0.1768786 α      lambda       -0.7778644E-04
   maximum displ.:     0.1025698 α      in ANC's #8, #2, #5, ...

........................................................................
.............................. CYCLE   10 ..............................
........................................................................

 iter      E             dE          RMSdq      gap      omega  full diag
   1    -63.2663050 -0.632663E+02  0.552E-02    3.10       0.0  T
   2    -63.2663053 -0.285590E-06  0.324E-02    3.10       1.0  T
   3    -63.2663040  0.132071E-05  0.487E-03    3.10       3.2  T
   4    -63.2663055 -0.152380E-05  0.671E-04    3.10      23.0  T
   5    -63.2663055 -0.748569E-08  0.350E-04    3.10      44.0  T
   6    -63.2663055 -0.251639E-09  0.143E-04    3.10     107.7  T
     SCC iter.                  ...        0 min,  0.013 sec
     gradient                   ...        0 min,  0.074 sec
 * total energy  :   -62.1205218 Eh     change       -0.5981681E-04 Eh
   gradient norm :     0.0018701 Eh/α   predicted    -0.4011050E-04 ( -32.94%)
   displ. norm   :     0.2814259 α      lambda       -0.6769141E-04
   maximum displ.:     0.1625223 α      in ANC's #8, #2, #4, ...

........................................................................
.............................. CYCLE   11 ..............................
........................................................................

 iter      E             dE          RMSdq      gap      omega  full diag
   1    -63.2672877 -0.632673E+02  0.794E-02    3.09       0.0  T
   2    -63.2672882 -0.562082E-06  0.467E-02    3.09       1.0  T
   3    -63.2672860  0.225730E-05  0.660E-03    3.09       2.3  T
   4    -63.2672886 -0.262772E-05  0.944E-04    3.09      16.3  T
   5    -63.2672886 -0.166840E-07  0.495E-04    3.09      31.2  T
   6    -63.2672886 -0.314863E-09  0.210E-04    3.09      73.4  T
     SCC iter.                  ...        0 min,  0.013 sec
     gradient                   ...        0 min,  0.023 sec
 * total energy  :   -62.1205931 Eh     change       -0.7132282E-04 Eh
   gradient norm :     0.0024169 Eh/α   predicted    -0.3504089E-04 ( -50.87%)
   displ. norm   :     0.1373669 α      lambda       -0.4439778E-04
   maximum displ.:     0.0763923 α      in ANC's #8, #2, #4, ...

........................................................................
.............................. CYCLE   12 ..............................
........................................................................

 iter      E             dE          RMSdq      gap      omega  full diag
   1    -63.2668067 -0.632668E+02  0.350E-02    3.08       0.0  T
   2    -63.2668068 -0.809583E-07  0.205E-02    3.08       1.0  T
   3    -63.2668067  0.122177E-06  0.179E-03    3.08       8.6  T
   4    -63.2668068 -0.168459E-06  0.385E-04    3.08      40.1  T
   5    -63.2668068 -0.364103E-09  0.223E-04    3.08      69.2  T
     SCC iter.                  ...        0 min,  0.011 sec
     gradient                   ...        0 min,  0.023 sec
 * total energy  :   -62.1206299 Eh     change       -0.3673729E-04 Eh
   gradient norm :     0.0017220 Eh/α   predicted    -0.2261889E-04 ( -38.43%)
   displ. norm   :     0.2958610 α      lambda       -0.5493315E-04
   maximum displ.:     0.1568226 α      in ANC's #8, #2, #4, ...

........................................................................
.............................. CYCLE   13 ..............................
........................................................................

 iter      E             dE          RMSdq      gap      omega  full diag
   1    -63.2654744 -0.632655E+02  0.737E-02    3.07       0.0  T
   2    -63.2654749 -0.460485E-06  0.432E-02    3.07       1.0  T
   3    -63.2654744  0.427753E-06  0.365E-03    3.07       4.2  T
   4    -63.2654751 -0.643125E-06  0.867E-04    3.07      17.8  T
   5    -63.2654751 -0.528510E-08  0.465E-04    3.07      33.2  T
     SCC iter.                  ...        0 min,  0.058 sec
     gradient                   ...        0 min,  0.023 sec
 * total energy  :   -62.1206680 Eh     change       -0.3813235E-04 Eh
   gradient norm :     0.0014149 Eh/α   predicted    -0.2853700E-04 ( -25.16%)
   displ. norm   :     0.0367397 α      lambda       -0.9115051E-05
   maximum displ.:     0.0172508 α      in ANC's #9, #5, #8, ...

........................................................................
.............................. CYCLE   14 ..............................
........................................................................

 iter      E             dE          RMSdq      gap      omega  full diag
   1    -63.2663761 -0.632664E+02  0.138E-02    3.07       0.0  T
   2    -63.2663761 -0.422055E-07  0.806E-03    3.07       1.9  T
   3    -63.2663760  0.891062E-07  0.156E-03    3.07       9.9  T
   4    -63.2663761 -0.109225E-06  0.234E-04    3.07      66.0  T
   5    -63.2663761 -0.328527E-09  0.141E-04    3.07     109.3  T
     SCC iter.                  ...        0 min,  0.011 sec
     gradient                   ...        0 min,  0.068 sec
 * total energy  :   -62.1206752 Eh     change       -0.7216587E-05 Eh
   gradient norm :     0.0008581 Eh/α   predicted    -0.4563259E-05 ( -36.77%)
   displ. norm   :     0.0420834 α      lambda       -0.5081884E-05
   maximum displ.:     0.0212198 α      in ANC's #3, #5, #8, ...

........................................................................
.............................. CYCLE   15 ..............................
........................................................................

 iter      E             dE          RMSdq      gap      omega  full diag
   1    -63.2665849 -0.632666E+02  0.147E-02    3.07       0.0  T
   2    -63.2665849 -0.535557E-07  0.857E-03    3.07       1.8  T
   3    -63.2665849  0.454688E-07  0.123E-03    3.07      12.6  T
   4    -63.2665849 -0.621649E-07  0.330E-04    3.07      46.8  T
   5    -63.2665849 -0.186150E-08  0.152E-04    3.07     101.2  T
     SCC iter.                  ...        0 min,  0.011 sec
     gradient                   ...        0 min,  0.023 sec
 * total energy  :   -62.1206803 Eh     change       -0.5114282E-05 Eh
   gradient norm :     0.0005291 Eh/α   predicted    -0.2546413E-05 ( -50.21%)
   displ. norm   :     0.0421145 α      lambda       -0.3400273E-05
   maximum displ.:     0.0231444 α      in ANC's #4, #3, #5, ...

........................................................................
.............................. CYCLE   16 ..............................
........................................................................

 iter      E             dE          RMSdq      gap      omega  full diag
   1    -63.2660553 -0.632661E+02  0.157E-02    3.07       0.0  T
   2    -63.2660553 -0.304057E-07  0.917E-03    3.07       1.7  T
   3    -63.2660553  0.844267E-08  0.746E-04    3.07      20.7  T
   4    -63.2660553 -0.203806E-07  0.250E-04    3.07      61.7  T
     SCC iter.                  ...        0 min,  0.009 sec
     gradient                   ...        0 min,  0.023 sec
 * total energy  :   -62.1206842 Eh     change       -0.3903855E-05 Eh
   gradient norm :     0.0005507 Eh/α   predicted    -0.1705796E-05 ( -56.30%)
   displ. norm   :     0.0475147 α      lambda       -0.3200180E-05
   maximum displ.:     0.0282543 α      in ANC's #4, #3, #5, ...

   *** GEOMETRY OPTIMIZATION CONVERGED AFTER 16 ITERATIONS ***

------------------------------------------------------------------------
 total energy gain   :        -0.0088091 Eh       -5.5278 kcal/mol
 total RMSD          :         0.3659334 a0        0.1936 Å
 total power (kW/mol):        -1.4455119 (step)  -19.0048 (real)
------------------------------------------------------------------------

 ANCopt (total)                0 d,  0 h,  0 min,  1.217 sec
 optimizer setup                ...        0 min,  0.000 sec (  0.007%)
 model hessian                  ...        0 min,  0.011 sec (  0.918%)
 ANC generation                 ...        0 min,  0.002 sec (  0.124%)
 coordinate transformation      ...        0 min,  0.000 sec (  0.009%)
 single point calculation       ...        0 min,  1.199 sec ( 98.519%)
 optimization log               ...        0 min,  0.003 sec (  0.286%)
 hessian update                 ...        0 min,  0.000 sec (  0.017%)
 rational function              ...        0 min,  0.001 sec (  0.077%)

================
 final structure:
================
42
 xtb: 6.7.1 (edcfbbe)
N           -2.32508357630059        1.88838244854086        0.27065330938325
C           -1.90283675350006        0.66948669140095        0.92752030353808
C           -0.45552502630388        0.37625307922602        0.58697752071751
C           -0.11604761502887       -0.43009210969403       -0.49208071169899
C            1.20931896478851       -0.64974305758026       -0.81322373829205
C            2.23075318412655       -0.07483620920603       -0.06106649055807
C            3.64094125339232       -0.30914045536116       -0.40570326856125
C            4.58193146406532       -0.56784185287324        0.58799060165944
C            5.90646600855558       -0.79076223389534        0.26066344679641
C            6.31317012977246       -0.75124412654033       -1.06262615277558
C            5.38621677039612       -0.49098510794925       -2.05811482385968
C            4.05994293580116       -0.27529743211122       -1.73365335260989
C            1.88506385578161        0.72855163374732        1.02268258363101
C            0.55954112162547        0.95388823714142        1.33879646018962
C           -2.80087623195602       -0.50410714618121        0.59009227376724
C           -2.80148920019295       -1.60561759184137        1.43733254178042
C           -3.58902475919896       -2.70628268292868        1.15573098875405
C           -4.38570854964006       -2.71786179633606        0.02275059802972
C           -4.38723192482602       -1.62496427575277       -0.82588119638005
C           -3.59750968388409       -0.52258330444130       -0.54587840554692
C           -1.91857706474899        2.36967931912567       -0.94303485614746
C           -2.64334851653770        3.50593219653670       -1.15859519988054
N           -3.48426160167887        3.72644889447645       -0.11497073795107
C           -3.27338923764835        2.74592054358961        0.71675643450272
H           -1.97519966709811        0.85407273458173        2.00873312394184
H           -0.89431108588477       -0.89146118497707       -1.08272274988014
H            1.45705685569251       -1.29044878486527       -1.64677091452791
H            4.26664689221344       -0.61523067317578        1.62047823357588
H            6.62488306937239       -0.99727195206452        1.04060992825829
H            7.34857120501009       -0.92247131049440       -1.31728273783220
H            5.69891767125192       -0.45474582528855       -3.09157251934766
H            3.34362939761032       -0.05673475442760       -2.51247248492833
H            2.66224522031285        1.19660833372142        1.60862318172663
H            0.30946186655661        1.58985351048236        2.17640084749855
H           -2.17847367946769       -1.59758189767043        2.32059525517924
H           -3.58364110990118       -3.55548507773000        1.82286849682316
H           -5.00385459490678       -3.57575776420102       -0.19631238820812
H           -5.00505554731835       -1.62717953627169       -1.71159078342647
H           -3.60832322165597        0.32510586390796       -1.21588533106368
H           -1.16174726677624        1.88580641597748       -1.52485778019782
H           -2.61308402311468        4.17586260710020       -1.99426443420700
H           -3.78005792875380        2.61387563430098        1.65240492812460

 Bond Distances (Angstroems)
 ---------------------------
N1-C2=1.4476         N1-C21=1.3675        N1-C24=1.3541        C2-N1=1.4476         C2-C3=1.5155         C2-C15=1.5158        
C2-H25=1.0992        C3-C2=1.5155         C3-C4=1.3892         C3-C14=1.3890        C4-C3=1.3892         C4-C5=1.3813         
C4-H26=1.0805        C5-C4=1.3813         C5-C6=1.3927         C5-H27=1.0801        C6-C5=1.3927         C6-C7=1.4705         
C6-C13=1.3926        C7-C6=1.4705         C7-C8=1.3928         C7-C12=1.3929        C8-C7=1.3928         C8-C9=1.3825         
C8-H28=1.0806        C9-C8=1.3825         C9-C10=1.3849        C9-H29=1.0803        C10-C9=1.3849        C10-C11=1.3849       
C10-H30=1.0799       C11-C10=1.3849       C11-C12=1.3823       C11-H31=1.0803       C12-C7=1.3929        C12-C11=1.3823       
C12-H32=1.0805       C13-C6=1.3926        C13-C14=1.3812       C13-H33=1.0800       C14-C3=1.3890        C14-C13=1.3812       
C14-H34=1.0810       C15-C2=1.5158        C15-C16=1.3897       C15-C20=1.3876       C16-C15=1.3897       C16-C17=1.3824       
C16-H35=1.0809       C17-C16=1.3824       C17-C18=1.3851       C17-H36=1.0799       C18-C17=1.3851       C18-C19=1.3837       
C18-H37=1.0799       C19-C18=1.3837       C19-C20=1.3847       C19-H38=1.0799       C20-C15=1.3876       C20-C19=1.3847       
C20-H39=1.0806       C21-N1=1.3675        C21-C22=1.3649       C21-H40=1.0703       C22-C21=1.3649       C22-N23=1.3583       
C22-H41=1.0715       N23-C22=1.3583       N23-C24=1.3029       C24-N1=1.3541        C24-N23=1.3029       C24-H42=1.0722       
H25-C2=1.0992        H26-C4=1.0805        H27-C5=1.0801        H28-C8=1.0806        H29-C9=1.0803        H30-C10=1.0799       
H31-C11=1.0803       H32-C12=1.0805       H33-C13=1.0800       H34-C14=1.0810       H35-C16=1.0809       H36-C17=1.0799       
H37-C18=1.0799       H38-C19=1.0799       H39-C20=1.0806       H40-C21=1.0703       H41-C22=1.0715       H42-C24=1.0722       
 C  H  Rav=1.0799 sigma=0.0058  Rmin=1.0703  Rmax=1.0992    18
 C  C  Rav=1.4012 sigma=0.0407  Rmin=1.3649  Rmax=1.5158    22
 N  C  Rav=1.3661 sigma=0.0465  Rmin=1.3029  Rmax=1.4476     5

 selected bond angles (degree)
 --------------------
C21-N1-C2=127.76               C24-N1-C2=126.02               C24-N1-C21=106.12              C3-C2-N1=109.85                
C15-C2-N1=112.22               C15-C2-C3=111.47               H25-C2-N1=106.60               H25-C2-C3=108.44               
H25-C2-C15=108.06              C4-C3-C2=121.35                C14-C3-C2=119.72               C14-C3-C4=118.90               
C5-C4-C3=120.49                H26-C4-C3=119.77               H26-C4-C5=119.75               C6-C5-C4=120.83                
H27-C5-C4=119.59               H27-C5-C6=119.57               C7-C6-C5=120.73                C13-C6-C5=118.45               
C13-C6-C7=120.82               C8-C7-C6=120.68                C12-C7-C6=120.53               C12-C7-C8=118.78               
C9-C8-C7=120.55                H28-C8-C7=119.52               H28-C8-C9=119.91               C10-C9-C8=120.20               
H29-C9-C8=119.80               H29-C9-C10=120.00              C11-C10-C9=119.71              H30-C10-C9=120.16              
H30-C10-C11=120.13             

 selected dihedral angles (degree)
 ---------------------------------
C3-C2-N1-C21= 33.06           C3-C2-N1-C24=208.95           C15-C2-N1-C21=268.47          C15-C2-N1-C24= 84.36          
H25-C2-N1-C21=150.36          H25-C2-N1-C24=326.25          C4-C3-C2-N1=267.79            C4-C3-C2-C15= 32.82           
C4-C3-C2-H25=151.65           C14-C3-C2-N1= 85.81           C14-C3-C2-C15=210.83          C14-C3-C2-H25=329.66          
C5-C4-C3-C2=177.84            C5-C4-C3-C14=359.81           H26-C4-C3-C2=357.65           H26-C4-C3-C14=179.62          
C6-C5-C4-C3=  0.31            C6-C5-C4-H26=180.50           H27-C5-C4-C3=179.14           H27-C5-C4-H26=359.34          
C7-C6-C5-C4=180.06            C7-C6-C5-H27=  1.22           C13-C6-C5-C4=359.94           C13-C6-C5-H27=181.10          
C8-C7-C6-C5=222.69            C8-C7-C6-C13= 42.81           C12-C7-C6-C5= 42.73           C12-C7-C6-C13=222.85          
C9-C8-C7-C6=179.85            C9-C8-C7-C12=359.81           H28-C8-C7-C6=  1.19           H28-C8-C7-C12=181.14          
C10-C9-C8-C7=  0.37           C10-C9-C8-H28=179.03          H29-C9-C8-C7=180.43           H29-C9-C8-H28=359.10          
C11-C10-C9-C8=359.82          C11-C10-C9-H29=179.76         H30-C10-C9-C8=179.81          H30-C10-C9-H29=359.75         
           -------------------------------------------------
          |                Final Singlepoint                |
           -------------------------------------------------

          ...................................................
          :                      SETUP                      :
          :.................................................:
          :  # basis functions                 114          :
          :  # atomic orbitals                 114          :
          :  # shells                           66          :
          :  # electrons                       116          :
          :  max. iterations                   250          :
          :  Hamiltonian                  GFN2-xTB          :
          :  restarted?                      false          :
          :  GBSA solvation                  false          :
          :  PC potential                    false          :
          :  electronic temp.          300.0000000     K    :
          :  accuracy                    1.0000000          :
          :  -> integral cutoff          0.2500000E+02      :
          :  -> integral neglect         0.1000000E-07      :
          :  -> SCF convergence          0.1000000E-05 Eh   :
          :  -> wf. convergence          0.1000000E-03 e    :
          :  Broyden damping             0.4000000          :
          :  net charge                          0          :
          :  unpaired electrons                  0          :
          ...................................................

 iter      E             dE          RMSdq      gap      omega  full diag
   1    -63.2660553 -0.632661E+02  0.103E-04    3.07       0.0  T
   2    -63.2660553 -0.837161E-10  0.622E-05    3.07     248.3  T
   3    -63.2660553 -0.728164E-10  0.343E-05    3.07     449.7  T

   *** convergence criteria satisfied after 3 iterations ***

         #    Occupation            Energy/Eh            Energy/eV
      -------------------------------------------------------------
         1        2.0000           -0.6780905             -18.4518
       ...           ...                  ...                  ...
        52        2.0000           -0.4140102             -11.2658
        53        2.0000           -0.4099693             -11.1558
        54        2.0000           -0.4091339             -11.1331
        55        2.0000           -0.4072949             -11.0831
        56        2.0000           -0.3932128             -10.6999
        57        2.0000           -0.3786535             -10.3037
        58        2.0000           -0.3675284             -10.0010 (HOMO)
        59                         -0.2545731              -6.9273 (LUMO)
        60                         -0.2348297              -6.3900
        61                         -0.2334260              -6.3518
        62                         -0.2314203              -6.2973
        63                         -0.2274136              -6.1882
       ...                                ...                  ...
       114                          0.6824380              18.5701
      -------------------------------------------------------------
                  HL-Gap            0.1129552 Eh            3.0737 eV
             Fermi-level           -0.3110508 Eh           -8.4641 eV

 SCC (total)                   0 d,  0 h,  0 min,  0.079 sec
 SCC setup                      ...        0 min,  0.000 sec (  0.377%)
 Dispersion                     ...        0 min,  0.000 sec (  0.376%)
 classical contributions        ...        0 min,  0.000 sec (  0.179%)
 integral evaluation            ...        0 min,  0.008 sec (  9.555%)
 iterations                     ...        0 min,  0.006 sec (  8.175%)
 molecular gradient             ...        0 min,  0.064 sec ( 81.143%)
 printout                       ...        0 min,  0.000 sec (  0.189%)

         :::::::::::::::::::::::::::::::::::::::::::::::::::::
         ::                     SUMMARY                     ::
         :::::::::::::::::::::::::::::::::::::::::::::::::::::
         :: total energy             -62.120684222310 Eh    ::
         :: gradient norm              0.000550284845 Eh/a0 ::
         :: HOMO-LUMO gap              3.073668252903 eV    ::
         ::.................................................::
         :: SCC energy               -63.265793337403 Eh    ::
         :: -> isotropic ES            0.013802263987 Eh    ::
         :: -> anisotropic ES          0.007098261035 Eh    ::
         :: -> anisotropic XC          0.043488265955 Eh    ::
         :: -> dispersion             -0.049895831439 Eh    ::
         :: repulsion energy           1.145109115094 Eh    ::
         :: add. restraining           0.000000000000 Eh    ::
         :: total charge               0.000000000000 e     ::
         :::::::::::::::::::::::::::::::::::::::::::::::::::::

           -------------------------------------------------
          |                Property Printout                |
           -------------------------------------------------

    * Orbital Energies and Occupations

         #    Occupation            Energy/Eh            Energy/eV
      -------------------------------------------------------------
         1        2.0000           -0.6780905             -18.4518
       ...           ...                  ...                  ...
        46        2.0000           -0.4355730             -11.8525
        47        2.0000           -0.4316572             -11.7460
        48        2.0000           -0.4292695             -11.6810
        49        2.0000           -0.4256585             -11.5828
        50        2.0000           -0.4196723             -11.4199
        51        2.0000           -0.4162927             -11.3279
        52        2.0000           -0.4140102             -11.2658
        53        2.0000           -0.4099693             -11.1558
        54        2.0000           -0.4091339             -11.1331
        55        2.0000           -0.4072949             -11.0831
        56        2.0000           -0.3932128             -10.6999
        57        2.0000           -0.3786535             -10.3037
        58        2.0000           -0.3675284             -10.0010 (HOMO)
        59                         -0.2545731              -6.9273 (LUMO)
        60                         -0.2348297              -6.3900
        61                         -0.2334260              -6.3518
        62                         -0.2314203              -6.2973
        63                         -0.2274136              -6.1882
        64                         -0.2088077              -5.6819
        65                         -0.1943179              -5.2877
        66                         -0.1556515              -4.2355
        67                         -0.1149356              -3.1276
        68                         -0.1040303              -2.8308
        69                         -0.0837859              -2.2799
       ...                                ...                  ...
       114                          0.6824380              18.5701
      -------------------------------------------------------------
                  HL-Gap            0.1129552 Eh            3.0737 eV
             Fermi-level           -0.3110508 Eh           -8.4641 eV

     #   Z          covCN         q      C6AA      α(0)
     1   7 N        2.863    -0.022    21.671     6.914
     2   6 C        3.801     0.033    20.022     6.371
     3   6 C        2.975     0.005    27.906     8.665
     4   6 C        2.921    -0.033    28.819     8.803
     5   6 C        2.925    -0.034    28.843     8.807
     6   6 C        2.977     0.011    27.756     8.642
     7   6 C        2.977     0.010    27.791     8.647
     8   6 C        2.925    -0.033    28.827     8.805
     9   6 C        2.918    -0.029    28.722     8.788
    10   6 C        2.920    -0.030    28.748     8.793
    11   6 C        2.918    -0.029    28.720     8.788
    12   6 C        2.925    -0.033    28.822     8.804
    13   6 C        2.924    -0.033    28.820     8.804
    14   6 C        2.922    -0.035    28.872     8.812
    15   6 C        2.973     0.005    27.911     8.666
    16   6 C        2.925    -0.036    28.896     8.815
    17   6 C        2.919    -0.028    28.694     8.784
    18   6 C        2.920    -0.030    28.748     8.793
    19   6 C        2.920    -0.028    28.702     8.785
    20   6 C        2.922    -0.033    28.817     8.803
    21   6 C        3.047    -0.024    28.548     8.763
    22   6 C        3.166     0.014    27.342     8.545
    23   7 N        1.914    -0.269    27.827     7.821
    24   6 C        3.182     0.080    25.802     8.291
    25   1 H        0.923     0.048     2.340     2.392
    26   1 H        0.926     0.035     2.513     2.479
    27   1 H        0.926     0.036     2.498     2.471
    28   1 H        0.926     0.031     2.567     2.505
    29   1 H        0.926     0.031     2.567     2.505
    30   1 H        0.926     0.031     2.565     2.505
    31   1 H        0.926     0.032     2.564     2.504
    32   1 H        0.926     0.032     2.562     2.503
    33   1 H        0.926     0.038     2.481     2.463
    34   1 H        0.926     0.032     2.555     2.500
    35   1 H        0.926     0.029     2.607     2.525
    36   1 H        0.926     0.035     2.522     2.484
    37   1 H        0.926     0.035     2.523     2.484
    38   1 H        0.926     0.035     2.510     2.477
    39   1 H        0.926     0.037     2.485     2.465
    40   1 H        0.927     0.026     2.639     2.540
    41   1 H        0.926     0.029     2.607     2.525
    42   1 H        0.926     0.027     2.635     2.539

 Mol. C6AA /au·bohr⁶  :      23987.741277
 Mol. C8AA /au·bohr⁸  :     595522.278594
 Mol. α(0) /au        :        249.376727


Wiberg/Mayer (AO) data.
largest (>0.10) Wiberg bond orders for each atom

 ---------------------------------------------------------------------------
     #   Z sym  total        # sym  WBO       # sym  WBO       # sym  WBO
 ---------------------------------------------------------------------------
     1   7 N    3.635 --    24 C    1.248    21 C    1.201     2 C    0.968
                            23 N    0.102
     2   6 C    3.972 --    15 C    0.978     3 C    0.973     1 N    0.968
                            25 H    0.950
     3   6 C    3.981 --    14 C    1.408     4 C    1.408     2 C    0.973
                             6 C    0.102
     4   6 C    3.990 --     5 C    1.454     3 C    1.408    26 H    0.966
                            13 C    0.106
     5   6 C    3.991 --     4 C    1.454     6 C    1.387    27 H    0.968
                            14 C    0.106
     6   6 C    3.987 --     5 C    1.387    13 C    1.387     7 C    1.046
                             3 C    0.102
     7   6 C    3.989 --     8 C    1.390    12 C    1.389     6 C    1.046
                            10 C    0.106
     8   6 C    3.991 --     9 C    1.451     7 C    1.390    28 H    0.969
                            11 C    0.109
     9   6 C    3.992 --     8 C    1.451    10 C    1.435    29 H    0.971
                            12 C    0.109
    10   6 C    3.987 --     9 C    1.435    11 C    1.435    30 H    0.972
                             7 C    0.106
    11   6 C    3.992 --    12 C    1.451    10 C    1.435    31 H    0.971
                             8 C    0.109
    12   6 C    3.991 --    11 C    1.451     7 C    1.389    32 H    0.969
                             9 C    0.109
    13   6 C    3.990 --    14 C    1.455     6 C    1.387    33 H    0.968
                             4 C    0.106
    14   6 C    3.990 --    13 C    1.455     3 C    1.408    34 H    0.969
                             5 C    0.106
    15   6 C    3.987 --    20 C    1.420    16 C    1.407     2 C    0.978
                            18 C    0.109
    16   6 C    3.991 --    17 C    1.451    15 C    1.407    35 H    0.970
                            19 C    0.113
    17   6 C    3.991 --    16 C    1.451    18 C    1.434    36 H    0.971
                            20 C    0.110
    18   6 C    3.991 --    19 C    1.444    17 C    1.434    37 H    0.971
                            15 C    0.109
    19   6 C    3.992 --    18 C    1.444    20 C    1.437    38 H    0.971
                            16 C    0.113
    20   6 C    3.991 --    19 C    1.437    15 C    1.420    39 H    0.967
                            17 C    0.110
    21   6 C    3.942 --    22 C    1.579     1 N    1.201    40 H    0.969
                            24 C    0.113
    22   6 C    3.975 --    21 C    1.579    23 N    1.299    41 H    0.972
    23   7 N    3.026 --    24 C    1.548    22 C    1.299     1 N    0.102
    24   6 C    3.957 --    23 N    1.548     1 N    1.248    42 H    0.965
                            21 C    0.113
    25   1 H    0.997 --     2 C    0.950
    26   1 H    0.998 --     4 C    0.966
    27   1 H    0.998 --     5 C    0.968
    28   1 H    0.999 --     8 C    0.969
    29   1 H    0.998 --     9 C    0.971
    30   1 H    0.999 --    10 C    0.972
    31   1 H    0.998 --    11 C    0.971
    32   1 H    0.999 --    12 C    0.969
    33   1 H    0.998 --    13 C    0.968
    34   1 H    0.998 --    14 C    0.969
    35   1 H    0.999 --    16 C    0.970
    36   1 H    0.998 --    17 C    0.971
    37   1 H    0.998 --    18 C    0.971
    38   1 H    0.998 --    19 C    0.971
    39   1 H    0.999 --    20 C    0.967
    40   1 H    0.999 --    21 C    0.969
    41   1 H    0.999 --    22 C    0.972
    42   1 H    0.999 --    24 C    0.965
 ---------------------------------------------------------------------------

Topologies differ in total number of bonds
Writing topology from bond orders to xtbtopo.mol

molecular dipole:
                 x           y           z       tot (Debye)
 q only:        0.733      -1.143       0.223
   full:        0.982      -1.493       0.291       4.602
molecular quadrupole (traceless):
                xx          xy          yy          xz          yz          zz
 q only:        1.222      12.723      -9.130      -1.623       1.271       7.908
  q+dip:        0.990      18.728     -16.834      -0.566       2.136      15.843
   full:        0.029      19.011     -14.072      -1.707       1.779      14.043

           -------------------------------------------------
          |                Geometry Summary                 |
           -------------------------------------------------

      molecular mass/u    :      310.3925297
   center of mass at/Å    :       -0.1049758       0.1404360      -0.0558165
  moments of inertia/u·Å² :        0.1174134E+04   0.4101100E+04   0.4712680E+04
rotational constants/cm⁻¹ :        0.1435750E-01   0.4110515E-02   0.3577080E-02

 * 42 selected distances

     #   Z          #   Z                                           value/Å
     1   7 N        2   6 C                                       1.4475752 (max)
     3   6 C        4   6 C                                       1.3891740
     4   6 C        5   6 C                                       1.3812952
     5   6 C        6   6 C                                       1.3926904
     7   6 C        8   6 C                                       1.3927731
     8   6 C        9   6 C                                       1.3824719
     9   6 C       10   6 C                                       1.3849425
    10   6 C       11   6 C                                       1.3849099
     7   6 C       12   6 C                                       1.3928961
    11   6 C       12   6 C                                       1.3823166
     6   6 C       13   6 C                                       1.3926398
     3   6 C       14   6 C                                       1.3889758
    13   6 C       14   6 C                                       1.3812007
    15   6 C       16   6 C                                       1.3896554
    16   6 C       17   6 C                                       1.3823804
    17   6 C       18   6 C                                       1.3850935
    18   6 C       19   6 C                                       1.3836920
    15   6 C       20   6 C                                       1.3875864
    19   6 C       20   6 C                                       1.3846685
     1   7 N       21   6 C                                       1.3674551
    21   6 C       22   6 C                                       1.3648556
    22   6 C       23   7 N                                       1.3582764
     1   7 N       24   6 C                                       1.3541283
    23   7 N       24   6 C                                       1.3029480
     2   6 C       25   1 H                                       1.0992405
     4   6 C       26   1 H                                       1.0804692
     5   6 C       27   1 H                                       1.0801292
     8   6 C       28   1 H                                       1.0805929
     9   6 C       29   1 H                                       1.0803176
    10   6 C       30   1 H                                       1.0799187
    11   6 C       31   1 H                                       1.0803380
    12   6 C       32   1 H                                       1.0804787
    13   6 C       33   1 H                                       1.0800067
    14   6 C       34   1 H                                       1.0810055
    16   6 C       35   1 H                                       1.0809099
    17   6 C       36   1 H                                       1.0799289
    18   6 C       37   1 H                                       1.0798513
    19   6 C       38   1 H                                       1.0799040
    20   6 C       39   1 H                                       1.0805570
    21   6 C       40   1 H                                       1.0702535 (min)
    22   6 C       41   1 H                                       1.0714784
    24   6 C       42   1 H                                       1.0721881

 * 3 distinct bonds (by element types)

   Z      Z             #   av. dist./Å        max./Å        min./Å
   1 H    6 C          18     1.0798649     1.0992405     1.0702535
   6 C    6 C          19     1.3854851     1.3928961     1.3648556
   6 C    7 N           5     1.3660766     1.4475752     1.3029480


optimized geometry written to: xtbopt.xyz


           -------------------------------------------------
          | TOTAL ENERGY              -62.120684222310 Eh   |
          | GRADIENT NORM               0.000550284845 Eh/α |
          | HOMO-LUMO GAP               3.073668252903 eV   |
           -------------------------------------------------

------------------------------------------------------------------------
 * finished run on 2025/05/15 at 16:33:33.909     
------------------------------------------------------------------------
 total:
 * wall-time:     0 d,  0 h,  0 min,  1.421 sec
 *  cpu-time:     0 d,  0 h,  0 min,  0.823 sec
 * ratio c/w:     0.579 speedup
 SCF:
 * wall-time:     0 d,  0 h,  0 min,  0.104 sec
 *  cpu-time:     0 d,  0 h,  0 min,  0.057 sec
 * ratio c/w:     0.546 speedup
 ANC optimizer:
 * wall-time:     0 d,  0 h,  0 min,  1.303 sec
 *  cpu-time:     0 d,  0 h,  0 min,  0.754 sec
 * ratio c/w:     0.579 speedup



----- Single-point -----
      -----------------------------------------------------------      
     |                   =====================                   |     
     |                           x T B                           |     
     |                   =====================                   |     
     |                         S. Grimme                         |     
     |          Mulliken Center for Theoretical Chemistry        |     
     |                    University of Bonn                     |     
      -----------------------------------------------------------      

   * xtb version 6.7.1 (edcfbbe) compiled by 'conda@3ef47c1a292c' on 2024-11-25

   xtb is free software: you can redistribute it and/or modify it under
   the terms of the GNU Lesser General Public License as published by
   the Free Software Foundation, either version 3 of the License, or
   (at your option) any later version.
   
   xtb is distributed in the hope that it will be useful,
   but WITHOUT ANY WARRANTY; without even the implied warranty of
   MERCHANTABILITY or FITNESS FOR A PARTICULAR PURPOSE.  See the
   GNU Lesser General Public License for more details.
   
   Cite this work as:
   * C. Bannwarth, E. Caldeweyher, S. Ehlert, A. Hansen, P. Pracht,
     J. Seibert, S. Spicher, S. Grimme, WIREs Comput. Mol. Sci., 2020, 11,
     e01493. DOI: 10.1002/wcms.1493
   
   for GFN2-xTB:
   * C. Bannwarth, S. Ehlert and S. Grimme., J. Chem. Theory Comput., 2019,
     15, 1652-1671. DOI: 10.1021/acs.jctc.8b01176
   for GFN1-xTB:
   * S. Grimme, C. Bannwarth, P. Shushkov, J. Chem. Theory Comput., 2017,
     13, 1989-2009. DOI: 10.1021/acs.jctc.7b00118
   for GFN0-xTB:
   * P. Pracht, E. Caldeweyher, S. Ehlert, S. Grimme, ChemRxiv, 2019, preprint.
     DOI: 10.26434/chemrxiv.8326202.v1
   for GFN-FF:
   * S. Spicher and S. Grimme, Angew. Chem. Int. Ed., 2020, 59, 15665-15673.
     DOI: 10.1002/anie.202004239
   
   for ALPB and GBSA implicit solvation:
   * S. Ehlert, M. Stahn, S. Spicher, S. Grimme, J. Chem. Theory Comput.,
     2021, 17, 4250-4261. DOI: 10.1021/acs.jctc.1c00471
   
   for ddCOSMO and CPCM-X implicit solvation:
   * M. Stahn, S. Ehlert, S. Grimme, J. Phys. Chem. A,
     2023, XX, XXXX-XXXX. DOI: 10.1021/acs.jpca.3c04382
   
   for DFT-D4:
   * E. Caldeweyher, C. Bannwarth and S. Grimme, J. Chem. Phys., 2017,
     147, 034112. DOI: 10.1063/1.4993215
   * E. Caldeweyher, S. Ehlert, A. Hansen, H. Neugebauer, S. Spicher,
     C. Bannwarth and S. Grimme, J. Chem. Phys., 2019, 150, 154122.
     DOI: 10.1063/1.5090222
   * E. Caldeweyher, J.-M. Mewes, S. Ehlert and S. Grimme, Phys. Chem. Chem. Phys.
     2020, 22, 8499-8512. DOI: 10.1039/D0CP00502A
   
   for sTDA-xTB:
   * S. Grimme and C. Bannwarth, J. Chem. Phys., 2016, 145, 054103.
     DOI: 10.1063/1.4959605
   
   in the mass-spec context:
   * V. Asgeirsson, C. Bauer and S. Grimme, Chem. Sci., 2017, 8, 4879.
     DOI: 10.1039/c7sc00601b
   * J. Koopman and S. Grimme, ACS Omega 2019, 4, 12, 15120-15133.
     DOI: 10.1021/acsomega.9b02011
   
   for metadynamics refer to:
   * S. Grimme, J. Chem. Theory Comput., 2019, 155, 2847-2862
     DOI: 10.1021/acs.jctc.9b00143
   
   for SPH calculations refer to:
   * S. Spicher and S. Grimme, J. Chem. Theory Comput., 2021, 17, 1701-1714
     DOI: 10.1021/acs.jctc.0c01306
   
   for ONIOM refer to:
   * C. Plett, A. Katbashev, S. Ehlert, S. Grimme, M. Bursch,
     Phys. Chem. Chem. Phys., 2023, 25, 17860-17868. DOI: 10.1039/D3CP02178E
   
   for DIPRO refer to:
   * J. Kohn, N. Gildemeister, S. Grimme, D. Fazzi, A. Hansen,
     J. Chem. Phys., 2023, just accepted.
   
   for PTB refer to:
   * S. Grimme, M. Mueller, A. Hansen, J. Chem. Phys., 2023, 158, 124111.
     DOI: 10.1063/5.0137838
   
   with help from (in alphabetical order)
   P. Atkinson, C. Bannwarth, F. Bohle, G. Brandenburg, E. Caldeweyher
   M. Checinski, S. Dohm, S. Ehlert, S. Ehrlich, I. Gerasimov, C. Hölzer
   A. Katbashev, J. Kohn, J. Koopman, C. Lavigne, S. Lehtola, F. März, M. Müller,
   F. Musil, H. Neugebauer, J. Pisarek, C. Plett, P. Pracht, F. Pultar,
   J. Seibert, P. Shushkov, S. Spicher, M. Stahn, M. Steiner, T. Strunk,
   J. Stückrath, T. Rose, and J. Unsleber
   
 * started run on 2025/05/15 at 16:33:33.926     
   ID    Z sym.   atoms
    1    7 N      1, 23
    2    6 C      2-22, 24
    3    1 H      25-42

           -------------------------------------------------
          |                Calculation Setup                |
           -------------------------------------------------

          program call               : xtb /rds/general/user/hgt20/home/callum/QDESCP/Bifonazole_rdkit_conf_7/Bifonazole_rdkit_conf_7.xyz --acc 1 --gfn 2 --chrg 0 --uhf 0 --etemp 300 --input /rds/general/user/hgt20/home/callum/QDESCP/Bifonazole_rdkit_conf_7/Bifonazole_rdkit_conf_7_xtb.inp -P 1
          hostname                   : login-c
          coordinate file            : /rds/general/user/hgt20/home/callum/QDESCP/Bifonazole_rdkit_conf_7/Bifonazole_rdkit_conf_7.xyz
          omp threads                :                     1


           -------------------------------------------------
          |                 G F N 2 - x T B                 |
           -------------------------------------------------

        Reference                      10.1021/acs.jctc.8b01176
      * Hamiltonian:
        H0-scaling (s, p, d)           1.850000    2.230000    2.230000
        zeta-weighting                 0.500000
      * Dispersion:
        s8                             2.700000
        a1                             0.520000
        a2                             5.000000
        s9                             5.000000
      * Repulsion:
        kExp                           1.500000    1.000000
        rExp                           1.000000
      * Coulomb:
        alpha                          2.000000
        third order                    shell-resolved
        anisotropic                    true
        a3                             3.000000
        a5                             4.000000
        cn-shift                       1.200000
        cn-exp                         4.000000
        max-rad                        5.000000

q/qsh data taken from xtbrestart
CAMM data taken from xtbrestart

          ...................................................
          :                      SETUP                      :
          :.................................................:
          :  # basis functions                 114          :
          :  # atomic orbitals                 114          :
          :  # shells                           66          :
          :  # electrons                       116          :
          :  max. iterations                   250          :
          :  Hamiltonian                  GFN2-xTB          :
          :  restarted?                       true          :
          :  GBSA solvation                  false          :
          :  PC potential                    false          :
          :  electronic temp.          300.0000000     K    :
          :  accuracy                    1.0000000          :
          :  -> integral cutoff          0.2500000E+02      :
          :  -> integral neglect         0.1000000E-07      :
          :  -> SCF convergence          0.1000000E-05 Eh   :
          :  -> wf. convergence          0.1000000E-03 e    :
          :  Broyden damping             0.4000000          :
          :  net charge                          0          :
          :  unpaired electrons                  0          :
          ...................................................

 iter      E             dE          RMSdq      gap      omega  full diag
   1    -63.2660553 -0.632661E+02  0.807E-06    3.07       0.0  T
   2    -63.2660553 -0.710543E-12  0.585E-06    3.07    2636.3  T
   3    -63.2660553 -0.157030E-11  0.240E-06    3.07    6429.4  T

   *** convergence criteria satisfied after 3 iterations ***

         #    Occupation            Energy/Eh            Energy/eV
      -------------------------------------------------------------
         1        2.0000           -0.6780903             -18.4518
       ...           ...                  ...                  ...
        52        2.0000           -0.4140102             -11.2658
        53        2.0000           -0.4099692             -11.1558
        54        2.0000           -0.4091339             -11.1331
        55        2.0000           -0.4072948             -11.0831
        56        2.0000           -0.3932128             -10.6999
        57        2.0000           -0.3786534             -10.3037
        58        2.0000           -0.3675284             -10.0010 (HOMO)
        59                         -0.2545732              -6.9273 (LUMO)
        60                         -0.2348297              -6.3900
        61                         -0.2334259              -6.3518
        62                         -0.2314202              -6.2973
        63                         -0.2274136              -6.1882
       ...                                ...                  ...
       114                          0.6824380              18.5701
      -------------------------------------------------------------
                  HL-Gap            0.1129553 Eh            3.0737 eV
             Fermi-level           -0.3110508 Eh           -8.4641 eV

 SCC (total)                   0 d,  0 h,  0 min,  0.077 sec
 SCC setup                      ...        0 min,  0.000 sec (  0.465%)
 Dispersion                     ...        0 min,  0.001 sec (  0.692%)
 classical contributions        ...        0 min,  0.000 sec (  0.190%)
 integral evaluation            ...        0 min,  0.008 sec ( 10.273%)
 iterations                     ...        0 min,  0.042 sec ( 54.532%)
 molecular gradient             ...        0 min,  0.026 sec ( 33.542%)
 printout                       ...        0 min,  0.000 sec (  0.295%)

         :::::::::::::::::::::::::::::::::::::::::::::::::::::
         ::                     SUMMARY                     ::
         :::::::::::::::::::::::::::::::::::::::::::::::::::::
         :: total energy             -62.120684222323 Eh    ::
         :: gradient norm              0.000550401262 Eh/a0 ::
         :: HOMO-LUMO gap              3.073668834187 eV    ::
         ::.................................................::
         :: SCC energy               -63.265793337417 Eh    ::
         :: -> isotropic ES            0.013802260510 Eh    ::
         :: -> anisotropic ES          0.007098260559 Eh    ::
         :: -> anisotropic XC          0.043488265877 Eh    ::
         :: -> dispersion             -0.049895828661 Eh    ::
         :: repulsion energy           1.145109115094 Eh    ::
         :: add. restraining           0.000000000000 Eh    ::
         :: total charge              -0.000000000000 e     ::
         :::::::::::::::::::::::::::::::::::::::::::::::::::::

           -------------------------------------------------
          |                Property Printout                |
           -------------------------------------------------

    * Orbital Energies and Occupations

         #    Occupation            Energy/Eh            Energy/eV
      -------------------------------------------------------------
         1        2.0000           -0.6780903             -18.4518
       ...           ...                  ...                  ...
        46        2.0000           -0.4355730             -11.8525
        47        2.0000           -0.4316571             -11.7460
        48        2.0000           -0.4292695             -11.6810
        49        2.0000           -0.4256586             -11.5828
        50        2.0000           -0.4196723             -11.4199
        51        2.0000           -0.4162926             -11.3279
        52        2.0000           -0.4140102             -11.2658
        53        2.0000           -0.4099692             -11.1558
        54        2.0000           -0.4091339             -11.1331
        55        2.0000           -0.4072948             -11.0831
        56        2.0000           -0.3932128             -10.6999
        57        2.0000           -0.3786534             -10.3037
        58        2.0000           -0.3675284             -10.0010 (HOMO)
        59                         -0.2545732              -6.9273 (LUMO)
        60                         -0.2348297              -6.3900
        61                         -0.2334259              -6.3518
        62                         -0.2314202              -6.2973
        63                         -0.2274136              -6.1882
        64                         -0.2088077              -5.6819
        65                         -0.1943178              -5.2877
        66                         -0.1556515              -4.2355
        67                         -0.1149356              -3.1276
        68                         -0.1040302              -2.8308
        69                         -0.0837859              -2.2799
       ...                                ...                  ...
       114                          0.6824380              18.5701
      -------------------------------------------------------------
                  HL-Gap            0.1129553 Eh            3.0737 eV
             Fermi-level           -0.3110508 Eh           -8.4641 eV

     #   Z          covCN         q      C6AA      α(0)
     1   7 N        2.863    -0.022    21.671     6.914
     2   6 C        3.801     0.033    20.022     6.371
     3   6 C        2.975     0.005    27.906     8.665
     4   6 C        2.921    -0.033    28.819     8.803
     5   6 C        2.925    -0.034    28.843     8.807
     6   6 C        2.977     0.011    27.756     8.642
     7   6 C        2.977     0.010    27.791     8.647
     8   6 C        2.925    -0.033    28.827     8.805
     9   6 C        2.918    -0.029    28.722     8.788
    10   6 C        2.920    -0.030    28.748     8.793
    11   6 C        2.918    -0.029    28.720     8.788
    12   6 C        2.925    -0.033    28.822     8.804
    13   6 C        2.924    -0.033    28.820     8.804
    14   6 C        2.922    -0.035    28.872     8.812
    15   6 C        2.973     0.005    27.911     8.666
    16   6 C        2.925    -0.036    28.896     8.815
    17   6 C        2.919    -0.028    28.694     8.784
    18   6 C        2.920    -0.030    28.748     8.793
    19   6 C        2.920    -0.028    28.702     8.785
    20   6 C        2.922    -0.033    28.817     8.803
    21   6 C        3.047    -0.024    28.548     8.763
    22   6 C        3.166     0.014    27.342     8.545
    23   7 N        1.914    -0.269    27.827     7.821
    24   6 C        3.182     0.080    25.802     8.291
    25   1 H        0.923     0.048     2.340     2.392
    26   1 H        0.926     0.035     2.513     2.479
    27   1 H        0.926     0.036     2.498     2.471
    28   1 H        0.926     0.031     2.567     2.505
    29   1 H        0.926     0.031     2.567     2.505
    30   1 H        0.926     0.031     2.565     2.505
    31   1 H        0.926     0.032     2.564     2.504
    32   1 H        0.926     0.032     2.562     2.503
    33   1 H        0.926     0.038     2.481     2.463
    34   1 H        0.926     0.032     2.555     2.500
    35   1 H        0.926     0.029     2.607     2.525
    36   1 H        0.926     0.035     2.522     2.484
    37   1 H        0.926     0.035     2.523     2.484
    38   1 H        0.926     0.035     2.510     2.477
    39   1 H        0.926     0.037     2.485     2.465
    40   1 H        0.927     0.026     2.639     2.540
    41   1 H        0.926     0.029     2.607     2.525
    42   1 H        0.926     0.027     2.635     2.539

 Mol. C6AA /au·bohr⁶  :      23987.741286
 Mol. C8AA /au·bohr⁸  :     595522.279115
 Mol. α(0) /au        :        249.376727


Wiberg/Mayer (AO) data.
largest (>0.10) Wiberg bond orders for each atom

 ---------------------------------------------------------------------------
     #   Z sym  total        # sym  WBO       # sym  WBO       # sym  WBO
 ---------------------------------------------------------------------------
     1   7 N    3.635 --    24 C    1.248    21 C    1.201     2 C    0.968
                            23 N    0.102
     2   6 C    3.972 --    15 C    0.978     3 C    0.973     1 N    0.968
                            25 H    0.950
     3   6 C    3.981 --    14 C    1.408     4 C    1.408     2 C    0.973
                             6 C    0.102
     4   6 C    3.990 --     5 C    1.454     3 C    1.408    26 H    0.966
                            13 C    0.106
     5   6 C    3.991 --     4 C    1.454     6 C    1.387    27 H    0.968
                            14 C    0.106
     6   6 C    3.987 --     5 C    1.387    13 C    1.387     7 C    1.046
                             3 C    0.102
     7   6 C    3.989 --     8 C    1.390    12 C    1.389     6 C    1.046
                            10 C    0.106
     8   6 C    3.991 --     9 C    1.451     7 C    1.390    28 H    0.969
                            11 C    0.109
     9   6 C    3.992 --     8 C    1.451    10 C    1.435    29 H    0.971
                            12 C    0.109
    10   6 C    3.987 --     9 C    1.435    11 C    1.435    30 H    0.972
                             7 C    0.106
    11   6 C    3.992 --    12 C    1.451    10 C    1.435    31 H    0.971
                             8 C    0.109
    12   6 C    3.991 --    11 C    1.451     7 C    1.389    32 H    0.969
                             9 C    0.109
    13   6 C    3.990 --    14 C    1.455     6 C    1.387    33 H    0.968
                             4 C    0.106
    14   6 C    3.990 --    13 C    1.455     3 C    1.408    34 H    0.969
                             5 C    0.106
    15   6 C    3.987 --    20 C    1.420    16 C    1.407     2 C    0.978
                            18 C    0.109
    16   6 C    3.991 --    17 C    1.451    15 C    1.407    35 H    0.970
                            19 C    0.113
    17   6 C    3.991 --    16 C    1.451    18 C    1.434    36 H    0.971
                            20 C    0.110
    18   6 C    3.991 --    19 C    1.444    17 C    1.434    37 H    0.971
                            15 C    0.109
    19   6 C    3.992 --    18 C    1.444    20 C    1.437    38 H    0.971
                            16 C    0.113
    20   6 C    3.991 --    19 C    1.437    15 C    1.420    39 H    0.967
                            17 C    0.110
    21   6 C    3.942 --    22 C    1.579     1 N    1.201    40 H    0.969
                            24 C    0.113
    22   6 C    3.975 --    21 C    1.579    23 N    1.299    41 H    0.972
    23   7 N    3.026 --    24 C    1.548    22 C    1.299     1 N    0.102
    24   6 C    3.957 --    23 N    1.548     1 N    1.248    42 H    0.965
                            21 C    0.113
    25   1 H    0.997 --     2 C    0.950
    26   1 H    0.998 --     4 C    0.966
    27   1 H    0.998 --     5 C    0.968
    28   1 H    0.999 --     8 C    0.969
    29   1 H    0.998 --     9 C    0.971
    30   1 H    0.999 --    10 C    0.972
    31   1 H    0.998 --    11 C    0.971
    32   1 H    0.999 --    12 C    0.969
    33   1 H    0.998 --    13 C    0.968
    34   1 H    0.998 --    14 C    0.969
    35   1 H    0.999 --    16 C    0.970
    36   1 H    0.998 --    17 C    0.971
    37   1 H    0.998 --    18 C    0.971
    38   1 H    0.998 --    19 C    0.971
    39   1 H    0.999 --    20 C    0.967
    40   1 H    0.999 --    21 C    0.969
    41   1 H    0.999 --    22 C    0.972
    42   1 H    0.999 --    24 C    0.965
 ---------------------------------------------------------------------------

Topologies differ in total number of bonds
Writing topology from bond orders to xtbtopo.mol

molecular dipole:
                 x           y           z       tot (Debye)
 q only:        0.733      -1.143       0.223
   full:        0.982      -1.493       0.291       4.602
molecular quadrupole (traceless):
                xx          xy          yy          xz          yz          zz
 q only:        1.222      12.723      -9.130      -1.623       1.271       7.908
  q+dip:        0.990      18.728     -16.834      -0.566       2.136      15.843
   full:        0.029      19.011     -14.072      -1.707       1.779      14.043


           -------------------------------------------------
[...]
     DOI: 10.1002/anie.202004239
   
   for ALPB and GBSA implicit solvation:
   * S. Ehlert, M. Stahn, S. Spicher, S. Grimme, J. Chem. Theory Comput.,
     2021, 17, 4250-4261. DOI: 10.1021/acs.jctc.1c00471
   
   for ddCOSMO and CPCM-X implicit solvation:
   * M. Stahn, S. Ehlert, S. Grimme, J. Phys. Chem. A,
     2023, XX, XXXX-XXXX. DOI: 10.1021/acs.jpca.3c04382
   
   for DFT-D4:
   * E. Caldeweyher, C. Bannwarth and S. Grimme, J. Chem. Phys., 2017,
     147, 034112. DOI: 10.1063/1.4993215
   * E. Caldeweyher, S. Ehlert, A. Hansen, H. Neugebauer, S. Spicher,
     C. Bannwarth and S. Grimme, J. Chem. Phys., 2019, 150, 154122.
     DOI: 10.1063/1.5090222
   * E. Caldeweyher, J.-M. Mewes, S. Ehlert and S. Grimme, Phys. Chem. Chem. Phys.
     2020, 22, 8499-8512. DOI: 10.1039/D0CP00502A
   
   for sTDA-xTB:
   * S. Grimme and C. Bannwarth, J. Chem. Phys., 2016, 145, 054103.
     DOI: 10.1063/1.4959605
   
   in the mass-spec context:
   * V. Asgeirsson, C. Bauer and S. Grimme, Chem. Sci., 2017, 8, 4879.
     DOI: 10.1039/c7sc00601b
   * J. Koopman and S. Grimme, ACS Omega 2019, 4, 12, 15120-15133.
     DOI: 10.1021/acsomega.9b02011
   
   for metadynamics refer to:
   * S. Grimme, J. Chem. Theory Comput., 2019, 155, 2847-2862
     DOI: 10.1021/acs.jctc.9b00143
   
   for SPH calculations refer to:
   * S. Spicher and S. Grimme, J. Chem. Theory Comput., 2021, 17, 1701-1714
     DOI: 10.1021/acs.jctc.0c01306
   
   for ONIOM refer to:
   * C. Plett, A. Katbashev, S. Ehlert, S. Grimme, M. Bursch,
     Phys. Chem. Chem. Phys., 2023, 25, 17860-17868. DOI: 10.1039/D3CP02178E
   
   for DIPRO refer to:
   * J. Kohn, N. Gildemeister, S. Grimme, D. Fazzi, A. Hansen,
     J. Chem. Phys., 2023, just accepted.
   
   for PTB refer to:
   * S. Grimme, M. Mueller, A. Hansen, J. Chem. Phys., 2023, 158, 124111.
     DOI: 10.1063/5.0137838
   
   with help from (in alphabetical order)
   P. Atkinson, C. Bannwarth, F. Bohle, G. Brandenburg, E. Caldeweyher
   M. Checinski, S. Dohm, S. Ehlert, S. Ehrlich, I. Gerasimov, C. Hölzer
   A. Katbashev, J. Kohn, J. Koopman, C. Lavigne, S. Lehtola, F. März, M. Müller,
   F. Musil, H. Neugebauer, J. Pisarek, C. Plett, P. Pracht, F. Pultar,
   J. Seibert, P. Shushkov, S. Spicher, M. Stahn, M. Steiner, T. Strunk,
   J. Stückrath, T. Rose, and J. Unsleber
   
 * started run on 2025/05/15 at 16:33:36.586     
   ID    Z sym.   atoms
    1    7 N      1, 23
    2    6 C      2-22, 24
    3    1 H      25-42

           -------------------------------------------------
          |                Calculation Setup                |
           -------------------------------------------------

          program call               : xtb /rds/general/user/hgt20/home/callum/QDESCP/Bifonazole_rdkit_conf_7/Bifonazole_rdkit_conf_7.xyz --acc 1 --gfn 2 --chrg 0 --uhf 2 --etemp 300 --input /rds/general/user/hgt20/home/callum/QDESCP/Bifonazole_rdkit_conf_7/Bifonazole_rdkit_conf_7_xtb.inp -P 1
          hostname                   : login-c
          coordinate file            : /rds/general/user/hgt20/home/callum/QDESCP/Bifonazole_rdkit_conf_7/Bifonazole_rdkit_conf_7.xyz
          omp threads                :                     1


           -------------------------------------------------
          |                 G F N 2 - x T B                 |
           -------------------------------------------------

        Reference                      10.1021/acs.jctc.8b01176
      * Hamiltonian:
        H0-scaling (s, p, d)           1.850000    2.230000    2.230000
        zeta-weighting                 0.500000
      * Dispersion:
        s8                             2.700000
        a1                             0.520000
        a2                             5.000000
        s9                             5.000000
      * Repulsion:
        kExp                           1.500000    1.000000
        rExp                           1.000000
      * Coulomb:
        alpha                          2.000000
        third order                    shell-resolved
        anisotropic                    true
        a3                             3.000000
        a5                             4.000000
        cn-shift                       1.200000
        cn-exp                         4.000000
        max-rad                        5.000000


          ...................................................
          :                      SETUP                      :
          :.................................................:
          :  # basis functions                 114          :
          :  # atomic orbitals                 114          :
          :  # shells                           66          :
          :  # electrons                       116          :
          :  max. iterations                   250          :
          :  Hamiltonian                  GFN2-xTB          :
          :  restarted?                      false          :
          :  GBSA solvation                  false          :
          :  PC potential                    false          :
          :  electronic temp.          300.0000000     K    :
          :  accuracy                    1.0000000          :
          :  -> integral cutoff          0.2500000E+02      :
          :  -> integral neglect         0.1000000E-07      :
          :  -> SCF convergence          0.1000000E-05 Eh   :
          :  -> wf. convergence          0.1000000E-03 e    :
          :  Broyden damping             0.4000000          :
          :  net charge                          0          :
          :  unpaired electrons                  2          :
          ...................................................

 iter      E             dE          RMSdq      gap      omega  full diag
   1    -62.9911777 -0.629912E+02  0.383E+00    0.58       0.0  T
   2    -62.7823075  0.208870E+00  0.332E+00    0.07       1.0  T
   3    -62.8141652 -0.318577E-01  0.243E+00    0.59       1.0  T
   4    -63.0649022 -0.250737E+00  0.148E+00    0.31       1.0  T
   5    -63.0279388  0.369634E-01  0.125E+00    0.40       1.0  T
   6    -63.0956601 -0.677213E-01  0.730E-01    0.51       1.0  T
   7    -63.1220419 -0.263817E-01  0.416E-01    0.40       1.0  T
   8    -63.1268084 -0.476654E-02  0.263E-01    0.38       1.0  T
   9    -63.1286207 -0.181228E-02  0.171E-01    0.40       1.0  T
  10    -63.1301085 -0.148779E-02  0.479E-02    0.40       1.0  T
  11    -63.1301875 -0.790713E-04  0.235E-02    0.39       1.0  T
  12    -63.1301823  0.522992E-05  0.237E-02    0.39       1.0  T
  13    -63.1302153 -0.329481E-04  0.762E-03    0.39       2.0  T
  14    -63.1302163 -0.105051E-05  0.444E-03    0.39       3.5  T
  15    -63.1302153  0.991073E-06  0.481E-03    0.38       3.2  T
  16    -63.1302168 -0.147284E-05  0.116E-03    0.39      13.3  T
  17    -63.1302168 -0.421408E-07  0.443E-04    0.39      34.8  T
  18    -63.1302169 -0.171230E-07  0.168E-04    0.39      91.8  T

   *** convergence criteria satisfied after 18 iterations ***

         #    Occupation            Energy/Eh            Energy/eV
      -------------------------------------------------------------
         1        2.0000           -0.6922240             -18.8364
       ...           ...                  ...                  ...
        53        2.0000           -0.4074519             -11.0873
        54        2.0000           -0.4048012             -11.0152
        55        2.0000           -0.4033020             -10.9744
        56        1.9938           -0.3933067             -10.7024
        57        1.9909           -0.3929411             -10.6925
        58        1.0153           -0.3845232             -10.4634
        59        0.9994           -0.2463311              -6.7030 (HOMO)
        60        0.0005           -0.2321721              -6.3177 (LUMO)
        61        0.0001           -0.2305900              -6.2747
        62        0.0000           -0.2247904              -6.1169
        63                         -0.2213456              -6.0231
        64                         -0.2090941              -5.6897
       ...                                ...                  ...
       114                          0.6897571              18.7692
      -------------------------------------------------------------
                  HL-Gap            0.0141590 Eh            0.3853 eV
             Fermi-level           -0.3139081 Eh           -8.5419 eV

 transition dipole moment (au) for excitation:          58          59
     X       Y       Z   
  -2.0094   0.3814   0.4429  total (au/Debye):    2.093   5.319
 dE (eV)             :    3.760
 oscillator strength :  0.57056E+00

 SCC (total)                   0 d,  0 h,  0 min,  0.124 sec
 SCC setup                      ...        0 min,  0.000 sec (  0.294%)
 Dispersion                     ...        0 min,  0.000 sec (  0.391%)
 classical contributions        ...        0 min,  0.000 sec (  0.119%)
 integral evaluation            ...        0 min,  0.008 sec (  6.409%)
 iterations                     ...        0 min,  0.083 sec ( 66.686%)
 molecular gradient             ...        0 min,  0.025 sec ( 20.350%)
 printout                       ...        0 min,  0.007 sec (  5.746%)

         :::::::::::::::::::::::::::::::::::::::::::::::::::::
         ::                     SUMMARY                     ::
         :::::::::::::::::::::::::::::::::::::::::::::::::::::
         :: total energy             -61.984845769204 Eh    ::
         :: gradient norm              0.160224201387 Eh/a0 ::
         :: HOMO-LUMO gap              0.385286263680 eV    ::
         ::.................................................::
         :: SCC energy               -63.129954884297 Eh    ::
         :: -> isotropic ES            0.010552494081 Eh    ::
         :: -> anisotropic ES          0.007952155387 Eh    ::
         :: -> anisotropic XC          0.041067390116 Eh    ::
         :: -> dispersion             -0.049940752964 Eh    ::
         :: repulsion energy           1.145109115094 Eh    ::
         :: add. restraining           0.000000000000 Eh    ::
         :: total charge              -0.000000000000 e     ::
         :::::::::::::::::::::::::::::::::::::::::::::::::::::

           -------------------------------------------------
          |                Property Printout                |
           -------------------------------------------------

    * Orbital Energies and Occupations

         #    Occupation            Energy/Eh            Energy/eV
      -------------------------------------------------------------
         1        2.0000           -0.6922240             -18.8364
       ...           ...                  ...                  ...
        47        2.0000           -0.4303463             -11.7103
        48        2.0000           -0.4236694             -11.5286
        49        2.0000           -0.4217072             -11.4752
        50        2.0000           -0.4164673             -11.3327
        51        2.0000           -0.4130423             -11.2395
        52        2.0000           -0.4120838             -11.2134
        53        2.0000           -0.4074519             -11.0873
        54        2.0000           -0.4048012             -11.0152
        55        2.0000           -0.4033020             -10.9744
        56        1.9938           -0.3933067             -10.7024
        57        1.9909           -0.3929411             -10.6925
        58        1.0153           -0.3845232             -10.4634
        59        0.9994           -0.2463311              -6.7030 (HOMO)
        60        0.0005           -0.2321721              -6.3177 (LUMO)
        61        0.0001           -0.2305900              -6.2747
        62        0.0000           -0.2247904              -6.1169
        63                         -0.2213456              -6.0231
        64                         -0.2090941              -5.6897
        65                         -0.2008669              -5.4659
        66                         -0.1730210              -4.7081
        67                         -0.1072204              -2.9176
        68                         -0.1022843              -2.7833
        69                         -0.0760910              -2.0705
        70                          0.0126335               0.3438
       ...                                ...                  ...
       114                          0.6897571              18.7692
      -------------------------------------------------------------
                  HL-Gap            0.0141590 Eh            0.3853 eV
             Fermi-level           -0.3139081 Eh           -8.5419 eV

     #   Z          covCN         q      C6AA      α(0)
     1   7 N        2.863    -0.010    21.455     6.879
     2   6 C        3.801     0.031    20.054     6.376
     3   6 C        2.975    -0.007    28.200     8.711
     4   6 C        2.921    -0.037    28.921     8.819
     5   6 C        2.925    -0.036    28.895     8.815
     6   6 C        2.977     0.000    28.016     8.682
     7   6 C        2.977     0.009    27.815     8.651
     8   6 C        2.925    -0.034    28.837     8.806
     9   6 C        2.918    -0.030    28.739     8.791
    10   6 C        2.920    -0.031    28.775     8.797
    11   6 C        2.918    -0.030    28.740     8.791
    12   6 C        2.925    -0.034    28.835     8.806
    13   6 C        2.924    -0.033    28.816     8.803
    14   6 C        2.922    -0.040    28.990     8.830
    15   6 C        2.973     0.004    27.937     8.670
    16   6 C        2.925    -0.035    28.877     8.812
    17   6 C        2.919    -0.029    28.714     8.787
    18   6 C        2.920    -0.031    28.779     8.797
    19   6 C        2.920    -0.028    28.706     8.786
    20   6 C        2.922    -0.035    28.874     8.812
    21   6 C        3.047    -0.018    28.403     8.741
    22   6 C        3.166     0.014    27.360     8.547
    23   7 N        1.914    -0.227    26.812     7.677
    24   6 C        3.182     0.080    25.812     8.293
    25   1 H        0.923     0.050     2.326     2.385
    26   1 H        0.926     0.027     2.623     2.532
    27   1 H        0.926     0.031     2.579     2.511
    28   1 H        0.926     0.029     2.595     2.519
    29   1 H        0.926     0.028     2.611     2.527
    30   1 H        0.926     0.027     2.627     2.535
    31   1 H        0.926     0.028     2.612     2.527
    32   1 H        0.926     0.029     2.597     2.520
    33   1 H        0.926     0.032     2.556     2.500
    34   1 H        0.926     0.024     2.680     2.560
    35   1 H        0.926     0.029     2.600     2.521
    36   1 H        0.926     0.034     2.531     2.488
    37   1 H        0.926     0.033     2.539     2.492
    38   1 H        0.926     0.034     2.533     2.489
    39   1 H        0.926     0.032     2.560     2.502
    40   1 H        0.927     0.043     2.415     2.430
    41   1 H        0.926     0.039     2.463     2.454
    42   1 H        0.926     0.038     2.469     2.457

 Mol. C6AA /au·bohr⁶  :      23995.715881
 Mol. C8AA /au·bohr⁸  :     595702.602031
 Mol. α(0) /au        :        249.432363


Wiberg/Mayer (AO) data.
largest (>0.10) Wiberg bond orders for each atom

 ---------------------------------------------------------------------------
     #   Z sym  total        # sym  WBO       # sym  WBO       # sym  WBO
 ---------------------------------------------------------------------------
     1   7 N    3.634 --    24 C    1.261    21 C    1.207     2 C    0.952
     2   6 C    3.962 --     3 C    0.982    15 C    0.977     1 N    0.952
                            25 H    0.948
     3   6 C    3.810 --    14 C    1.252     4 C    1.252     2 C    0.982
     4   6 C    3.962 --     5 C    1.580     3 C    1.252    26 H    0.966
     5   6 C    3.955 --     4 C    1.580     6 C    1.184    27 H    0.969
     6   6 C    3.885 --     7 C    1.233     5 C    1.184    13 C    1.183
     7   6 C    3.895 --     6 C    1.233    12 C    1.203     8 C    1.203
     8   6 C    3.953 --     9 C    1.551     7 C    1.203    28 H    0.969
     9   6 C    3.965 --     8 C    1.551    10 C    1.311    29 H    0.970
    10   6 C    3.796 --     9 C    1.311    11 C    1.311    30 H    0.972
    11   6 C    3.965 --    12 C    1.551    10 C    1.311    31 H    0.970
    12   6 C    3.953 --    11 C    1.551     7 C    1.203    32 H    0.969
    13   6 C    3.953 --    14 C    1.580     6 C    1.183    33 H    0.969
    14   6 C    3.964 --    13 C    1.580     3 C    1.252    34 H    0.968
    15   6 C    3.977 --    20 C    1.410    16 C    1.402     2 C    0.977
                            18 C    0.104
    16   6 C    3.988 --    17 C    1.453    15 C    1.402    35 H    0.970
                            19 C    0.112
    17   6 C    3.985 --    16 C    1.453    18 C    1.426    36 H    0.971
                            20 C    0.107
    18   6 C    3.980 --    19 C    1.442    17 C    1.426    37 H    0.971
                            15 C    0.104
    19   6 C    3.990 --    18 C    1.442    20 C    1.439    38 H    0.971
                            16 C    0.112
    20   6 C    3.984 --    19 C    1.439    15 C    1.410    39 H    0.967
                            17 C    0.107
    21   6 C    3.935 --    22 C    1.572     1 N    1.207    40 H    0.965
                            24 C    0.105
    22   6 C    3.961 --    21 C    1.572    23 N    1.291    41 H    0.970
    23   7 N    3.021 --    24 C    1.527    22 C    1.291
    24   6 C    3.949 --    23 N    1.527     1 N    1.261    42 H    0.964
                            21 C    0.105
    25   1 H    0.995 --     2 C    0.948
    26   1 H    0.999 --     4 C    0.966
    27   1 H    0.999 --     5 C    0.969
    28   1 H    0.999 --     8 C    0.969
    29   1 H    0.999 --     9 C    0.970
    30   1 H    0.999 --    10 C    0.972
    31   1 H    0.999 --    11 C    0.970
    32   1 H    0.999 --    12 C    0.969
    33   1 H    0.998 --    13 C    0.969
    34   1 H    0.999 --    14 C    0.968
    35   1 H    0.999 --    16 C    0.970
    36   1 H    0.998 --    17 C    0.971
    37   1 H    0.998 --    18 C    0.971
    38   1 H    0.998 --    19 C    0.971
    39   1 H    0.999 --    20 C    0.967
    40   1 H    0.997 --    21 C    0.965
    41   1 H    0.998 --    22 C    0.970
    42   1 H    0.998 --    24 C    0.964
 ---------------------------------------------------------------------------

Topologies differ in total number of bonds
Writing topology from bond orders to xtbtopo.mol

molecular dipole:
                 x           y           z       tot (Debye)
 q only:        0.036      -0.565       0.185
   full:        0.233      -0.842       0.252       2.311
molecular quadrupole (traceless):
                xx          xy          yy          xz          yz          zz
 q only:       -0.805       8.072      -5.672      -1.235       0.290       6.477
  q+dip:        0.168      12.592     -12.746      -0.660       1.012      12.577
   full:       -1.218      13.008     -10.044      -1.500       0.861      11.262


           -------------------------------------------------
          | TOTAL ENERGY              -61.984845769204 Eh   |
          | GRADIENT NORM               0.160224201387 Eh/α |
          | HOMO-LUMO GAP               0.385286263680 eV   |
           -------------------------------------------------

------------------------------------------------------------------------
 * finished run on 2025/05/15 at 16:33:36.724     
------------------------------------------------------------------------
 total:
 * wall-time:     0 d,  0 h,  0 min,  0.138 sec
 *  cpu-time:     0 d,  0 h,  0 min,  0.094 sec
 * ratio c/w:     0.683 speedup
 SCF:
 * wall-time:     0 d,  0 h,  0 min,  0.124 sec
 *  cpu-time:     0 d,  0 h,  0 min,  0.082 sec
 * ratio c/w:     0.658 speedup


