----- Optimization -----
      -----------------------------------------------------------      
     |                   =====================                   |     
     |                           x T B                           |     
     |                   =====================                   |     
     |                         S. Grimme                         |     
     |          Mulliken Center for Theoretical Chemistry        |     
     |                    University of Bonn                     |     
      -----------------------------------------------------------      

   * xtb version 6.7.1 (edcfbbe) compiled by 'conda@3ef47c1a292c' on 2024-11-25

   xtb is free software: you can redistribute it and/or modify it under
   the terms of the GNU Lesser General Public License as published by
   the Free Software Foundation, either version 3 of the License, or
   (at your option) any later version.
   
   xtb is distributed in the hope that it will be useful,
   but WITHOUT ANY WARRANTY; without even the implied warranty of
   MERCHANTABILITY or FITNESS FOR A PARTICULAR PURPOSE.  See the
   GNU Lesser General Public License for more details.
   
   Cite this work as:
   * C. Bannwarth, E. Caldeweyher, S. Ehlert, A. Hansen, P. Pracht,
     J. Seibert, S. Spicher, S. Grimme, WIREs Comput. Mol. Sci., 2020, 11,
     e01493. DOI: 10.1002/wcms.1493
   
   for GFN2-xTB:
   * C. Bannwarth, S. Ehlert and S. Grimme., J. Chem. Theory Comput., 2019,
     15, 1652-1671. DOI: 10.1021/acs.jctc.8b01176
   for GFN1-xTB:
   * S. Grimme, C. Bannwarth, P. Shushkov, J. Chem. Theory Comput., 2017,
     13, 1989-2009. DOI: 10.1021/acs.jctc.7b00118
   for GFN0-xTB:
   * P. Pracht, E. Caldeweyher, S. Ehlert, S. Grimme, ChemRxiv, 2019, preprint.
     DOI: 10.26434/chemrxiv.8326202.v1
   for GFN-FF:
   * S. Spicher and S. Grimme, Angew. Chem. Int. Ed., 2020, 59, 15665-15673.
     DOI: 10.1002/anie.202004239
   
   for ALPB and GBSA implicit solvation:
   * S. Ehlert, M. Stahn, S. Spicher, S. Grimme, J. Chem. Theory Comput.,
     2021, 17, 4250-4261. DOI: 10.1021/acs.jctc.1c00471
   
   for ddCOSMO and CPCM-X implicit solvation:
   * M. Stahn, S. Ehlert, S. Grimme, J. Phys. Chem. A,
     2023, XX, XXXX-XXXX. DOI: 10.1021/acs.jpca.3c04382
   
   for DFT-D4:
   * E. Caldeweyher, C. Bannwarth and S. Grimme, J. Chem. Phys., 2017,
     147, 034112. DOI: 10.1063/1.4993215
   * E. Caldeweyher, S. Ehlert, A. Hansen, H. Neugebauer, S. Spicher,
     C. Bannwarth and S. Grimme, J. Chem. Phys., 2019, 150, 154122.
     DOI: 10.1063/1.5090222
   * E. Caldeweyher, J.-M. Mewes, S. Ehlert and S. Grimme, Phys. Chem. Chem. Phys.
     2020, 22, 8499-8512. DOI: 10.1039/D0CP00502A
   
   for sTDA-xTB:
   * S. Grimme and C. Bannwarth, J. Chem. Phys., 2016, 145, 054103.
     DOI: 10.1063/1.4959605
   
   in the mass-spec context:
   * V. Asgeirsson, C. Bauer and S. Grimme, Chem. Sci., 2017, 8, 4879.
     DOI: 10.1039/c7sc00601b
   * J. Koopman and S. Grimme, ACS Omega 2019, 4, 12, 15120-15133.
     DOI: 10.1021/acsomega.9b02011
   
   for metadynamics refer to:
   * S. Grimme, J. Chem. Theory Comput., 2019, 155, 2847-2862
     DOI: 10.1021/acs.jctc.9b00143
   
   for SPH calculations refer to:
   * S. Spicher and S. Grimme, J. Chem. Theory Comput., 2021, 17, 1701-1714
     DOI: 10.1021/acs.jctc.0c01306
   
   for ONIOM refer to:
   * C. Plett, A. Katbashev, S. Ehlert, S. Grimme, M. Bursch,
     Phys. Chem. Chem. Phys., 2023, 25, 17860-17868. DOI: 10.1039/D3CP02178E
   
   for DIPRO refer to:
   * J. Kohn, N. Gildemeister, S. Grimme, D. Fazzi, A. Hansen,
     J. Chem. Phys., 2023, just accepted.
   
   for PTB refer to:
   * S. Grimme, M. Mueller, A. Hansen, J. Chem. Phys., 2023, 158, 124111.
     DOI: 10.1063/5.0137838
   
   with help from (in alphabetical order)
   P. Atkinson, C. Bannwarth, F. Bohle, G. Brandenburg, E. Caldeweyher
   M. Checinski, S. Dohm, S. Ehlert, S. Ehrlich, I. Gerasimov, C. Hölzer
   A. Katbashev, J. Kohn, J. Koopman, C. Lavigne, S. Lehtola, F. März, M. Müller,
   F. Musil, H. Neugebauer, J. Pisarek, C. Plett, P. Pracht, F. Pultar,
   J. Seibert, P. Shushkov, S. Spicher, M. Stahn, M. Steiner, T. Strunk,
   J. Stückrath, T. Rose, and J. Unsleber
   
 * started run on 2025/05/15 at 16:29:53.935     
   ID    Z sym.   atoms
    1    6 C      1-9, 12-15
    2    8 O      10, 11
    3    1 H      16-33

           -------------------------------------------------
          |                Calculation Setup                |
           -------------------------------------------------

          program call               : xtb /rds/general/user/hgt20/home/callum/QDESCP/Ibuprofen_rdkit_conf_1/Ibuprofen_rdkit_conf_1.xyz --opt normal --acc 1 --gfn 2 --chrg 0 --uhf 0 -P 1
          hostname                   : login-c
          coordinate file            : /rds/general/user/hgt20/home/callum/QDESCP/Ibuprofen_rdkit_conf_1/Ibuprofen_rdkit_conf_1.xyz
          omp threads                :                     1


           -------------------------------------------------
          |                 G F N 2 - x T B                 |
           -------------------------------------------------

        Reference                      10.1021/acs.jctc.8b01176
      * Hamiltonian:
        H0-scaling (s, p, d)           1.850000    2.230000    2.230000
        zeta-weighting                 0.500000
      * Dispersion:
        s8                             2.700000
        a1                             0.520000
        a2                             5.000000
        s9                             5.000000
      * Repulsion:
        kExp                           1.500000    1.000000
        rExp                           1.000000
      * Coulomb:
        alpha                          2.000000
        third order                    shell-resolved
        anisotropic                    true
        a3                             3.000000
        a5                             4.000000
        cn-shift                       1.200000
        cn-exp                         4.000000
        max-rad                        5.000000


          ...................................................
          :                      SETUP                      :
          :.................................................:
          :  # basis functions                  78          :
          :  # atomic orbitals                  78          :
          :  # shells                           48          :
          :  # electrons                        82          :
          :  max. iterations                   250          :
          :  Hamiltonian                  GFN2-xTB          :
          :  restarted?                      false          :
          :  GBSA solvation                  false          :
          :  PC potential                    false          :
          :  electronic temp.          300.0000000     K    :
          :  accuracy                    1.0000000          :
          :  -> integral cutoff          0.2500000E+02      :
          :  -> integral neglect         0.1000000E-07      :
          :  -> SCF convergence          0.1000000E-05 Eh   :
          :  -> wf. convergence          0.1000000E-03 e    :
          :  Broyden damping             0.4000000          :
          :  net charge                          0          :
          :  unpaired electrons                  0          :
          ...................................................

 iter      E             dE          RMSdq      gap      omega  full diag
   1    -45.7120994 -0.457121E+02  0.380E+00    4.37       0.0  T
   2    -45.7810724 -0.689729E-01  0.212E+00    4.09       1.0  T
   3    -45.7825682 -0.149586E-02  0.107E+00    4.23       1.0  T
   4    -45.7888852 -0.631694E-02  0.184E-01    3.84       1.0  T
   5    -45.7892808 -0.395600E-03  0.722E-02    3.87       1.0  T
   6    -45.7893021 -0.213237E-04  0.415E-02    3.88       1.0  T
   7    -45.7893278 -0.257595E-04  0.125E-02    3.89       1.4  T
   8    -45.7893301 -0.221990E-05  0.453E-03    3.90       3.8  T
   9    -45.7893303 -0.216813E-06  0.212E-03    3.90       8.2  T
  10    -45.7893303 -0.366059E-07  0.823E-04    3.89      21.2  T
  11    -45.7893303 -0.598211E-08  0.382E-04    3.89      45.5  T

   *** convergence criteria satisfied after 11 iterations ***

         #    Occupation            Energy/Eh            Energy/eV
      -------------------------------------------------------------
         1        2.0000           -0.7442044             -20.2508
       ...           ...                  ...                  ...
        35        2.0000           -0.4384805             -11.9317
        36        2.0000           -0.4280294             -11.6473
        37        2.0000           -0.4246710             -11.5559
        38        2.0000           -0.4203910             -11.4394
        39        2.0000           -0.4136181             -11.2551
        40        2.0000           -0.4012951             -10.9198
        41        2.0000           -0.3885429             -10.5728 (HOMO)
        42                         -0.2454293              -6.6785 (LUMO)
        43                         -0.2253079              -6.1309
        44                         -0.2218045              -6.0356
        45                         -0.1030986              -2.8055
        46                          0.0432170               1.1760
       ...                                ...                  ...
        78                          0.6189203              16.8417
      -------------------------------------------------------------
                  HL-Gap            0.1431136 Eh            3.8943 eV
             Fermi-level           -0.3169861 Eh           -8.6256 eV

 SCC (total)                   0 d,  0 h,  0 min,  0.031 sec
 SCC setup                      ...        0 min,  0.000 sec (  0.835%)
 Dispersion                     ...        0 min,  0.000 sec (  0.986%)
 classical contributions        ...        0 min,  0.000 sec (  0.299%)
 integral evaluation            ...        0 min,  0.004 sec ( 14.244%)
 iterations                     ...        0 min,  0.013 sec ( 42.948%)
 molecular gradient             ...        0 min,  0.012 sec ( 40.293%)
 printout                       ...        0 min,  0.000 sec (  0.375%)

         :::::::::::::::::::::::::::::::::::::::::::::::::::::
         ::                     SUMMARY                     ::
         :::::::::::::::::::::::::::::::::::::::::::::::::::::
         :: total energy             -45.166056749447 Eh    ::
         :: gradient norm              0.053350977807 Eh/a0 ::
         :: HOMO-LUMO gap              3.894319301840 eV    ::
         ::.................................................::
         :: SCC energy               -45.789177733725 Eh    ::
         :: -> isotropic ES            0.052348559348 Eh    ::
         :: -> anisotropic ES          0.007569094255 Eh    ::
         :: -> anisotropic XC          0.019805308829 Eh    ::
         :: -> dispersion             -0.028838900838 Eh    ::
         :: repulsion energy           0.623120984278 Eh    ::
         :: add. restraining           0.000000000000 Eh    ::
         :: total charge               0.000000000000 e     ::
         :::::::::::::::::::::::::::::::::::::::::::::::::::::

      ----------------------------------------------------------- 
     |                   =====================                   |
     |                        A N C O P T                        |
     |                   =====================                   |
     |               Approximate Normal Coordinate               |
     |                Rational Function Optimizer                |
      ----------------------------------------------------------- 
      ----------------------------------------------------------- 
     |                   =====================                   |
     |                        A N C O P T                        |
     |                   =====================                   |
     |               Approximate Normal Coordinate               |
     |                Rational Function Optimizer                |
      ----------------------------------------------------------- 

          ...................................................
          :                      SETUP                      :
          :.................................................:
          :   optimization level            normal          :
          :   max. optcycles                   200          :
          :   ANC micro-cycles                  20          :
          :   degrees of freedom                93          :
          :.................................................:
          :   RF solver                   davidson          :
          :   write xtbopt.log                true          :
          :   linear?                        false          :
          :   energy convergence         0.5000000E-05 Eh   :
          :   grad. convergence          0.1000000E-02 Eh/α :
          :   maxmium RF displ.          1.0000000          :
          :   Hlow (freq-cutoff)         0.1000000E-01      :
          :   Hmax (freq-cutoff)         5.0000000          :
          :   S6 in model hess.         20.0000000          :
          ...................................................

generating ANC from exact Hessian ...
Using Lindh-Hessian (1995)
 Shifting diagonal of input Hessian by    9.6525758092888009E-003
 Lowest  eigenvalues of input Hessian
    0.000000    0.000000    0.000000    0.000000    0.000000    0.000000
    0.010000    0.010407    0.010870    0.011741    0.011954    0.013879
    0.015089    0.017057    0.017969    0.018235    0.018768    0.019387
 Highest eigenvalues
    1.556868    1.688059    1.823048    1.895485    1.935051    2.249692


........................................................................
.............................. CYCLE    1 ..............................
........................................................................

 iter      E             dE          RMSdq      gap      omega  full diag
   1    -45.7893303 -0.457893E+02  0.166E-04    3.89       0.0  T
   2    -45.7893303 -0.241009E-09  0.110E-04    3.89     158.0  T
   3    -45.7893303 -0.191932E-09  0.656E-05    3.89     265.5  T
     SCC iter.                  ...        0 min,  0.051 sec
     gradient                   ...        0 min,  0.012 sec
 * total energy  :   -45.1660568 Eh     change       -0.9422649E-09 Eh
   gradient norm :     0.0533566 Eh/α   predicted     0.0000000E+00 (-100.00%)
   displ. norm   :     0.2377437 α      lambda       -0.6261881E-02
   maximum displ.:     0.0949024 α      in ANC's #6, #23, #53, ...

........................................................................
.............................. CYCLE    2 ..............................
........................................................................

 iter      E             dE          RMSdq      gap      omega  full diag
   1    -45.8235955 -0.458236E+02  0.156E-01    4.10       0.0  T
   2    -45.8236536 -0.581108E-04  0.920E-02    4.06       1.0  T
   3    -45.8236490  0.462799E-05  0.304E-02    4.07       1.0  T
   4    -45.8236583 -0.924837E-05  0.492E-03    4.06       3.5  T
   5    -45.8236587 -0.484976E-06  0.231E-03    4.06       7.5  T
   6    -45.8236588 -0.574610E-07  0.125E-03    4.06      13.9  T
   7    -45.8236588 -0.981380E-08  0.320E-04    4.06      54.4  T
   8    -45.8236588 -0.146101E-08  0.149E-04    4.06     116.8  T
     SCC iter.                  ...        0 min,  0.009 sec
     gradient                   ...        0 min,  0.012 sec
 * total energy  :   -45.1701041 Eh     change       -0.4047305E-02 Eh
   gradient norm :     0.0160443 Eh/α   predicted    -0.3308642E-02 ( -18.25%)
   displ. norm   :     0.2325709 α      lambda       -0.1618544E-02
   maximum displ.:     0.1665872 α      in ANC's #6, #18, #5, ...

........................................................................
.............................. CYCLE    3 ..............................
........................................................................

 iter      E             dE          RMSdq      gap      omega  full diag
   1    -45.8382806 -0.458383E+02  0.908E-02    4.12       0.0  T
   2    -45.8382942 -0.135787E-04  0.530E-02    4.11       1.0  T
   3    -45.8382917  0.252886E-05  0.163E-02    4.11       1.1  T
   4    -45.8382956 -0.389949E-05  0.330E-03    4.11       5.3  T
   5    -45.8382958 -0.256695E-06  0.152E-03    4.11      11.4  T
   6    -45.8382959 -0.313140E-07  0.802E-04    4.11      21.7  T
   7    -45.8382959 -0.314132E-08  0.228E-04    4.11      76.3  T
     SCC iter.                  ...        0 min,  0.060 sec
     gradient                   ...        0 min,  0.012 sec
 * total energy  :   -45.1710992 Eh     change       -0.9951866E-03 Eh
   gradient norm :     0.0076474 Eh/α   predicted    -0.8530461E-03 ( -14.28%)
   displ. norm   :     0.1987877 α      lambda       -0.5596538E-03
   maximum displ.:     0.1393437 α      in ANC's #6, #13, #4, ...

........................................................................
.............................. CYCLE    4 ..............................
........................................................................

 iter      E             dE          RMSdq      gap      omega  full diag
   1    -45.8400670 -0.458401E+02  0.665E-02    4.11       0.0  T
   2    -45.8400687 -0.168081E-05  0.390E-02    4.11       1.0  T
   3    -45.8400679  0.722280E-06  0.709E-03    4.11       2.5  T
   4    -45.8400692 -0.127855E-05  0.185E-03    4.11       9.4  T
   5    -45.8400692 -0.918057E-08  0.106E-03    4.11      16.4  T
   6    -45.8400692 -0.118954E-07  0.392E-04    4.11      44.4  T
   7    -45.8400692 -0.134530E-08  0.129E-04    4.11     135.0  T
     SCC iter.                  ...        0 min,  0.008 sec
     gradient                   ...        0 min,  0.012 sec
 * total energy  :   -45.1714653 Eh     change       -0.3660855E-03 Eh
   gradient norm :     0.0050530 Eh/α   predicted    -0.2909108E-03 ( -20.53%)
   displ. norm   :     0.1883290 α      lambda       -0.2724553E-03
   maximum displ.:     0.1321594 α      in ANC's #6, #13, #1, ...

........................................................................
.............................. CYCLE    5 ..............................
........................................................................

 iter      E             dE          RMSdq      gap      omega  full diag
   1    -45.8376676 -0.458377E+02  0.665E-02    4.09       0.0  T
   2    -45.8376693 -0.165822E-05  0.392E-02    4.09       1.0  T
   3    -45.8376685  0.762262E-06  0.623E-03    4.09       2.8  T
   4    -45.8376697 -0.113243E-05  0.198E-03    4.09       8.8  T
   5    -45.8376697 -0.720962E-07  0.103E-03    4.09      16.9  T
   6    -45.8376698 -0.550003E-08  0.444E-04    4.09      39.2  T
   7    -45.8376698 -0.213318E-08  0.129E-04    4.09     134.9  T
     SCC iter.                  ...        0 min,  0.059 sec
     gradient                   ...        0 min,  0.012 sec
 * total energy  :   -45.1716319 Eh     change       -0.1665257E-03 Eh
   gradient norm :     0.0041998 Eh/α   predicted    -0.1410773E-03 ( -15.28%)
   displ. norm   :     0.1060823 α      lambda       -0.8982378E-04
   maximum displ.:     0.0527036 α      in ANC's #6, #1, #4, ...

........................................................................
.............................. CYCLE    6 ..............................
........................................................................

 iter      E             dE          RMSdq      gap      omega  full diag
   1    -45.8366730 -0.458367E+02  0.327E-02    4.10       0.0  T
   2    -45.8366733 -0.262108E-06  0.192E-02    4.10       1.0  T
   3    -45.8366732  0.903945E-07  0.274E-03    4.10       6.4  T
   4    -45.8366733 -0.190019E-06  0.804E-04    4.09      21.6  T
   5    -45.8366734 -0.126471E-08  0.459E-04    4.09      37.9  T
     SCC iter.                  ...        0 min,  0.005 sec
     gradient                   ...        0 min,  0.012 sec
 * total energy  :   -45.1716957 Eh     change       -0.6380427E-04 Eh
   gradient norm :     0.0025710 Eh/α   predicted    -0.4541817E-04 ( -28.82%)
   displ. norm   :     0.1134838 α      lambda       -0.6582605E-04
   maximum displ.:     0.0589380 α      in ANC's #1, #4, #13, ...

........................................................................
.............................. CYCLE    7 ..............................
........................................................................

 iter      E             dE          RMSdq      gap      omega  full diag
   1    -45.8365428 -0.458365E+02  0.324E-02    4.10       0.0  T
   2    -45.8365430 -0.174127E-06  0.190E-02    4.10       1.0  T
   3    -45.8365429  0.461939E-07  0.211E-03    4.10       8.3  T
   4    -45.8365431 -0.118682E-06  0.786E-04    4.10      22.1  T
   5    -45.8365431 -0.410253E-08  0.401E-04    4.10      43.4  T
     SCC iter.                  ...        0 min,  0.057 sec
     gradient                   ...        0 min,  0.012 sec
 * total energy  :   -45.1717429 Eh     change       -0.4720431E-04 Eh
   gradient norm :     0.0021633 Eh/α   predicted    -0.3333939E-04 ( -29.37%)
   displ. norm   :     0.1136429 α      lambda       -0.4642543E-04
   maximum displ.:     0.0651169 α      in ANC's #1, #4, #5, ...

........................................................................
.............................. CYCLE    8 ..............................
........................................................................

 iter      E             dE          RMSdq      gap      omega  full diag
   1    -45.8370746 -0.458371E+02  0.309E-02    4.10       0.0  T
   2    -45.8370747 -0.132535E-06  0.182E-02    4.10       1.0  T
   3    -45.8370746  0.374406E-07  0.190E-03    4.10       9.1  T
   4    -45.8370747 -0.932981E-07  0.648E-04    4.10      26.9  T
   5    -45.8370747 -0.127206E-08  0.357E-04    4.10      48.8  T
     SCC iter.                  ...        0 min,  0.006 sec
     gradient                   ...        0 min,  0.012 sec
 * total energy  :   -45.1717781 Eh     change       -0.3521347E-04 Eh
   gradient norm :     0.0021486 Eh/α   predicted    -0.2351433E-04 ( -33.22%)
   displ. norm   :     0.1339772 α      lambda       -0.4474045E-04
   maximum displ.:     0.0786530 α      in ANC's #1, #4, #5, ...

........................................................................
.............................. CYCLE    9 ..............................
........................................................................

 iter      E             dE          RMSdq      gap      omega  full diag
   1    -45.8377272 -0.458377E+02  0.356E-02    4.10       0.0  T
   2    -45.8377274 -0.162774E-06  0.210E-02    4.10       1.0  T
   3    -45.8377273  0.631972E-07  0.215E-03    4.10       8.1  T
   4    -45.8377275 -0.125283E-06  0.642E-04    4.10      27.1  T
   5    -45.8377275 -0.125644E-08  0.375E-04    4.10      46.4  T
     SCC iter.                  ...        0 min,  0.005 sec
     gradient                   ...        0 min,  0.064 sec
 * total energy  :   -45.1718123 Eh     change       -0.3426069E-04 Eh
   gradient norm :     0.0018911 Eh/α   predicted    -0.2277295E-04 ( -33.53%)
   displ. norm   :     0.2103780 α      lambda       -0.3894103E-04
   maximum displ.:     0.1246287 α      in ANC's #1, #4, #5, ...

........................................................................
.............................. CYCLE   10 ..............................
........................................................................

 iter      E             dE          RMSdq      gap      omega  full diag
   1    -45.8382447 -0.458382E+02  0.532E-02    4.10       0.0  T
   2    -45.8382450 -0.270814E-06  0.313E-02    4.10       1.0  T
   3    -45.8382448  0.143530E-06  0.284E-03    4.10       6.1  T
   4    -45.8382451 -0.250962E-06  0.811E-04    4.10      21.5  T
   5    -45.8382451 -0.361645E-08  0.454E-04    4.10      38.3  T
     SCC iter.                  ...        0 min,  0.006 sec
     gradient                   ...        0 min,  0.012 sec
 * total energy  :   -45.1718482 Eh     change       -0.3584567E-04 Eh
   gradient norm :     0.0019205 Eh/α   predicted    -0.1985431E-04 ( -44.61%)
   displ. norm   :     0.0688190 α      lambda       -0.1274658E-04
   maximum displ.:     0.0427996 α      in ANC's #1, #6, #4, ...

........................................................................
.............................. CYCLE   11 ..............................
........................................................................

 iter      E             dE          RMSdq      gap      omega  full diag
   1    -45.8381632 -0.458382E+02  0.154E-02    4.10       0.0  T
   2    -45.8381633 -0.632327E-07  0.903E-03    4.10       1.9  T
   3    -45.8381632  0.368368E-07  0.129E-03    4.10      13.5  T
   4    -45.8381633 -0.491688E-07  0.270E-04    4.10      64.4  T
   5    -45.8381633 -0.143098E-08  0.136E-04    4.10     127.6  T
     SCC iter.                  ...        0 min,  0.006 sec
     gradient                   ...        0 min,  0.064 sec
 * total energy  :   -45.1718625 Eh     change       -0.1427338E-04 Eh
   gradient norm :     0.0012690 Eh/α   predicted    -0.6388408E-05 ( -55.24%)
   displ. norm   :     0.0624766 α      lambda       -0.8608708E-05
   maximum displ.:     0.0401777 α      in ANC's #1, #6, #4, ...

........................................................................
.............................. CYCLE   12 ..............................
........................................................................

 iter      E             dE          RMSdq      gap      omega  full diag
   1    -45.8377257 -0.458377E+02  0.132E-02    4.11       0.0  T
   2    -45.8377258 -0.119646E-06  0.778E-03    4.10       2.2  T
   3    -45.8377258  0.401005E-07  0.157E-03    4.10      11.1  T
   4    -45.8377258 -0.542674E-07  0.351E-04    4.10      49.6  T
   5    -45.8377258 -0.315981E-08  0.164E-04    4.10     106.1  T
     SCC iter.                  ...        0 min,  0.006 sec
     gradient                   ...        0 min,  0.013 sec
 * total energy  :   -45.1718711 Eh     change       -0.8692890E-05 Eh
   gradient norm :     0.0005239 Eh/α   predicted    -0.4314172E-05 ( -50.37%)
   displ. norm   :     0.0405263 α      lambda       -0.3278057E-05
   maximum displ.:     0.0279575 α      in ANC's #1, #6, #10, ...

........................................................................
.............................. CYCLE   13 ..............................
........................................................................

 iter      E             dE          RMSdq      gap      omega  full diag
   1    -45.8376601 -0.458377E+02  0.800E-03    4.10       0.0  T
   2    -45.8376601 -0.416596E-07  0.470E-03    4.10       3.7  T
   3    -45.8376601  0.252249E-08  0.590E-04    4.10      29.5  T
   4    -45.8376601 -0.410781E-08  0.208E-04    4.10      83.9  T
     SCC iter.                  ...        0 min,  0.004 sec
     gradient                   ...        0 min,  0.063 sec
 * total energy  :   -45.1718747 Eh     change       -0.3558606E-05 Eh
   gradient norm :     0.0006687 Eh/α   predicted    -0.1640522E-05 ( -53.90%)
   displ. norm   :     0.0354822 α      lambda       -0.2662591E-05
   maximum displ.:     0.0255808 α      in ANC's #1, #10, #9, ...

   *** GEOMETRY OPTIMIZATION CONVERGED AFTER 13 ITERATIONS ***

------------------------------------------------------------------------
 total energy gain   :        -0.0058180 Eh       -3.6508 kcal/mol
 total RMSD          :         0.2189279 a0        0.1159 Å
 total power (kW/mol):        -1.1750035 (step)  -22.7732 (real)
------------------------------------------------------------------------

 ANCopt (total)                0 d,  0 h,  0 min,  0.671 sec
 optimizer setup                ...        0 min,  0.000 sec (  0.012%)
 model hessian                  ...        0 min,  0.011 sec (  1.618%)
 ANC generation                 ...        0 min,  0.001 sec (  0.147%)
 coordinate transformation      ...        0 min,  0.000 sec (  0.010%)
 single point calculation       ...        0 min,  0.656 sec ( 97.727%)
 optimization log               ...        0 min,  0.002 sec (  0.301%)
 hessian update                 ...        0 min,  0.000 sec (  0.018%)
 rational function              ...        0 min,  0.001 sec (  0.104%)

================
 final structure:
================
33
 xtb: 6.7.1 (edcfbbe)
C           -2.91471083456338        1.39358591344503       -0.57281996894583
C           -3.17747277530323       -0.00451522362124       -0.02141421618080
C           -2.22870372569361       -1.03143292935624       -0.66369688769409
C           -0.79385198679455       -0.76743041264616       -0.31242561816598
C            0.07740660110880       -0.18143394922914       -1.22174710378627
C            1.39362245020287        0.07336647871238       -0.88301617753631
C            1.87135952729192       -0.25121999468008        0.37996957572137
C            3.32047729718054       -0.00401390919976        0.74479070057402
C            3.59684269539849        1.46604367479780        0.51607979872789
O            3.38402801646222        2.18498214685300        1.62634517798084
O            3.93382451835375        1.96781488493024       -0.52217703181112
C            4.25797676847390       -0.86963755278623       -0.09818347280529
C            1.00184253582052       -0.82625918712330        1.29648234326756
C           -0.31192537028254       -1.08360579758012        0.95191123329400
C           -4.62918419349157       -0.40941443152914       -0.26359606984694
H           -3.10709983509141        1.42127480366486       -1.64348959914571
H           -3.56354941312383        2.12081634303646       -0.09004811111334
H           -1.88168861317276        1.68584180169670       -0.39990045732057
H           -2.99102353947841        0.00708914514353        1.05824226188418
H           -2.50674392947829       -2.02895891021112       -0.31427214972647
H           -2.35780190907705       -1.00329104913564       -1.74750771161189
H           -0.27727918319162        0.07739710742796       -2.20921303603412
H            2.05366045537309        0.53656510704696       -1.60118986464039
H            3.45909661112866       -0.21227047785958        1.80891560561278
H            3.52429417026126        3.12962092415275        1.45226664207840
H            4.22017009265868       -0.55540251835359       -1.13723604099675
H            3.95966877020848       -1.91281426190523       -0.03268457580588
H            5.28234247116484       -0.77204466875503        0.25370088003027
H            1.35632519612067       -1.08108751975451        2.28516207369379
H           -0.97269514906411       -1.54134079556606        1.67448466370946
H           -5.30645558637851        0.30830822524678        0.19391009266642
H           -4.83951547561247       -0.44617267578571       -1.33065981134569
H           -4.83333665741167       -1.39056029107662        0.15991685527193

 Bond Distances (Angstroems)
 ---------------------------
C1-C2=1.5257         C1-H16=1.0882        C1-H17=1.0876        C1-H18=1.0874        C2-C1=1.5257         C2-C3=1.5386         
C2-C15=1.5265        C2-H19=1.0957        C3-C2=1.5386         C3-C4=1.5006         C3-H20=1.0929        C3-H21=1.0918        
C4-C3=1.5006         C4-C5=1.3890         C4-C14=1.3895        C5-C4=1.3890         C5-C6=1.3828         C5-H22=1.0807        
C6-C5=1.3828         C6-C7=1.3888         C6-H23=1.0798        C7-C6=1.3888         C7-C8=1.5146         C7-C13=1.3881        
C8-C7=1.5146         C8-C9=1.5132         C8-C12=1.5293        C8-H24=1.0931        C9-C8=1.5132         C9-O10=1.3397        
C9-O11=1.2014        O10-C9=1.3397        O10-H25=0.9707       O11-C9=1.2014        C12-C8=1.5293        C12-H26=1.0862       
C12-H27=1.0870       C12-H28=1.0875       C13-C7=1.3881        C13-C14=1.3824       C13-H29=1.0808       C14-C4=1.3895        
C14-C13=1.3824       C14-H30=1.0809       C15-C2=1.5265        C15-H31=1.0877       C15-H32=1.0882       C15-H33=1.0880       
H16-C1=1.0882        H17-C1=1.0876        H18-C1=1.0874        H19-C2=1.0957        H20-C3=1.0929        H21-C3=1.0918        
H22-C5=1.0807        H23-C6=1.0798        H24-C8=1.0931        H25-O10=0.9707       H26-C12=1.0862       H27-C12=1.0870       
H28-C12=1.0875       H29-C13=1.0808       H30-C14=1.0809       H31-C15=1.0877       H32-C15=1.0882       H33-C15=1.0880       
 C  H  Rav=1.0873 sigma=0.0045  Rmin=1.0798  Rmax=1.0957    17
 C  C  Rav=1.4592 sigma=0.0676  Rmin=1.3824  Rmax=1.5386    13
 O  H  Rav=0.9707 sigma=0.0000  Rmin=0.9707  Rmax=0.9707     1
 O  C  Rav=1.2705 sigma=0.0692  Rmin=1.2014  Rmax=1.3397     2

 selected bond angles (degree)
 --------------------
H16-C1-C2=110.39               H17-C1-C2=110.46               H17-C1-H16=108.32              H18-C1-C2=110.64               
H18-C1-H16=108.52              H18-C1-H17=108.45              C3-C2-C1=110.77                C15-C2-C1=110.46               
C15-C2-C3=110.07               H19-C2-C1=108.49               H19-C2-C3=108.27               H19-C2-C15=108.72              
C4-C3-C2=111.99                H20-C3-C2=108.59               H20-C3-C4=109.21               H21-C3-C2=108.92               
H21-C3-C4=109.93               H21-C3-H20=108.11              C5-C4-C3=121.38                C14-C4-C3=120.30               
C14-C4-C5=118.30               C6-C5-C4=120.96                H22-C5-C4=119.56               H22-C5-C6=119.48               
C7-C6-C5=120.47                H23-C6-C5=119.86               H23-C6-C7=119.66               C8-C7-C6=120.66                
C13-C7-C6=118.80               C13-C7-C8=120.52               C9-C8-C7=107.27                C12-C8-C7=111.18               
C12-C8-C9=110.77               H24-C8-C7=108.95               H24-C8-C9=108.00               H24-C8-C12=110.55              
O10-C9-C8=111.53               O11-C9-C8=125.99               O11-C9-O10=122.45              H25-O10-C9=110.53              

 selected dihedral angles (degree)
 ---------------------------------
C3-C2-C1-H16= 62.24           C3-C2-C1-H17=182.01           C3-C2-C1-H18=302.10           C15-C2-C1-H16=300.01          
C15-C2-C1-H17= 59.79          C15-C2-C1-H18=179.88          H19-C2-C1-H16=180.94          H19-C2-C1-H17=300.71          
H19-C2-C1-H18= 60.80          C4-C3-C2-C1= 64.44            C4-C3-C2-C15=186.89           C4-C3-C2-H19=305.60           
H20-C3-C2-C1=185.12           H20-C3-C2-C15=307.56          H20-C3-C2-H19= 66.28          H21-C3-C2-C1=302.63           
H21-C3-C2-C15= 65.08          H21-C3-C2-H19=183.80          C5-C4-C3-C2=256.60            C5-C4-C3-H20=136.28           
C5-C4-C3-H21= 17.82           C14-C4-C3-C2= 75.31           C14-C4-C3-H20=314.99          C14-C4-C3-H21=196.53          
C6-C5-C4-C3=179.17            C6-C5-C4-C14=  0.44           H22-C5-C4-C3=359.04           H22-C5-C4-C14=180.30          
C7-C6-C5-C4=359.88            C7-C6-C5-H22=180.02           H23-C6-C5-C4=180.47           H23-C6-C5-H22=  0.61          
C8-C7-C6-C5=178.55            C8-C7-C6-H23=357.97           C13-C7-C6-C5=359.55           C13-C7-C6-H23=178.97          
C9-C8-C7-C6= 56.52            C9-C8-C7-C13=235.50           C12-C8-C7-C6=295.27           C12-C8-C7-C13=114.25          
H24-C8-C7-C6=173.20           H24-C8-C7-C13=352.18          O10-C9-C8-C7= 91.69           O10-C9-C8-C12=213.20          
O10-C9-C8-H24=334.40          O11-C9-C8-C7=273.42           O11-C9-C8-C12= 34.93          O11-C9-C8-H24=156.12          
H25-O10-C9-C8=182.71          H25-O10-C9-O11=  1.05         
           -------------------------------------------------
          |                Final Singlepoint                |
           -------------------------------------------------

          ...................................................
          :                      SETUP                      :
          :.................................................:
          :  # basis functions                  78          :
          :  # atomic orbitals                  78          :
          :  # shells                           48          :
          :  # electrons                        82          :
          :  max. iterations                   250          :
          :  Hamiltonian                  GFN2-xTB          :
          :  restarted?                      false          :
          :  GBSA solvation                  false          :
          :  PC potential                    false          :
          :  electronic temp.          300.0000000     K    :
          :  accuracy                    1.0000000          :
          :  -> integral cutoff          0.2500000E+02      :
          :  -> integral neglect         0.1000000E-07      :
          :  -> SCF convergence          0.1000000E-05 Eh   :
          :  -> wf. convergence          0.1000000E-03 e    :
          :  Broyden damping             0.4000000          :
          :  net charge                          0          :
          :  unpaired electrons                  0          :
          ...................................................

 iter      E             dE          RMSdq      gap      omega  full diag
   1    -45.8376601 -0.458377E+02  0.786E-05    4.10       0.0  T
   2    -45.8376601 -0.279030E-10  0.473E-05    4.10     368.0  T
   3    -45.8376601 -0.133227E-10  0.304E-05    4.10     572.0  T

   *** convergence criteria satisfied after 3 iterations ***

         #    Occupation            Energy/Eh            Energy/eV
      -------------------------------------------------------------
         1        2.0000           -0.7446164             -20.2620
       ...           ...                  ...                  ...
        35        2.0000           -0.4374268             -11.9030
        36        2.0000           -0.4274104             -11.6304
        37        2.0000           -0.4244980             -11.5512
        38        2.0000           -0.4185439             -11.3892
        39        2.0000           -0.4105019             -11.1703
        40        2.0000           -0.4020787             -10.9411
        41        2.0000           -0.3879406             -10.5564 (HOMO)
        42                         -0.2371375              -6.4528 (LUMO)
        43                         -0.2206939              -6.0054
        44                         -0.2153866              -5.8610
        45                         -0.0942804              -2.5655
        46                          0.0479962               1.3060
       ...                                ...                  ...
        78                          0.6588184              17.9274
      -------------------------------------------------------------
                  HL-Gap            0.1508031 Eh            4.1036 eV
             Fermi-level           -0.3125391 Eh           -8.5046 eV

 SCC (total)                   0 d,  0 h,  0 min,  0.021 sec
 SCC setup                      ...        0 min,  0.000 sec (  0.892%)
 Dispersion                     ...        0 min,  0.000 sec (  0.868%)
 classical contributions        ...        0 min,  0.000 sec (  0.407%)
 integral evaluation            ...        0 min,  0.004 sec ( 20.543%)
 iterations                     ...        0 min,  0.003 sec ( 16.375%)
 molecular gradient             ...        0 min,  0.012 sec ( 60.454%)
 printout                       ...        0 min,  0.000 sec (  0.432%)

         :::::::::::::::::::::::::::::::::::::::::::::::::::::
         ::                     SUMMARY                     ::
         :::::::::::::::::::::::::::::::::::::::::::::::::::::
         :: total energy             -45.171874708244 Eh    ::
         :: gradient norm              0.000666664928 Eh/a0 ::
         :: HOMO-LUMO gap              4.103561282860 eV    ::
         ::.................................................::
         :: SCC energy               -45.837498033646 Eh    ::
         :: -> isotropic ES            0.052066984775 Eh    ::
         :: -> anisotropic ES          0.006473820284 Eh    ::
         :: -> anisotropic XC          0.018470229273 Eh    ::
         :: -> dispersion             -0.029422263216 Eh    ::
         :: repulsion energy           0.665623325401 Eh    ::
         :: add. restraining           0.000000000000 Eh    ::
         :: total charge              -0.000000000000 e     ::
         :::::::::::::::::::::::::::::::::::::::::::::::::::::

           -------------------------------------------------
          |                Property Printout                |
           -------------------------------------------------

    * Orbital Energies and Occupations

         #    Occupation            Energy/Eh            Energy/eV
      -------------------------------------------------------------
         1        2.0000           -0.7446164             -20.2620
       ...           ...                  ...                  ...
        29        2.0000           -0.4663662             -12.6905
        30        2.0000           -0.4632463             -12.6056
        31        2.0000           -0.4614827             -12.5576
        32        2.0000           -0.4523542             -12.3092
        33        2.0000           -0.4483585             -12.2005
        34        2.0000           -0.4400819             -11.9752
        35        2.0000           -0.4374268             -11.9030
        36        2.0000           -0.4274104             -11.6304
        37        2.0000           -0.4244980             -11.5512
        38        2.0000           -0.4185439             -11.3892
        39        2.0000           -0.4105019             -11.1703
        40        2.0000           -0.4020787             -10.9411
        41        2.0000           -0.3879406             -10.5564 (HOMO)
        42                         -0.2371375              -6.4528 (LUMO)
        43                         -0.2206939              -6.0054
        44                         -0.2153866              -5.8610
        45                         -0.0942804              -2.5655
        46                          0.0479962               1.3060
        47                          0.0811152               2.2073
        48                          0.0895363               2.4364
        49                          0.0975619               2.6548
        50                          0.1076419               2.9291
        51                          0.1230850               3.3493
        52                          0.1358909               3.6978
       ...                                ...                  ...
        78                          0.6588184              17.9274
      -------------------------------------------------------------
                  HL-Gap            0.1508031 Eh            4.1036 eV
             Fermi-level           -0.3125391 Eh           -8.5046 eV

     #   Z          covCN         q      C6AA      α(0)
     1   6 C        3.756    -0.106    22.574     6.774
     2   6 C        3.850    -0.006    20.643     6.462
     3   6 C        3.812    -0.069    21.802     6.646
     4   6 C        2.969     0.014    27.706     8.634
     5   6 C        2.924    -0.038    28.942     8.822
     6   6 C        2.922    -0.039    28.967     8.826
     7   6 C        2.980     0.009    27.803     8.649
     8   6 C        3.858    -0.043    21.295     6.563
     9   6 C        2.699     0.363    20.843     7.472
    10   8 O        1.660    -0.381    20.484     6.110
    11   8 O        0.856    -0.409    21.871     6.270
    12   6 C        3.756    -0.103    22.528     6.767
    13   6 C        2.922    -0.038    28.955     8.824
    14   6 C        2.925    -0.039    28.967     8.826
    15   6 C        3.756    -0.106    22.586     6.776
    16   1 H        0.925     0.036     2.505     2.475
    17   1 H        0.925     0.033     2.539     2.492
    18   1 H        0.925     0.035     2.516     2.481
    19   1 H        0.924     0.029     2.607     2.525
    20   1 H        0.924     0.039     2.468     2.457
    21   1 H        0.924     0.039     2.466     2.456
    22   1 H        0.926     0.034     2.529     2.487
    23   1 H        0.926     0.045     2.381     2.413
    24   1 H        0.924     0.058     2.221     2.331
    25   1 H        0.804     0.327     0.644     1.261
    26   1 H        0.925     0.060     2.196     2.317
    27   1 H        0.925     0.046     2.376     2.411
    28   1 H        0.925     0.043     2.411     2.428
    29   1 H        0.926     0.031     2.571     2.507
    30   1 H        0.926     0.032     2.560     2.502
    31   1 H        0.925     0.036     2.505     2.475
    32   1 H        0.925     0.036     2.504     2.475
    33   1 H        0.925     0.032     2.552     2.498

 Mol. C6AA /au·bohr⁶  :      10236.207191
 Mol. C8AA /au·bohr⁸  :     234129.759965
 Mol. α(0) /au        :        155.413427


Wiberg/Mayer (AO) data.
largest (>0.10) Wiberg bond orders for each atom

 ---------------------------------------------------------------------------
     #   Z sym  total        # sym  WBO       # sym  WBO       # sym  WBO
 ---------------------------------------------------------------------------
     1   6 C    3.997 --     2 C    1.011    17 H    0.986    16 H    0.986
                            18 H    0.985
     2   6 C    3.995 --     1 C    1.011    15 C    1.008     3 C    0.977
                            19 H    0.969
     3   6 C    3.996 --     4 C    1.015     2 C    0.977    21 H    0.974
                            20 H    0.968
     4   6 C    3.987 --     5 C    1.409    14 C    1.407     3 C    1.015
                             7 C    0.105
     5   6 C    3.991 --     6 C    1.449     4 C    1.409    22 H    0.969
                            13 C    0.107
     6   6 C    3.991 --     5 C    1.449     7 C    1.409    23 H    0.967
                            14 C    0.110
     7   6 C    3.985 --     6 C    1.409    13 C    1.409     8 C    0.967
                             4 C    0.105
     8   6 C    3.992 --    12 C    0.991     7 C    0.967    24 H    0.961
                             9 C    0.956
     9   6 C    3.907 --    11 O    1.766    10 O    1.128     8 C    0.956
    10   8 O    2.195 --     9 C    1.128    25 H    0.867    11 O    0.171
    11   8 O    2.041 --     9 C    1.766    10 O    0.171
    12   6 C    3.992 --     8 C    0.991    27 H    0.986    28 H    0.986
                            26 H    0.983
    13   6 C    3.991 --    14 C    1.450     7 C    1.409    29 H    0.968
                             5 C    0.107
    14   6 C    3.991 --    13 C    1.450     4 C    1.407    30 H    0.969
                             6 C    0.110
    15   6 C    3.996 --     2 C    1.008    33 H    0.987    32 H    0.987
                            31 H    0.986
    16   1 H    0.999 --     1 C    0.986
    17   1 H    0.999 --     1 C    0.986
    18   1 H    0.999 --     1 C    0.985
    19   1 H    0.999 --     2 C    0.969
    20   1 H    0.998 --     3 C    0.968
    21   1 H    0.998 --     3 C    0.974
    22   1 H    0.999 --     5 C    0.969
    23   1 H    0.998 --     6 C    0.967
    24   1 H    0.996 --     8 C    0.961
    25   1 H    0.893 --    10 O    0.867
    26   1 H    0.996 --    12 C    0.983
    27   1 H    0.998 --    12 C    0.986
    28   1 H    0.997 --    12 C    0.986
    29   1 H    0.999 --    13 C    0.968
    30   1 H    0.998 --    14 C    0.969
    31   1 H    0.998 --    15 C    0.986
    32   1 H    0.999 --    15 C    0.987
    33   1 H    0.999 --    15 C    0.987
 ---------------------------------------------------------------------------

Topologies differ in total number of bonds
Writing topology from bond orders to xtbtopo.mol

molecular dipole:
                 x           y           z       tot (Debye)
 q only:       -0.495      -0.317       0.424
   full:       -0.469      -0.175       0.536       1.864
molecular quadrupole (traceless):
                xx          xy          yy          xz          yz          zz
 q only:       -1.968      -3.432       2.485       6.308       3.888      -0.517
  q+dip:       -1.934      -0.792       1.292       8.464       2.367       0.642
   full:       -1.849      -1.874       3.000       8.276       3.908      -1.151

           -------------------------------------------------
          |                Geometry Summary                 |
           -------------------------------------------------

      molecular mass/u    :      206.2813100
   center of mass at/Å    :        0.6098943       0.1686711       0.0691289
  moments of inertia/u·Å² :        0.3728916E+03   0.1898422E+04   0.1993063E+04
rotational constants/cm⁻¹ :        0.4520786E-01   0.8879813E-02   0.8458152E-02

 * 30 selected distances

     #   Z          #   Z                                           value/Å
     1   6 C        2   6 C                                       1.5257062
     2   6 C        3   6 C                                       1.5385871 (max)
     4   6 C        5   6 C                                       1.3890102
     5   6 C        6   6 C                                       1.3827821
     6   6 C        7   6 C                                       1.3887845
     9   6 C       10   8 O                                       1.3397209
     9   6 C       11   8 O                                       1.2013778
     8   6 C       12   6 C                                       1.5293186
     7   6 C       13   6 C                                       1.3880655
     4   6 C       14   6 C                                       1.3895208
    13   6 C       14   6 C                                       1.3823686
     2   6 C       15   6 C                                       1.5264540
     1   6 C       16   1 H                                       1.0881700
     1   6 C       17   1 H                                       1.0876233
     1   6 C       18   1 H                                       1.0874051
     2   6 C       19   1 H                                       1.0956990
     3   6 C       20   1 H                                       1.0929146
     3   6 C       21   1 H                                       1.0918353
     5   6 C       22   1 H                                       1.0806871
     6   6 C       23   1 H                                       1.0798041
     8   6 C       24   1 H                                       1.0931368
    10   8 O       25   1 H                                       0.9707320 (min)
    12   6 C       26   1 H                                       1.0861876
    12   6 C       27   1 H                                       1.0869663
    12   6 C       28   1 H                                       1.0875074
    13   6 C       29   1 H                                       1.0807790
    14   6 C       30   1 H                                       1.0808564
    15   6 C       31   1 H                                       1.0877198
    15   6 C       32   1 H                                       1.0882167
    15   6 C       33   1 H                                       1.0879747

 * 4 distinct bonds (by element types)

   Z      Z             #   av. dist./Å        max./Å        min./Å
   1 H    6 C          17     1.0872637     1.0956990     1.0798041
   6 C    6 C          10     1.4440598     1.5385871     1.3823686
   1 H    8 O           1     0.9707320     0.9707320     0.9707320
   6 C    8 O           2     1.2705494     1.3397209     1.2013778


optimized geometry written to: xtbopt.xyz


           -------------------------------------------------
          | TOTAL ENERGY              -45.171874708244 Eh   |
          | GRADIENT NORM               0.000666664928 Eh/α |
          | HOMO-LUMO GAP               4.103561282860 eV   |
           -------------------------------------------------

------------------------------------------------------------------------
 * finished run on 2025/05/15 at 16:29:54.711     
------------------------------------------------------------------------
 total:
 * wall-time:     0 d,  0 h,  0 min,  0.776 sec
 *  cpu-time:     0 d,  0 h,  0 min,  0.376 sec
 * ratio c/w:     0.484 speedup
 SCF:
 * wall-time:     0 d,  0 h,  0 min,  0.031 sec
 *  cpu-time:     0 d,  0 h,  0 min,  0.031 sec
 * ratio c/w:     0.995 speedup
 ANC optimizer:
 * wall-time:     0 d,  0 h,  0 min,  0.694 sec
 *  cpu-time:     0 d,  0 h,  0 min,  0.336 sec
 * ratio c/w:     0.484 speedup



----- Single-point -----
      -----------------------------------------------------------      
     |                   =====================                   |     
     |                           x T B                           |     
     |                   =====================                   |     
     |                         S. Grimme                         |     
     |          Mulliken Center for Theoretical Chemistry        |     
     |                    University of Bonn                     |     
      -----------------------------------------------------------      

   * xtb version 6.7.1 (edcfbbe) compiled by 'conda@3ef47c1a292c' on 2024-11-25

   xtb is free software: you can redistribute it and/or modify it under
   the terms of the GNU Lesser General Public License as published by
   the Free Software Foundation, either version 3 of the License, or
   (at your option) any later version.
   
   xtb is distributed in the hope that it will be useful,
   but WITHOUT ANY WARRANTY; without even the implied warranty of
   MERCHANTABILITY or FITNESS FOR A PARTICULAR PURPOSE.  See the
   GNU Lesser General Public License for more details.
   
   Cite this work as:
   * C. Bannwarth, E. Caldeweyher, S. Ehlert, A. Hansen, P. Pracht,
     J. Seibert, S. Spicher, S. Grimme, WIREs Comput. Mol. Sci., 2020, 11,
     e01493. DOI: 10.1002/wcms.1493
   
   for GFN2-xTB:
   * C. Bannwarth, S. Ehlert and S. Grimme., J. Chem. Theory Comput., 2019,
     15, 1652-1671. DOI: 10.1021/acs.jctc.8b01176
   for GFN1-xTB:
   * S. Grimme, C. Bannwarth, P. Shushkov, J. Chem. Theory Comput., 2017,
     13, 1989-2009. DOI: 10.1021/acs.jctc.7b00118
   for GFN0-xTB:
   * P. Pracht, E. Caldeweyher, S. Ehlert, S. Grimme, ChemRxiv, 2019, preprint.
     DOI: 10.26434/chemrxiv.8326202.v1
   for GFN-FF:
   * S. Spicher and S. Grimme, Angew. Chem. Int. Ed., 2020, 59, 15665-15673.
     DOI: 10.1002/anie.202004239
   
   for ALPB and GBSA implicit solvation:
   * S. Ehlert, M. Stahn, S. Spicher, S. Grimme, J. Chem. Theory Comput.,
     2021, 17, 4250-4261. DOI: 10.1021/acs.jctc.1c00471
   
   for ddCOSMO and CPCM-X implicit solvation:
   * M. Stahn, S. Ehlert, S. Grimme, J. Phys. Chem. A,
     2023, XX, XXXX-XXXX. DOI: 10.1021/acs.jpca.3c04382
   
   for DFT-D4:
   * E. Caldeweyher, C. Bannwarth and S. Grimme, J. Chem. Phys., 2017,
     147, 034112. DOI: 10.1063/1.4993215
   * E. Caldeweyher, S. Ehlert, A. Hansen, H. Neugebauer, S. Spicher,
     C. Bannwarth and S. Grimme, J. Chem. Phys., 2019, 150, 154122.
     DOI: 10.1063/1.5090222
   * E. Caldeweyher, J.-M. Mewes, S. Ehlert and S. Grimme, Phys. Chem. Chem. Phys.
     2020, 22, 8499-8512. DOI: 10.1039/D0CP00502A
   
   for sTDA-xTB:
   * S. Grimme and C. Bannwarth, J. Chem. Phys., 2016, 145, 054103.
     DOI: 10.1063/1.4959605
   
   in the mass-spec context:
   * V. Asgeirsson, C. Bauer and S. Grimme, Chem. Sci., 2017, 8, 4879.
     DOI: 10.1039/c7sc00601b
   * J. Koopman and S. Grimme, ACS Omega 2019, 4, 12, 15120-15133.
     DOI: 10.1021/acsomega.9b02011
   
   for metadynamics refer to:
   * S. Grimme, J. Chem. Theory Comput., 2019, 155, 2847-2862
     DOI: 10.1021/acs.jctc.9b00143
   
   for SPH calculations refer to:
   * S. Spicher and S. Grimme, J. Chem. Theory Comput., 2021, 17, 1701-1714
     DOI: 10.1021/acs.jctc.0c01306
   
   for ONIOM refer to:
   * C. Plett, A. Katbashev, S. Ehlert, S. Grimme, M. Bursch,
     Phys. Chem. Chem. Phys., 2023, 25, 17860-17868. DOI: 10.1039/D3CP02178E
   
   for DIPRO refer to:
   * J. Kohn, N. Gildemeister, S. Grimme, D. Fazzi, A. Hansen,
     J. Chem. Phys., 2023, just accepted.
   
   for PTB refer to:
   * S. Grimme, M. Mueller, A. Hansen, J. Chem. Phys., 2023, 158, 124111.
     DOI: 10.1063/5.0137838
   
   with help from (in alphabetical order)
   P. Atkinson, C. Bannwarth, F. Bohle, G. Brandenburg, E. Caldeweyher
   M. Checinski, S. Dohm, S. Ehlert, S. Ehrlich, I. Gerasimov, C. Hölzer
   A. Katbashev, J. Kohn, J. Koopman, C. Lavigne, S. Lehtola, F. März, M. Müller,
   F. Musil, H. Neugebauer, J. Pisarek, C. Plett, P. Pracht, F. Pultar,
   J. Seibert, P. Shushkov, S. Spicher, M. Stahn, M. Steiner, T. Strunk,
   J. Stückrath, T. Rose, and J. Unsleber
   
 * started run on 2025/05/15 at 16:29:54.726     
   ID    Z sym.   atoms
    1    6 C      1-9, 12-15
    2    8 O      10, 11
    3    1 H      16-33

           -------------------------------------------------
          |                Calculation Setup                |
           -------------------------------------------------

          program call               : xtb /rds/general/user/hgt20/home/callum/QDESCP/Ibuprofen_rdkit_conf_1/Ibuprofen_rdkit_conf_1.xyz --acc 1 --gfn 2 --chrg 0 --uhf 0 --etemp 300 --input /rds/general/user/hgt20/home/callum/QDESCP/Ibuprofen_rdkit_conf_1/Ibuprofen_rdkit_conf_1_xtb.inp -P 1
          hostname                   : login-c
          coordinate file            : /rds/general/user/hgt20/home/callum/QDESCP/Ibuprofen_rdkit_conf_1/Ibuprofen_rdkit_conf_1.xyz
          omp threads                :                     1


           -------------------------------------------------
          |                 G F N 2 - x T B                 |
           -------------------------------------------------

        Reference                      10.1021/acs.jctc.8b01176
      * Hamiltonian:
        H0-scaling (s, p, d)           1.850000    2.230000    2.230000
        zeta-weighting                 0.500000
      * Dispersion:
        s8                             2.700000
        a1                             0.520000
        a2                             5.000000
        s9                             5.000000
      * Repulsion:
        kExp                           1.500000    1.000000
        rExp                           1.000000
      * Coulomb:
        alpha                          2.000000
        third order                    shell-resolved
        anisotropic                    true
        a3                             3.000000
        a5                             4.000000
        cn-shift                       1.200000
        cn-exp                         4.000000
        max-rad                        5.000000

q/qsh data taken from xtbrestart
CAMM data taken from xtbrestart

          ...................................................
          :                      SETUP                      :
          :.................................................:
          :  # basis functions                  78          :
          :  # atomic orbitals                  78          :
          :  # shells                           48          :
          :  # electrons                        82          :
          :  max. iterations                   250          :
          :  Hamiltonian                  GFN2-xTB          :
          :  restarted?                       true          :
          :  GBSA solvation                  false          :
          :  PC potential                    false          :
          :  electronic temp.          300.0000000     K    :
          :  accuracy                    1.0000000          :
          :  -> integral cutoff          0.2500000E+02      :
          :  -> integral neglect         0.1000000E-07      :
          :  -> SCF convergence          0.1000000E-05 Eh   :
          :  -> wf. convergence          0.1000000E-03 e    :
          :  Broyden damping             0.4000000          :
          :  net charge                          0          :
          :  unpaired electrons                  0          :
          ...................................................

 iter      E             dE          RMSdq      gap      omega  full diag
   1    -45.8376601 -0.458377E+02  0.466E-06    4.10       0.0  T
   2    -45.8376601 -0.497380E-13  0.269E-06    4.10    6470.2  T
   3    -45.8376601 -0.923706E-13  0.180E-06    4.10    9668.3  T

   *** convergence criteria satisfied after 3 iterations ***

         #    Occupation            Energy/Eh            Energy/eV
      -------------------------------------------------------------
         1        2.0000           -0.7446160             -20.2620
       ...           ...                  ...                  ...
        35        2.0000           -0.4374268             -11.9030
        36        2.0000           -0.4274105             -11.6304
        37        2.0000           -0.4244980             -11.5512
        38        2.0000           -0.4185440             -11.3892
        39        2.0000           -0.4105019             -11.1703
        40        2.0000           -0.4020788             -10.9411
        41        2.0000           -0.3879407             -10.5564 (HOMO)
        42                         -0.2371373              -6.4528 (LUMO)
        43                         -0.2206940              -6.0054
        44                         -0.2153866              -5.8610
        45                         -0.0942805              -2.5655
        46                          0.0479966               1.3061
       ...                                ...                  ...
        78                          0.6588184              17.9274
      -------------------------------------------------------------
                  HL-Gap            0.1508034 Eh            4.1036 eV
             Fermi-level           -0.3125390 Eh           -8.5046 eV

 SCC (total)                   0 d,  0 h,  0 min,  0.022 sec
 SCC setup                      ...        0 min,  0.000 sec (  1.045%)
 Dispersion                     ...        0 min,  0.000 sec (  1.295%)
 classical contributions        ...        0 min,  0.000 sec (  0.404%)
 integral evaluation            ...        0 min,  0.004 sec ( 19.772%)
 iterations                     ...        0 min,  0.005 sec ( 21.395%)
 molecular gradient             ...        0 min,  0.012 sec ( 55.454%)
 printout                       ...        0 min,  0.000 sec (  0.606%)

         :::::::::::::::::::::::::::::::::::::::::::::::::::::
         ::                     SUMMARY                     ::
         :::::::::::::::::::::::::::::::::::::::::::::::::::::
         :: total energy             -45.171874708258 Eh    ::
         :: gradient norm              0.000666631624 Eh/a0 ::
         :: HOMO-LUMO gap              4.103569690934 eV    ::
         ::.................................................::
         :: SCC energy               -45.837498033660 Eh    ::
         :: -> isotropic ES            0.052067094442 Eh    ::
         :: -> anisotropic ES          0.006473848531 Eh    ::
         :: -> anisotropic XC          0.018470236090 Eh    ::
         :: -> dispersion             -0.029422263669 Eh    ::
         :: repulsion energy           0.665623325401 Eh    ::
         :: add. restraining           0.000000000000 Eh    ::
         :: total charge              -0.000000000000 e     ::
         :::::::::::::::::::::::::::::::::::::::::::::::::::::

           -------------------------------------------------
          |                Property Printout                |
           -------------------------------------------------

    * Orbital Energies and Occupations

         #    Occupation            Energy/Eh            Energy/eV
      -------------------------------------------------------------
         1        2.0000           -0.7446160             -20.2620
       ...           ...                  ...                  ...
        29        2.0000           -0.4663663             -12.6905
        30        2.0000           -0.4632464             -12.6056
        31        2.0000           -0.4614828             -12.5576
        32        2.0000           -0.4523543             -12.3092
        33        2.0000           -0.4483585             -12.2005
        34        2.0000           -0.4400819             -11.9752
        35        2.0000           -0.4374268             -11.9030
        36        2.0000           -0.4274105             -11.6304
        37        2.0000           -0.4244980             -11.5512
        38        2.0000           -0.4185440             -11.3892
        39        2.0000           -0.4105019             -11.1703
        40        2.0000           -0.4020788             -10.9411
        41        2.0000           -0.3879407             -10.5564 (HOMO)
        42                         -0.2371373              -6.4528 (LUMO)
        43                         -0.2206940              -6.0054
        44                         -0.2153866              -5.8610
        45                         -0.0942805              -2.5655
        46                          0.0479966               1.3061
        47                          0.0811150               2.2073
        48                          0.0895364               2.4364
        49                          0.0975618               2.6548
        50                          0.1076418               2.9291
        51                          0.1230850               3.3493
        52                          0.1358909               3.6978
       ...                                ...                  ...
        78                          0.6588184              17.9274
      -------------------------------------------------------------
                  HL-Gap            0.1508034 Eh            4.1036 eV
             Fermi-level           -0.3125390 Eh           -8.5046 eV

     #   Z          covCN         q      C6AA      α(0)
     1   6 C        3.756    -0.106    22.574     6.774
     2   6 C        3.850    -0.006    20.643     6.462
     3   6 C        3.812    -0.069    21.802     6.646
     4   6 C        2.969     0.014    27.706     8.634
     5   6 C        2.924    -0.038    28.942     8.822
     6   6 C        2.922    -0.039    28.967     8.826
     7   6 C        2.980     0.009    27.803     8.649
     8   6 C        3.858    -0.043    21.295     6.563
     9   6 C        2.699     0.363    20.843     7.472
    10   8 O        1.660    -0.381    20.484     6.110
    11   8 O        0.856    -0.409    21.871     6.270
    12   6 C        3.756    -0.103    22.528     6.767
    13   6 C        2.922    -0.038    28.955     8.824
    14   6 C        2.925    -0.039    28.967     8.826
    15   6 C        3.756    -0.106    22.586     6.776
    16   1 H        0.925     0.036     2.505     2.475
    17   1 H        0.925     0.033     2.539     2.492
    18   1 H        0.925     0.035     2.516     2.481
    19   1 H        0.924     0.029     2.607     2.525
    20   1 H        0.924     0.039     2.468     2.457
    21   1 H        0.924     0.039     2.466     2.456
    22   1 H        0.926     0.034     2.529     2.487
    23   1 H        0.926     0.045     2.381     2.413
    24   1 H        0.924     0.058     2.221     2.331
    25   1 H        0.804     0.327     0.644     1.261
    26   1 H        0.925     0.060     2.196     2.317
    27   1 H        0.925     0.046     2.376     2.411
    28   1 H        0.925     0.043     2.411     2.428
    29   1 H        0.926     0.031     2.571     2.507
    30   1 H        0.926     0.032     2.560     2.502
    31   1 H        0.925     0.036     2.505     2.475
    32   1 H        0.925     0.036     2.504     2.475
    33   1 H        0.925     0.032     2.552     2.498

 Mol. C6AA /au·bohr⁶  :      10236.207262
 Mol. C8AA /au·bohr⁸  :     234129.759851
 Mol. α(0) /au        :        155.413428


Wiberg/Mayer (AO) data.
largest (>0.10) Wiberg bond orders for each atom

 ---------------------------------------------------------------------------
     #   Z sym  total        # sym  WBO       # sym  WBO       # sym  WBO
 ---------------------------------------------------------------------------
     1   6 C    3.997 --     2 C    1.011    17 H    0.986    16 H    0.986
                            18 H    0.985
     2   6 C    3.995 --     1 C    1.011    15 C    1.008     3 C    0.977
                            19 H    0.969
     3   6 C    3.996 --     4 C    1.015     2 C    0.977    21 H    0.974
                            20 H    0.968
     4   6 C    3.987 --     5 C    1.409    14 C    1.407     3 C    1.015
                             7 C    0.105
     5   6 C    3.991 --     6 C    1.449     4 C    1.409    22 H    0.969
                            13 C    0.107
     6   6 C    3.991 --     5 C    1.449     7 C    1.409    23 H    0.967
                            14 C    0.110
     7   6 C    3.985 --     6 C    1.409    13 C    1.409     8 C    0.967
                             4 C    0.105
     8   6 C    3.992 --    12 C    0.991     7 C    0.967    24 H    0.961
                             9 C    0.956
     9   6 C    3.907 --    11 O    1.766    10 O    1.128     8 C    0.956
    10   8 O    2.195 --     9 C    1.128    25 H    0.867    11 O    0.171
    11   8 O    2.041 --     9 C    1.766    10 O    0.171
    12   6 C    3.992 --     8 C    0.991    27 H    0.986    28 H    0.986
                            26 H    0.983
    13   6 C    3.991 --    14 C    1.450     7 C    1.409    29 H    0.968
                             5 C    0.107
    14   6 C    3.991 --    13 C    1.450     4 C    1.407    30 H    0.969
                             6 C    0.110
    15   6 C    3.996 --     2 C    1.008    33 H    0.987    32 H    0.987
                            31 H    0.986
    16   1 H    0.999 --     1 C    0.986
    17   1 H    0.999 --     1 C    0.986
    18   1 H    0.999 --     1 C    0.985
    19   1 H    0.999 --     2 C    0.969
    20   1 H    0.998 --     3 C    0.968
    21   1 H    0.998 --     3 C    0.974
    22   1 H    0.999 --     5 C    0.969
    23   1 H    0.998 --     6 C    0.967
    24   1 H    0.996 --     8 C    0.961
    25   1 H    0.893 --    10 O    0.867
    26   1 H    0.996 --    12 C    0.983
    27   1 H    0.998 --    12 C    0.986
    28   1 H    0.997 --    12 C    0.986
    29   1 H    0.999 --    13 C    0.968
    30   1 H    0.998 --    14 C    0.969
    31   1 H    0.998 --    15 C    0.986
    32   1 H    0.999 --    15 C    0.987
    33   1 H    0.999 --    15 C    0.987
 ---------------------------------------------------------------------------

Topologies differ in total number of bonds
Writing topology from bond orders to xtbtopo.mol

molecular dipole:
                 x           y           z       tot (Debye)
 q only:       -0.495      -0.317       0.424
   full:       -0.469      -0.175       0.536       1.864
molecular quadrupole (traceless):
                xx          xy          yy          xz          yz          zz
 q only:       -1.968      -3.432       2.485       6.308       3.888      -0.517
  q+dip:       -1.934      -0.792       1.292       8.464       2.367       0.642
   full:       -1.849      -1.874       3.000       8.276       3.908      -1.151


           -------------------------------------------------
          | TOTAL ENERGY              -45.171874708258 Eh   |
          | GRADIENT NORM               0.000666631624 Eh/α |
          | HOMO-LUMO GAP               4.103569690934 eV   |
           -------------------------------------------------

------------------------------------------------------------------------
 * finished run on 2025/05/15 at 16:29:54.810     
------------------------------------------------------------------------
 total:
 * wall-time:     0 d,  0 h,  0 min,  0.083 sec
 *  cpu-time:     0 d,  0 h,  0 min,  0.032 sec
 * ratio c/w:     0.385 speedup
 SCF:
 * wall-time:     0 d,  0 h,  0 min,  0.023 sec
 *  cpu-time:     0 d,  0 h,  0 min,  0.022 sec
 * ratio c/w:     0.994 speedup



----- FOD -----
      -----------------------------------------------------------      
     |                   =====================                   |     
     |                           x T B                           |     
     |                   =====================                   |     
     |                         S. Grimme                         |     
     |          Mulliken Center for Theoretical Chemistry        |     
     |                    University of Bonn                     |     
      -----------------------------------------------------------      

   * xtb version 6.7.1 (edcfbbe) compiled by 'conda@3ef47c1a292c' on 2024-11-25

   xtb is free software: you can redistribute it and/or modify it under
   the terms of the GNU Lesser General Public License as published by
   the Free Software Foundation, either version 3 of the License, or
   (at your option) any later version.
   
   xtb is distributed in the hope that it will be useful,
   but WITHOUT ANY WARRANTY; without even the implied warranty of
   MERCHANTABILITY or FITNESS FOR A PARTICULAR PURPOSE.  See the
   GNU Lesser General Public License for more details.
   
   Cite this work as:
   * C. Bannwarth, E. Caldeweyher, S. Ehlert, A. Hansen, P. Pracht,
     J. Seibert, S. Spicher, S. Grimme, WIREs Comput. Mol. Sci., 2020, 11,
     e01493. DOI: 10.1002/wcms.1493
   
   for GFN2-xTB:
   * C. Bannwarth, S. Ehlert and S. Grimme., J. Chem. Theory Comput., 2019,
     15, 1652-1671. DOI: 10.1021/acs.jctc.8b01176
   for GFN1-xTB:
   * S. Grimme, C. Bannwarth, P. Shushkov, J. Chem. Theory Comput., 2017,
     13, 1989-2009. DOI: 10.1021/acs.jctc.7b00118
   for GFN0-xTB:
   * P. Pracht, E. Caldeweyher, S. Ehlert, S. Grimme, ChemRxiv, 2019, preprint.
     DOI: 10.26434/chemrxiv.8326202.v1
   for GFN-FF:
   * S. Spicher and S. Grimme, Angew. Chem. Int. Ed., 2020, 59, 15665-15673.
     DOI: 10.1002/anie.202004239
   
   for ALPB and GBSA implicit solvation:
   * S. Ehlert, M. Stahn, S. Spicher, S. Grimme, J. Chem. Theory Comput.,
     2021, 17, 4250-4261. DOI: 10.1021/acs.jctc.1c00471
   
   for ddCOSMO and CPCM-X implicit solvation:
   * M. Stahn, S. Ehlert, S. Grimme, J. Phys. Chem. A,
     2023, XX, XXXX-XXXX. DOI: 10.1021/acs.jpca.3c04382
   
   for DFT-D4:
   * E. Caldeweyher, C. Bannwarth and S. Grimme, J. Chem. Phys., 2017,
     147, 034112. DOI: 10.1063/1.4993215
   * E. Caldeweyher, S. Ehlert, A. Hansen, H. Neugebauer, S. Spicher,
     C. Bannwarth and S. Grimme, J. Chem. Phys., 2019, 150, 154122.
     DOI: 10.1063/1.5090222
   * E. Caldeweyher, J.-M. Mewes, S. Ehlert and S. Grimme, Phys. Chem. Chem. Phys.
     2020, 22, 8499-8512. DOI: 10.1039/D0CP00502A
   
   for sTDA-xTB:
   * S. Grimme and C. Bannwarth, J. Chem. Phys., 2016, 145, 054103.
     DOI: 10.1063/1.4959605
   
   in the mass-spec context:
   * V. Asgeirsson, C. Bauer and S. Grimme, Chem. Sci., 2017, 8, 4879.
     DOI: 10.1039/c7sc00601b
   * J. Koopman and S. Grimme, ACS Omega 2019, 4, 12, 15120-15133.
     DOI: 10.1021/acsomega.9b02011
   
   for metadynamics refer to:
   * S. Grimme, J. Chem. Theory Comput., 2019, 155, 2847-2862
     DOI: 10.1021/acs.jctc.9b00143
   
   for SPH calculations refer to:
   * S. Spicher and S. Grimme, J. Chem. Theory Comput., 2021, 17, 1701-1714
     DOI: 10.1021/acs.jctc.0c01306
   
   for ONIOM refer to:
   * C. Plett, A. Katbashev, S. Ehlert, S. Grimme, M. Bursch,
     Phys. Chem. Chem. Phys., 2023, 25, 17860-17868. DOI: 10.1039/D3CP02178E
   
   for DIPRO refer to:
   * J. Kohn, N. Gildemeister, S. Grimme, D. Fazzi, A. Hansen,
     J. Chem. Phys., 2023, just accepted.
   
   for PTB refer to:
   * S. Grimme, M. Mueller, A. Hansen, J. Chem. Phys., 2023, 158, 124111.
     DOI: 10.1063/5.0137838
   
   with help from (in alphabetical order)
   P. Atkinson, C. Bannwarth, F. Bohle, G. Brandenburg, E. Caldeweyher
   M. Checinski, S. Dohm, S. Ehlert, S. Ehrlich, I. Gerasimov, C. Hölzer
   A. Katbashev, J. Kohn, J. Koopman, C. Lavigne, S. Lehtola, F. März, M. Müller,
   F. Musil, H. Neugebauer, J. Pisarek, C. Plett, P. Pracht, F. Pultar,
   J. Seibert, P. Shushkov, S. Spicher, M. Stahn, M. Steiner, T. Strunk,
   J. Stückrath, T. Rose, and J. Unsleber
   
 * started run on 2025/05/15 at 16:29:55.507     
   ID    Z sym.   atoms
    1    6 C      1-9, 12-15
    2    8 O      10, 11
    3    1 H      16-33

           -------------------------------------------------
          |                Calculation Setup                |
           -------------------------------------------------

          program call               : xtb /rds/general/user/hgt20/home/callum/QDESCP/Ibuprofen_rdkit_conf_1/Ibuprofen_rdkit_conf_1.xyz --fod --gfn 2 --chrg 0 --acc 1 --uhf 0 --etemp 300 -P 1
          hostname                   : login-c
          coordinate file            : /rds/general/user/hgt20/home/callum/QDESCP/Ibuprofen_rdkit_conf_1/Ibuprofen_rdkit_conf_1.xyz
          omp threads                :                     1


           -------------------------------------------------
          |                 G F N 2 - x T B                 |
           -------------------------------------------------

        Reference                      10.1021/acs.jctc.8b01176
      * Hamiltonian:
        H0-scaling (s, p, d)           1.850000    2.230000    2.230000
        zeta-weighting                 0.500000
      * Dispersion:
        s8                             2.700000
        a1                             0.520000
        a2                             5.000000
        s9                             5.000000
      * Repulsion:
        kExp                           1.500000    1.000000
        rExp                           1.000000
      * Coulomb:
        alpha                          2.000000
        third order                    shell-resolved
        anisotropic                    true
        a3                             3.000000
        a5                             4.000000
        cn-shift                       1.200000
        cn-exp                         4.000000
        max-rad                        5.000000


          ...................................................
          :                      SETUP                      :
          :.................................................:
          :  # basis functions                  78          :
          :  # atomic orbitals                  78          :
          :  # shells                           48          :
          :  # electrons                        82          :
          :  max. iterations                   250          :
          :  Hamiltonian                  GFN2-xTB          :
          :  restarted?                      false          :
          :  GBSA solvation                  false          :
          :  PC potential                    false          :
          :  electronic temp.         5000.0000000     K    :
          :  accuracy                    1.0000000          :
          :  -> integral cutoff          0.2500000E+02      :
          :  -> integral neglect         0.1000000E-07      :
          :  -> SCF convergence          0.1000000E-05 Eh   :
          :  -> wf. convergence          0.1000000E-03 e    :
          :  Broyden damping             0.4000000          :
          :  net charge                          0          :
[...]
   the terms of the GNU Lesser General Public License as published by
   the Free Software Foundation, either version 3 of the License, or
   (at your option) any later version.
   
   xtb is distributed in the hope that it will be useful,
   but WITHOUT ANY WARRANTY; without even the implied warranty of
   MERCHANTABILITY or FITNESS FOR A PARTICULAR PURPOSE.  See the
   GNU Lesser General Public License for more details.
   
   Cite this work as:
   * C. Bannwarth, E. Caldeweyher, S. Ehlert, A. Hansen, P. Pracht,
     J. Seibert, S. Spicher, S. Grimme, WIREs Comput. Mol. Sci., 2020, 11,
     e01493. DOI: 10.1002/wcms.1493
   
   for GFN2-xTB:
   * C. Bannwarth, S. Ehlert and S. Grimme., J. Chem. Theory Comput., 2019,
     15, 1652-1671. DOI: 10.1021/acs.jctc.8b01176
   for GFN1-xTB:
   * S. Grimme, C. Bannwarth, P. Shushkov, J. Chem. Theory Comput., 2017,
     13, 1989-2009. DOI: 10.1021/acs.jctc.7b00118
   for GFN0-xTB:
   * P. Pracht, E. Caldeweyher, S. Ehlert, S. Grimme, ChemRxiv, 2019, preprint.
     DOI: 10.26434/chemrxiv.8326202.v1
   for GFN-FF:
   * S. Spicher and S. Grimme, Angew. Chem. Int. Ed., 2020, 59, 15665-15673.
     DOI: 10.1002/anie.202004239
   
   for ALPB and GBSA implicit solvation:
   * S. Ehlert, M. Stahn, S. Spicher, S. Grimme, J. Chem. Theory Comput.,
     2021, 17, 4250-4261. DOI: 10.1021/acs.jctc.1c00471
   
   for ddCOSMO and CPCM-X implicit solvation:
   * M. Stahn, S. Ehlert, S. Grimme, J. Phys. Chem. A,
     2023, XX, XXXX-XXXX. DOI: 10.1021/acs.jpca.3c04382
   
   for DFT-D4:
   * E. Caldeweyher, C. Bannwarth and S. Grimme, J. Chem. Phys., 2017,
     147, 034112. DOI: 10.1063/1.4993215
   * E. Caldeweyher, S. Ehlert, A. Hansen, H. Neugebauer, S. Spicher,
     C. Bannwarth and S. Grimme, J. Chem. Phys., 2019, 150, 154122.
     DOI: 10.1063/1.5090222
   * E. Caldeweyher, J.-M. Mewes, S. Ehlert and S. Grimme, Phys. Chem. Chem. Phys.
     2020, 22, 8499-8512. DOI: 10.1039/D0CP00502A
   
   for sTDA-xTB:
   * S. Grimme and C. Bannwarth, J. Chem. Phys., 2016, 145, 054103.
     DOI: 10.1063/1.4959605
   
   in the mass-spec context:
   * V. Asgeirsson, C. Bauer and S. Grimme, Chem. Sci., 2017, 8, 4879.
     DOI: 10.1039/c7sc00601b
   * J. Koopman and S. Grimme, ACS Omega 2019, 4, 12, 15120-15133.
     DOI: 10.1021/acsomega.9b02011
   
   for metadynamics refer to:
   * S. Grimme, J. Chem. Theory Comput., 2019, 155, 2847-2862
     DOI: 10.1021/acs.jctc.9b00143
   
   for SPH calculations refer to:
   * S. Spicher and S. Grimme, J. Chem. Theory Comput., 2021, 17, 1701-1714
     DOI: 10.1021/acs.jctc.0c01306
   
   for ONIOM refer to:
   * C. Plett, A. Katbashev, S. Ehlert, S. Grimme, M. Bursch,
     Phys. Chem. Chem. Phys., 2023, 25, 17860-17868. DOI: 10.1039/D3CP02178E
   
   for DIPRO refer to:
   * J. Kohn, N. Gildemeister, S. Grimme, D. Fazzi, A. Hansen,
     J. Chem. Phys., 2023, just accepted.
   
   for PTB refer to:
   * S. Grimme, M. Mueller, A. Hansen, J. Chem. Phys., 2023, 158, 124111.
     DOI: 10.1063/5.0137838
   
   with help from (in alphabetical order)
   P. Atkinson, C. Bannwarth, F. Bohle, G. Brandenburg, E. Caldeweyher
   M. Checinski, S. Dohm, S. Ehlert, S. Ehrlich, I. Gerasimov, C. Hölzer
   A. Katbashev, J. Kohn, J. Koopman, C. Lavigne, S. Lehtola, F. März, M. Müller,
   F. Musil, H. Neugebauer, J. Pisarek, C. Plett, P. Pracht, F. Pultar,
   J. Seibert, P. Shushkov, S. Spicher, M. Stahn, M. Steiner, T. Strunk,
   J. Stückrath, T. Rose, and J. Unsleber
   
 * started run on 2025/05/15 at 16:29:56.434     
   ID    Z sym.   atoms
    1    6 C      1-9, 12-15
    2    8 O      10, 11
    3    1 H      16-33

           -------------------------------------------------
          |                Calculation Setup                |
           -------------------------------------------------

          program call               : xtb /rds/general/user/hgt20/home/callum/QDESCP/Ibuprofen_rdkit_conf_1/Ibuprofen_rdkit_conf_1.xyz --acc 1 --gfn 2 --chrg 0 --uhf 2 --etemp 300 --input /rds/general/user/hgt20/home/callum/QDESCP/Ibuprofen_rdkit_conf_1/Ibuprofen_rdkit_conf_1_xtb.inp -P 1
          hostname                   : login-c
          coordinate file            : /rds/general/user/hgt20/home/callum/QDESCP/Ibuprofen_rdkit_conf_1/Ibuprofen_rdkit_conf_1.xyz
          omp threads                :                     1


           -------------------------------------------------
          |                 G F N 2 - x T B                 |
           -------------------------------------------------

        Reference                      10.1021/acs.jctc.8b01176
      * Hamiltonian:
        H0-scaling (s, p, d)           1.850000    2.230000    2.230000
        zeta-weighting                 0.500000
      * Dispersion:
        s8                             2.700000
        a1                             0.520000
        a2                             5.000000
        s9                             5.000000
      * Repulsion:
        kExp                           1.500000    1.000000
        rExp                           1.000000
      * Coulomb:
        alpha                          2.000000
        third order                    shell-resolved
        anisotropic                    true
        a3                             3.000000
        a5                             4.000000
        cn-shift                       1.200000
        cn-exp                         4.000000
        max-rad                        5.000000


          ...................................................
          :                      SETUP                      :
          :.................................................:
          :  # basis functions                  78          :
          :  # atomic orbitals                  78          :
          :  # shells                           48          :
          :  # electrons                        82          :
          :  max. iterations                   250          :
          :  Hamiltonian                  GFN2-xTB          :
          :  restarted?                      false          :
          :  GBSA solvation                  false          :
          :  PC potential                    false          :
          :  electronic temp.          300.0000000     K    :
          :  accuracy                    1.0000000          :
          :  -> integral cutoff          0.2500000E+02      :
          :  -> integral neglect         0.1000000E-07      :
          :  -> SCF convergence          0.1000000E-05 Eh   :
          :  -> wf. convergence          0.1000000E-03 e    :
          :  Broyden damping             0.4000000          :
          :  net charge                          0          :
          :  unpaired electrons                  2          :
          ...................................................

 iter      E             dE          RMSdq      gap      omega  full diag
   1    -45.5820119 -0.455820E+02  0.353E+00    0.03       0.0  T
   2    -45.4300401  0.151972E+00  0.339E+00    0.58       1.0  T
   3    -45.3890520  0.409881E-01  0.224E+00    0.20       1.0  T
   4    -45.4674511 -0.783991E-01  0.240E+00    1.08       1.0  T
   5    -45.6353893 -0.167938E+00  0.157E+00    0.45       1.0  T
   6    -45.6246305  0.107588E-01  0.109E+00    0.38       1.0  T
   7    -45.6712153 -0.465848E-01  0.776E-01    0.25       1.0  T
   8    -45.6731152 -0.189984E-02  0.621E-01    0.20       1.0  T
   9    -45.6765168 -0.340164E-02  0.468E-01    0.20       1.0  T
  10    -45.6764951  0.217327E-04  0.213E-01    0.18       1.0  T
  11    -45.6781421 -0.164708E-02  0.102E-01    0.15       1.0  T
  12    -45.6784257 -0.283560E-03  0.554E-02    0.16       1.0  T
  13    -45.6784656 -0.399076E-04  0.252E-02    0.15       1.0  T
  14    -45.6784636  0.203566E-05  0.160E-02    0.15       1.1  T
  15    -45.6784746 -0.109921E-04  0.589E-03    0.15       3.0  T
  16    -45.6784754 -0.860732E-06  0.248E-03    0.15       7.0  T
  17    -45.6784757 -0.268635E-06  0.650E-04    0.15      26.8  T
  18    -45.6784757 -0.778291E-08  0.266E-04    0.15      65.4  T

   *** convergence criteria satisfied after 18 iterations ***

         #    Occupation            Energy/Eh            Energy/eV
      -------------------------------------------------------------
         1        2.0000           -0.7289312             -19.8352
       ...           ...                  ...                  ...
        36        2.0000           -0.4333761             -11.7928
        37        2.0000           -0.4250711             -11.5668
        38        2.0000           -0.4204539             -11.4411
        39        2.0000           -0.4066945             -11.0667
        40        1.9995           -0.4037237             -10.9859
        41        1.0005           -0.3891706             -10.5899
        42        0.9473           -0.2279466              -6.2027 (HOMO)
        43        0.0527           -0.2224580              -6.0534 (LUMO)
        44                         -0.2082170              -5.6659
        45                         -0.0957408              -2.6052
        46                          0.0571523               1.5552
        47                          0.0748918               2.0379
       ...                                ...                  ...
        78                          0.6691760              18.2092
      -------------------------------------------------------------
                  HL-Gap            0.0054886 Eh            0.1494 eV
             Fermi-level           -0.3108145 Eh           -8.4577 eV

 transition dipole moment (au) for excitation:          41          42
     X       Y       Z   
  -1.4653  -0.3628  -0.1828  total (au/Debye):    1.521   3.865
 dE (eV)             :    4.387
 oscillator strength :  0.35148E+00

 SCC (total)                   0 d,  0 h,  0 min,  0.081 sec
 SCC setup                      ...        0 min,  0.000 sec (  0.286%)
 Dispersion                     ...        0 min,  0.000 sec (  0.338%)
 classical contributions        ...        0 min,  0.000 sec (  0.113%)
 integral evaluation            ...        0 min,  0.042 sec ( 52.463%)
 iterations                     ...        0 min,  0.021 sec ( 26.371%)
 molecular gradient             ...        0 min,  0.013 sec ( 15.540%)
 printout                       ...        0 min,  0.004 sec (  4.881%)

         :::::::::::::::::::::::::::::::::::::::::::::::::::::
         ::                     SUMMARY                     ::
         :::::::::::::::::::::::::::::::::::::::::::::::::::::
         :: total energy             -45.012690294830 Eh    ::
         :: gradient norm              0.153034608294 Eh/a0 ::
         :: HOMO-LUMO gap              0.149353029182 eV    ::
         ::.................................................::
         :: SCC energy               -45.678313620232 Eh    ::
         :: -> isotropic ES            0.052840203089 Eh    ::
         :: -> anisotropic ES          0.005208803006 Eh    ::
         :: -> anisotropic XC          0.017336615724 Eh    ::
         :: -> dispersion             -0.029344514204 Eh    ::
         :: repulsion energy           0.665623325401 Eh    ::
         :: add. restraining           0.000000000000 Eh    ::
         :: total charge               0.000000000000 e     ::
         :::::::::::::::::::::::::::::::::::::::::::::::::::::

           -------------------------------------------------
          |                Property Printout                |
           -------------------------------------------------

    * Orbital Energies and Occupations

         #    Occupation            Energy/Eh            Energy/eV
      -------------------------------------------------------------
         1        2.0000           -0.7289312             -19.8352
       ...           ...                  ...                  ...
        30        2.0000           -0.4628106             -12.5937
        31        2.0000           -0.4609235             -12.5424
        32        2.0000           -0.4569097             -12.4331
        33        2.0000           -0.4486651             -12.2088
        34        2.0000           -0.4433939             -12.0654
        35        2.0000           -0.4431834             -12.0596
        36        2.0000           -0.4333761             -11.7928
        37        2.0000           -0.4250711             -11.5668
        38        2.0000           -0.4204539             -11.4411
        39        2.0000           -0.4066945             -11.0667
        40        1.9995           -0.4037237             -10.9859
        41        1.0005           -0.3891706             -10.5899
        42        0.9473           -0.2279466              -6.2027 (HOMO)
        43        0.0527           -0.2224580              -6.0534 (LUMO)
        44                         -0.2082170              -5.6659
        45                         -0.0957408              -2.6052
        46                          0.0571523               1.5552
        47                          0.0748918               2.0379
        48                          0.0884314               2.4063
        49                          0.0912766               2.4838
        50                          0.1003240               2.7300
        51                          0.1208415               3.2883
        52                          0.1329306               3.6172
        53                          0.1375997               3.7443
       ...                                ...                  ...
        78                          0.6691760              18.2092
      -------------------------------------------------------------
                  HL-Gap            0.0054886 Eh            0.1494 eV
             Fermi-level           -0.3108145 Eh           -8.4577 eV

     #   Z          covCN         q      C6AA      α(0)
     1   6 C        3.756    -0.106    22.580     6.775
     2   6 C        3.850    -0.001    20.572     6.451
     3   6 C        3.812    -0.065    21.744     6.637
     4   6 C        2.969     0.012    27.754     8.641
     5   6 C        2.924    -0.041    29.022     8.835
     6   6 C        2.922    -0.036    28.907     8.817
     7   6 C        2.980     0.013    27.729     8.638
     8   6 C        3.858    -0.030    21.067     6.528
     9   6 C        2.699     0.331    21.366     7.565
    10   8 O        1.660    -0.397    20.790     6.155
    11   8 O        0.856    -0.420    22.087     6.301
    12   6 C        3.756    -0.104    22.532     6.768
    13   6 C        2.922    -0.042    29.054     8.839
    14   6 C        2.925    -0.036    28.896     8.815
    15   6 C        3.756    -0.108    22.618     6.781
    16   1 H        0.925     0.039     2.463     2.454
    17   1 H        0.925     0.038     2.480     2.463
    18   1 H        0.925     0.039     2.462     2.454
    19   1 H        0.924     0.033     2.542     2.493
    20   1 H        0.924     0.050     2.320     2.382
    21   1 H        0.924     0.043     2.405     2.425
    22   1 H        0.926     0.032     2.555     2.500
    23   1 H        0.926     0.049     2.336     2.390
    24   1 H        0.924     0.059     2.214     2.327
    25   1 H        0.804     0.323     0.657     1.273
    26   1 H        0.925     0.061     2.187     2.312
    27   1 H        0.925     0.046     2.369     2.407
    28   1 H        0.925     0.046     2.368     2.406
    29   1 H        0.926     0.030     2.588     2.516
    30   1 H        0.926     0.031     2.574     2.509
    31   1 H        0.925     0.040     2.447     2.446
    32   1 H        0.925     0.038     2.469     2.457
    33   1 H        0.925     0.035     2.517     2.481

 Mol. C6AA /au·bohr⁶  :      10214.761453
 Mol. C8AA /au·bohr⁸  :     233873.992776
 Mol. α(0) /au        :        155.244756


Wiberg/Mayer (AO) data.
largest (>0.10) Wiberg bond orders for each atom

 ---------------------------------------------------------------------------
     #   Z sym  total        # sym  WBO       # sym  WBO       # sym  WBO
 ---------------------------------------------------------------------------
     1   6 C    3.994 --     2 C    1.008    16 H    0.986    18 H    0.984
                            17 H    0.984
     2   6 C    3.974 --    15 C    1.008     1 C    1.008    19 H    0.968
                             3 C    0.944
     3   6 C    3.986 --     4 C    1.047    21 H    0.972    20 H    0.949
                             2 C    0.944
     4   6 C    3.705 --    14 C    1.188     5 C    1.169     3 C    1.047
     5   6 C    3.947 --     6 C    1.603     4 C    1.169    22 H    0.968
     6   6 C    3.939 --     5 C    1.603     7 C    1.174    23 H    0.965
     7   6 C    3.789 --     6 C    1.174    13 C    1.157     8 C    1.028
                             9 C    0.115    11 O    0.106
     8   6 C    3.980 --     7 C    1.028    12 C    0.970    24 H    0.961
                             9 C    0.888
     9   6 C    3.876 --    11 O    1.632    10 O    1.077     8 C    0.888
                             7 C    0.115
    10   8 O    2.131 --     9 C    1.077    25 H    0.871    11 O    0.125
    11   8 O    1.981 --     9 C    1.632    10 O    0.125     7 C    0.106
    12   6 C    3.985 --    28 H    0.984    26 H    0.983    27 H    0.983
                             8 C    0.970
    13   6 C    3.937 --    14 C    1.597     7 C    1.157    29 H    0.968
    14   6 C    3.924 --    13 C    1.597     4 C    1.188    30 H    0.968
    15   6 C    3.993 --     2 C    1.008    32 H    0.986    33 H    0.986
                            31 H    0.982
    16   1 H    0.998 --     1 C    0.986
    17   1 H    0.997 --     1 C    0.984
    18   1 H    0.998 --     1 C    0.984
    19   1 H    0.999 --     2 C    0.968
    20   1 H    0.988 --     3 C    0.949
    21   1 H    0.997 --     3 C    0.972
    22   1 H    0.999 --     5 C    0.968
    23   1 H    0.997 --     6 C    0.965
    24   1 H    0.996 --     8 C    0.961
    25   1 H    0.894 --    10 O    0.871
    26   1 H    0.996 --    12 C    0.983
    27   1 H    0.997 --    12 C    0.983
    28   1 H    0.997 --    12 C    0.984
    29   1 H    0.999 --    13 C    0.968
    30   1 H    0.998 --    14 C    0.968
    31   1 H    0.995 --    15 C    0.982
    32   1 H    0.998 --    15 C    0.986
    33   1 H    0.998 --    15 C    0.986
 ---------------------------------------------------------------------------

Topologies differ in total number of bonds
Writing topology from bond orders to xtbtopo.mol

molecular dipole:
                 x           y           z       tot (Debye)
 q only:       -1.046      -0.560       0.319
   full:       -1.071      -0.436       0.433       3.138
molecular quadrupole (traceless):
                xx          xy          yy          xz          yz          zz
 q only:       -1.798      -5.583       2.132       5.833       3.454      -0.334
  q+dip:       -1.465      -3.074       1.262       8.257       2.351       0.203
   full:       -2.021      -4.142       3.125       7.767       3.715      -1.103


           -------------------------------------------------
          | TOTAL ENERGY              -45.012690294830 Eh   |
          | GRADIENT NORM               0.153034608294 Eh/α |
          | HOMO-LUMO GAP               0.149353029182 eV   |
           -------------------------------------------------

------------------------------------------------------------------------
 * finished run on 2025/05/15 at 16:29:56.524     
------------------------------------------------------------------------
 total:
 * wall-time:     0 d,  0 h,  0 min,  0.090 sec
 *  cpu-time:     0 d,  0 h,  0 min,  0.051 sec
 * ratio c/w:     0.565 speedup
 SCF:
 * wall-time:     0 d,  0 h,  0 min,  0.081 sec
 *  cpu-time:     0 d,  0 h,  0 min,  0.043 sec
 * ratio c/w:     0.528 speedup


