33
 energy: -45.171874708244 gnorm: 0.000666664928 xtb: 6.7.1 (edcfbbe)
C           -2.91471083456338        1.39358591344503       -0.57281996894583
C           -3.17747277530323       -0.00451522362124       -0.02141421618080
C           -2.22870372569361       -1.03143292935624       -0.66369688769409
C           -0.79385198679455       -0.76743041264616       -0.31242561816598
C            0.07740660110880       -0.18143394922914       -1.22174710378627
C            1.39362245020287        0.07336647871238       -0.88301617753631
C            1.87135952729192       -0.25121999468008        0.37996957572137
C            3.32047729718054       -0.00401390919976        0.74479070057402
C            3.59684269539849        1.46604367479780        0.51607979872789
O            3.38402801646222        2.18498214685300        1.62634517798084
O            3.93382451835375        1.96781488493024       -0.52217703181112
C            4.25797676847390       -0.86963755278623       -0.09818347280529
C            1.00184253582052       -0.82625918712330        1.29648234326756
C           -0.31192537028254       -1.08360579758012        0.95191123329400
C           -4.62918419349157       -0.40941443152914       -0.26359606984694
H           -3.10709983509141        1.42127480366486       -1.64348959914571
H           -3.56354941312383        2.12081634303646       -0.09004811111334
H           -1.88168861317276        1.68584180169670       -0.39990045732057
H           -2.99102353947841        0.00708914514353        1.05824226188418
H           -2.50674392947829       -2.02895891021112       -0.31427214972647
H           -2.35780190907705       -1.00329104913564       -1.74750771161189
H           -0.27727918319162        0.07739710742796       -2.20921303603412
H            2.05366045537309        0.53656510704696       -1.60118986464039
H            3.45909661112866       -0.21227047785958        1.80891560561278
H            3.52429417026126        3.12962092415275        1.45226664207840
H            4.22017009265868       -0.55540251835359       -1.13723604099675
H            3.95966877020848       -1.91281426190523       -0.03268457580588
H            5.28234247116484       -0.77204466875503        0.25370088003027
H            1.35632519612067       -1.08108751975451        2.28516207369379
H           -0.97269514906411       -1.54134079556606        1.67448466370946
H           -5.30645558637851        0.30830822524678        0.19391009266642
H           -4.83951547561247       -0.44617267578571       -1.33065981134569
H           -4.83333665741167       -1.39056029107662        0.15991685527193
