56
 energy: -97.779437876286 gnorm: 0.000182517374 xtb: 6.7.1 (edcfbbe)
O            5.13617735622128        2.69894512793843       -0.12468751596937
C            4.85838296973233        1.71615972588176        0.73389419079360
C            5.90735895016562        1.17446437655248        1.48170638619682
C            5.66000558158868        0.17567635714068        2.39291311732019
C            4.36797900561755       -0.29722958730659        2.60129590937535
C            3.31569073716025        0.20386064648577        1.86160582861136
C            3.55783675469890        1.19631751539215        0.89785189770109
C            2.47580493237771        1.66591894768739        0.03277566909933
C            1.32888388663199        0.80406478877385       -0.12182144013087
C            0.35398746979059        1.14707833963457       -1.01079878305165
O            0.37488608985553        2.26763863768240       -1.70982905167138
C           -0.80366203282001        0.23084544149497       -1.41430225591946
C           -2.09335168050799        1.06703520717554       -1.25098699399832
C           -2.91037436751990        0.76511697023119       -0.09558632947179
C           -3.77144279004860        1.77059185565613        0.55690272270069
N           -3.85620681353888        2.96398903576229       -0.03626374615621
O           -4.37982489651586        1.50022013653564        1.60019884699119
C           -2.96979200266392       -0.52930768625742        0.34755844837031
O           -3.64177636452912       -0.90938783954726        1.40250746787357
C           -2.26296595547330       -1.57981814736632       -0.46747035816680
N           -2.95220504901216       -1.71553561343511       -1.74904923174507
C           -4.35585217780582       -2.02762443968534       -1.55671879397380
C           -2.32440597792103       -2.69476012271177       -2.61568352632934
O           -2.32038462338946        1.95017112934652       -2.05866417277080
O           -0.62265710066053       -0.05173198482711       -2.78507067537601
C           -0.81554959694584       -1.07899543201190       -0.62223394868457
C           -0.19132565209541       -0.93048422343412        0.76429581367913
C            1.25842198937764       -0.46632447438726        0.68290035684434
C            1.86035321269407       -0.18486514106812        2.07885034818439
O            1.15093777363712        0.93754565782862        2.59563308689910
C            1.69818579732918       -1.37189073979875        3.02993497383683
O            2.59422746174799        2.73626733070879       -0.61098667533699
H            4.28589427219911        3.00281606942006       -0.52331490968111
H            6.89850804222181        1.57040098226963        1.32924933644920
H            6.47424240607973       -0.23700399480162        2.96952887373063
H            4.21162320359784       -1.06302334724931        3.34246282999385
H            1.21185997307210        2.75953525969533       -1.46484017283015
H           -3.39575917652101        3.11208530561643       -0.92475951129063
H           -4.44648044042871        3.67268526161242        0.36571851100356
H           -4.08248370600209       -0.07331163571376        1.78019952577808
H           -2.26861393542610       -2.53181194155203        0.09673754478599
H           -4.82984885292651       -2.11332393554224       -2.53233558042259
H           -4.50944083594501       -2.96698630083809       -1.00425227120425
H           -4.84458769547088       -1.22195301238773       -1.01167005078159
H           -2.94141545562485       -2.81176953208918       -3.50382963299974
H           -2.21431924732841       -3.67771464928568       -2.13292994058408
H           -1.35184721650651       -2.32883886363949       -2.93131915252179
H           -0.94339572289172        0.72393651592882       -3.27113005586600
H           -0.22910355644335       -1.80066686356203       -1.19478189621170
H           -0.74209458554974       -0.19901807123674        1.35712245158779
H           -0.24785429727246       -1.89811192987897        1.26303525620022
H            1.87132243637885       -1.24161537651072        0.20460500102639
H            1.51339376601589        1.15718044886719        3.46063108255763
H            2.14328159316494       -2.26892008761084        2.60916596690541
H            2.16739366133201       -1.15312029483516        3.98693105726266
H            0.64248248309652       -1.54540180275385        3.21640417137978
