----- Optimization -----
      -----------------------------------------------------------      
     |                   =====================                   |     
     |                           x T B                           |     
     |                   =====================                   |     
     |                         S. Grimme                         |     
     |          Mulliken Center for Theoretical Chemistry        |     
     |                    University of Bonn                     |     
      -----------------------------------------------------------      

   * xtb version 6.7.1 (edcfbbe) compiled by 'conda@3ef47c1a292c' on 2024-11-25

   xtb is free software: you can redistribute it and/or modify it under
   the terms of the GNU Lesser General Public License as published by
   the Free Software Foundation, either version 3 of the License, or
   (at your option) any later version.
   
   xtb is distributed in the hope that it will be useful,
   but WITHOUT ANY WARRANTY; without even the implied warranty of
   MERCHANTABILITY or FITNESS FOR A PARTICULAR PURPOSE.  See the
   GNU Lesser General Public License for more details.
   
   Cite this work as:
   * C. Bannwarth, E. Caldeweyher, S. Ehlert, A. Hansen, P. Pracht,
     J. Seibert, S. Spicher, S. Grimme, WIREs Comput. Mol. Sci., 2020, 11,
     e01493. DOI: 10.1002/wcms.1493
   
   for GFN2-xTB:
   * C. Bannwarth, S. Ehlert and S. Grimme., J. Chem. Theory Comput., 2019,
     15, 1652-1671. DOI: 10.1021/acs.jctc.8b01176
   for GFN1-xTB:
   * S. Grimme, C. Bannwarth, P. Shushkov, J. Chem. Theory Comput., 2017,
     13, 1989-2009. DOI: 10.1021/acs.jctc.7b00118
   for GFN0-xTB:
   * P. Pracht, E. Caldeweyher, S. Ehlert, S. Grimme, ChemRxiv, 2019, preprint.
     DOI: 10.26434/chemrxiv.8326202.v1
   for GFN-FF:
   * S. Spicher and S. Grimme, Angew. Chem. Int. Ed., 2020, 59, 15665-15673.
     DOI: 10.1002/anie.202004239
   
   for ALPB and GBSA implicit solvation:
   * S. Ehlert, M. Stahn, S. Spicher, S. Grimme, J. Chem. Theory Comput.,
     2021, 17, 4250-4261. DOI: 10.1021/acs.jctc.1c00471
   
   for ddCOSMO and CPCM-X implicit solvation:
   * M. Stahn, S. Ehlert, S. Grimme, J. Phys. Chem. A,
     2023, XX, XXXX-XXXX. DOI: 10.1021/acs.jpca.3c04382
   
   for DFT-D4:
   * E. Caldeweyher, C. Bannwarth and S. Grimme, J. Chem. Phys., 2017,
     147, 034112. DOI: 10.1063/1.4993215
   * E. Caldeweyher, S. Ehlert, A. Hansen, H. Neugebauer, S. Spicher,
     C. Bannwarth and S. Grimme, J. Chem. Phys., 2019, 150, 154122.
     DOI: 10.1063/1.5090222
   * E. Caldeweyher, J.-M. Mewes, S. Ehlert and S. Grimme, Phys. Chem. Chem. Phys.
     2020, 22, 8499-8512. DOI: 10.1039/D0CP00502A
   
   for sTDA-xTB:
   * S. Grimme and C. Bannwarth, J. Chem. Phys., 2016, 145, 054103.
     DOI: 10.1063/1.4959605
   
   in the mass-spec context:
   * V. Asgeirsson, C. Bauer and S. Grimme, Chem. Sci., 2017, 8, 4879.
     DOI: 10.1039/c7sc00601b
   * J. Koopman and S. Grimme, ACS Omega 2019, 4, 12, 15120-15133.
     DOI: 10.1021/acsomega.9b02011
   
   for metadynamics refer to:
   * S. Grimme, J. Chem. Theory Comput., 2019, 155, 2847-2862
     DOI: 10.1021/acs.jctc.9b00143
   
   for SPH calculations refer to:
   * S. Spicher and S. Grimme, J. Chem. Theory Comput., 2021, 17, 1701-1714
     DOI: 10.1021/acs.jctc.0c01306
   
   for ONIOM refer to:
   * C. Plett, A. Katbashev, S. Ehlert, S. Grimme, M. Bursch,
     Phys. Chem. Chem. Phys., 2023, 25, 17860-17868. DOI: 10.1039/D3CP02178E
   
   for DIPRO refer to:
   * J. Kohn, N. Gildemeister, S. Grimme, D. Fazzi, A. Hansen,
     J. Chem. Phys., 2023, just accepted.
   
   for PTB refer to:
   * S. Grimme, M. Mueller, A. Hansen, J. Chem. Phys., 2023, 158, 124111.
     DOI: 10.1063/5.0137838
   
   with help from (in alphabetical order)
   P. Atkinson, C. Bannwarth, F. Bohle, G. Brandenburg, E. Caldeweyher
   M. Checinski, S. Dohm, S. Ehlert, S. Ehrlich, I. Gerasimov, C. Hölzer
   A. Katbashev, J. Kohn, J. Koopman, C. Lavigne, S. Lehtola, F. März, M. Müller,
   F. Musil, H. Neugebauer, J. Pisarek, C. Plett, P. Pracht, F. Pultar,
   J. Seibert, P. Shushkov, S. Spicher, M. Stahn, M. Steiner, T. Strunk,
   J. Stückrath, T. Rose, and J. Unsleber
   
 * started run on 2025/05/15 at 16:13:55.299     
   ID    Z sym.   atoms
    1    8 O      1, 11, 17, 19, 24, 25, 30, 32
    2    6 C      2-10, 12-15, 18, 20, 22, 23, 26-29, 31
    3    7 N      16, 21
    4    1 H      33-56

           -------------------------------------------------
          |                Calculation Setup                |
           -------------------------------------------------

          program call               : xtb /rds/general/user/hgt20/home/callum/QDESCP/Tetracycline_rdkit_conf_4/Tetracycline_rdkit_conf_4.xyz --opt normal --acc 1 --gfn 2 --chrg 0 --uhf 0 -P 1
          hostname                   : login-c
          coordinate file            : /rds/general/user/hgt20/home/callum/QDESCP/Tetracycline_rdkit_conf_4/Tetracycline_rdkit_conf_4.xyz
          omp threads                :                     1


           -------------------------------------------------
          |                 G F N 2 - x T B                 |
           -------------------------------------------------

        Reference                      10.1021/acs.jctc.8b01176
      * Hamiltonian:
        H0-scaling (s, p, d)           1.850000    2.230000    2.230000
        zeta-weighting                 0.500000
      * Dispersion:
        s8                             2.700000
        a1                             0.520000
        a2                             5.000000
        s9                             5.000000
      * Repulsion:
        kExp                           1.500000    1.000000
        rExp                           1.000000
      * Coulomb:
        alpha                          2.000000
        third order                    shell-resolved
        anisotropic                    true
        a3                             3.000000
        a5                             4.000000
        cn-shift                       1.200000
        cn-exp                         4.000000
        max-rad                        5.000000


          ...................................................
          :                      SETUP                      :
          :.................................................:
          :  # basis functions                 152          :
          :  # atomic orbitals                 152          :
          :  # shells                           88          :
          :  # electrons                       170          :
          :  max. iterations                   250          :
          :  Hamiltonian                  GFN2-xTB          :
          :  restarted?                      false          :
          :  GBSA solvation                  false          :
          :  PC potential                    false          :
          :  electronic temp.          300.0000000     K    :
          :  accuracy                    1.0000000          :
          :  -> integral cutoff          0.2500000E+02      :
          :  -> integral neglect         0.1000000E-07      :
          :  -> SCF convergence          0.1000000E-05 Eh   :
          :  -> wf. convergence          0.1000000E-03 e    :
          :  Broyden damping             0.4000000          :
          :  net charge                          0          :
          :  unpaired electrons                  0          :
          ...................................................

 iter      E             dE          RMSdq      gap      omega  full diag
   1    -98.6450960 -0.986451E+02  0.430E+00    2.31       0.0  T
   2    -98.7673954 -0.122299E+00  0.238E+00    1.89       1.0  T
   3    -98.7621811  0.521433E-02  0.141E+00    1.54       1.0  T
   4    -98.7905456 -0.283645E-01  0.436E-01    1.39       1.0  T
   5    -98.7986693 -0.812369E-02  0.120E-01    1.29       1.0  T
   6    -98.7990304 -0.361099E-03  0.647E-02    1.33       1.0  T
   7    -98.7991246 -0.942432E-04  0.298E-02    1.34       1.0  T
   8    -98.7991344 -0.982080E-05  0.139E-02    1.34       1.0  T
   9    -98.7991414 -0.698485E-05  0.499E-03    1.34       2.7  T
  10    -98.7991418 -0.438142E-06  0.220E-03    1.34       6.1  T
  11    -98.7991419 -0.593391E-07  0.104E-03    1.34      12.8  T
  12    -98.7991419 -0.229975E-07  0.386E-04    1.33      34.6  T
  13    -98.7991419 -0.308739E-08  0.176E-04    1.33      76.0  T

   *** convergence criteria satisfied after 13 iterations ***

         #    Occupation            Energy/Eh            Energy/eV
      -------------------------------------------------------------
         1        2.0000           -0.7285970             -19.8261
       ...           ...                  ...                  ...
        79        2.0000           -0.4154632             -11.3053
        80        2.0000           -0.4137785             -11.2595
        81        2.0000           -0.4073232             -11.0838
        82        2.0000           -0.4053216             -11.0294
        83        2.0000           -0.4013109             -10.9202
        84        2.0000           -0.3897782             -10.6064
        85        2.0000           -0.3559852              -9.6869 (HOMO)
        86                         -0.3069274              -8.3519 (LUMO)
        87                         -0.2943986              -8.0110
        88                         -0.2538929              -6.9088
        89                         -0.2467723              -6.7150
        90                         -0.2368092              -6.4439
       ...                                ...                  ...
       152                          0.6457541              17.5719
      -------------------------------------------------------------
                  HL-Gap            0.0490579 Eh            1.3349 eV
             Fermi-level           -0.3314563 Eh           -9.0194 eV

 SCC (total)                   0 d,  0 h,  0 min,  0.197 sec
 SCC setup                      ...        0 min,  0.001 sec (  0.300%)
 Dispersion                     ...        0 min,  0.001 sec (  0.435%)
 classical contributions        ...        0 min,  0.000 sec (  0.133%)
 integral evaluation            ...        0 min,  0.014 sec (  6.869%)
 iterations                     ...        0 min,  0.092 sec ( 46.547%)
 molecular gradient             ...        0 min,  0.090 sec ( 45.549%)
 printout                       ...        0 min,  0.000 sec (  0.164%)

         :::::::::::::::::::::::::::::::::::::::::::::::::::::
         ::                     SUMMARY                     ::
         :::::::::::::::::::::::::::::::::::::::::::::::::::::
         :: total energy             -97.750635825995 Eh    ::
         :: gradient norm              0.130884182546 Eh/a0 ::
         :: HOMO-LUMO gap              1.334932908867 eV    ::
         ::.................................................::
         :: SCC energy               -98.797637489061 Eh    ::
         :: -> isotropic ES            0.200461144825 Eh    ::
         :: -> anisotropic ES          0.000937185350 Eh    ::
         :: -> anisotropic XC          0.017154124141 Eh    ::
         :: -> dispersion             -0.069603343590 Eh    ::
         :: repulsion energy           1.047001663066 Eh    ::
         :: add. restraining           0.000000000000 Eh    ::
         :: total charge               0.000000000000 e     ::
         :::::::::::::::::::::::::::::::::::::::::::::::::::::

      ----------------------------------------------------------- 
     |                   =====================                   |
     |                        A N C O P T                        |
     |                   =====================                   |
     |               Approximate Normal Coordinate               |
     |                Rational Function Optimizer                |
      ----------------------------------------------------------- 
      ----------------------------------------------------------- 
     |                   =====================                   |
     |                        A N C O P T                        |
     |                   =====================                   |
     |               Approximate Normal Coordinate               |
     |                Rational Function Optimizer                |
      ----------------------------------------------------------- 

          ...................................................
          :                      SETUP                      :
          :.................................................:
          :   optimization level            normal          :
          :   max. optcycles                   200          :
          :   ANC micro-cycles                  20          :
          :   degrees of freedom               162          :
          :.................................................:
          :   RF solver                   davidson          :
          :   write xtbopt.log                true          :
          :   linear?                        false          :
          :   energy convergence         0.5000000E-05 Eh   :
          :   grad. convergence          0.1000000E-02 Eh/α :
          :   maxmium RF displ.          1.0000000          :
          :   Hlow (freq-cutoff)         0.1000000E-01      :
          :   Hmax (freq-cutoff)         5.0000000          :
          :   S6 in model hess.         20.0000000          :
          ...................................................

generating ANC from exact Hessian ...
Using Lindh-Hessian (1995)
 Shifting diagonal of input Hessian by    9.7314491145693814E-003
 Lowest  eigenvalues of input Hessian
    0.000000    0.000000    0.000000    0.000000    0.000000    0.000000
    0.010000    0.010169    0.010669    0.010825    0.011130    0.011409
    0.012373    0.012731    0.014240    0.014498    0.015373    0.017056
 Highest eigenvalues
    1.961247    1.972372    2.003161    2.057895    2.138539    2.305030


........................................................................
.............................. CYCLE    1 ..............................
........................................................................

 iter      E             dE          RMSdq      gap      omega  full diag
   1    -98.7991419 -0.987991E+02  0.671E-05    1.33       0.0  T
   2    -98.7991419 -0.361382E-10  0.417E-05    1.33     320.3  T
   3    -98.7991419 -0.979128E-11  0.274E-05    1.33     488.6  T
     SCC iter.                  ...        0 min,  0.012 sec
     gradient                   ...        0 min,  0.092 sec
 * total energy  :   -97.7506358 Eh     change       -0.7121912E-09 Eh
   gradient norm :     0.1308843 Eh/α   predicted     0.0000000E+00 (-100.00%)
   displ. norm   :     0.3906100 α      lambda       -0.2273227E-01
   maximum displ.:     0.1521910 α      in ANC's #38, #13, #12, ...

........................................................................
.............................. CYCLE    2 ..............................
........................................................................

 iter      E             dE          RMSdq      gap      omega  full diag
   1    -98.8482415 -0.988482E+02  0.247E-01    1.36       0.0  T
   2    -98.8490258 -0.784304E-03  0.170E-01    1.47       1.0  T
   3    -98.8498454 -0.819524E-03  0.891E-02    1.45       1.0  T
   4    -98.8499284 -0.830532E-04  0.304E-02    1.47       1.0  T
   5    -98.8499434 -0.149725E-04  0.106E-02    1.46       1.3  T
   6    -98.8499498 -0.637274E-05  0.327E-03    1.46       4.1  T
   7    -98.8499500 -0.259150E-06  0.175E-03    1.46       7.6  T
   8    -98.8499501 -0.323292E-07  0.678E-04    1.46      19.7  T
   9    -98.8499501 -0.948343E-08  0.316E-04    1.46      42.2  T
     SCC iter.                  ...        0 min,  0.079 sec
     gradient                   ...        0 min,  0.092 sec
 * total energy  :   -97.7673717 Eh     change       -0.1673586E-01 Eh
   gradient norm :     0.0683537 Eh/α   predicted    -0.1311854E-01 ( -21.61%)
   displ. norm   :     0.4188033 α      lambda       -0.1129890E-01
   maximum displ.:     0.1457014 α      in ANC's #13, #38, #18, ...

........................................................................
.............................. CYCLE    3 ..............................
........................................................................

 iter      E             dE          RMSdq      gap      omega  full diag
   1    -98.8829565 -0.988830E+02  0.237E-01    1.46       0.0  T
   2    -98.8839810 -0.102454E-02  0.163E-01    1.58       1.0  T
   3    -98.8850719 -0.109087E-02  0.729E-02    1.56       1.0  T
   4    -98.8851181 -0.461988E-04  0.301E-02    1.57       1.0  T
   5    -98.8851229 -0.486203E-05  0.118E-02    1.56       1.1  T
   6    -98.8851317 -0.878400E-05  0.281E-03    1.57       4.8  T
   7    -98.8851319 -0.151420E-06  0.156E-03    1.57       8.6  T
   8    -98.8851319 -0.311389E-07  0.619E-04    1.57      21.6  T
   9    -98.8851319 -0.775387E-08  0.296E-04    1.57      45.2  T
     SCC iter.                  ...        0 min,  0.073 sec
     gradient                   ...        0 min,  0.047 sec
 * total energy  :   -97.7741239 Eh     change       -0.6752259E-02 Eh
   gradient norm :     0.0190768 Eh/α   predicted    -0.6640349E-02 (  -1.66%)
   displ. norm   :     0.3271647 α      lambda       -0.2370442E-02
   maximum displ.:     0.1350181 α      in ANC's #13, #18, #11, ...

........................................................................
.............................. CYCLE    4 ..............................
........................................................................

 iter      E             dE          RMSdq      gap      omega  full diag
   1    -98.8889442 -0.988889E+02  0.940E-02    1.55       0.0  T
   2    -98.8890049 -0.606393E-04  0.550E-02    1.58       1.0  T
   3    -98.8890223 -0.174166E-04  0.382E-02    1.58       1.0  T
   4    -98.8890589 -0.366320E-04  0.681E-03    1.58       2.0  T
   5    -98.8890603 -0.137020E-05  0.296E-03    1.58       4.5  T
   6    -98.8890608 -0.474368E-06  0.115E-03    1.58      11.7  T
   7    -98.8890608 -0.190809E-07  0.613E-04    1.58      21.8  T
   8    -98.8890608 -0.548897E-08  0.179E-04    1.58      74.6  T
     SCC iter.                  ...        0 min,  0.030 sec
     gradient                   ...        0 min,  0.080 sec
 * total energy  :   -97.7758931 Eh     change       -0.1769158E-02 Eh
   gradient norm :     0.0150914 Eh/α   predicted    -0.1312361E-02 ( -25.82%)
   displ. norm   :     0.4032376 α      lambda       -0.1832905E-02
   maximum displ.:     0.1567731 α      in ANC's #13, #18, #6, ...

........................................................................
.............................. CYCLE    5 ..............................
........................................................................

 iter      E             dE          RMSdq      gap      omega  full diag
   1    -98.8879929 -0.988880E+02  0.963E-02    1.56       0.0  T
   2    -98.8880193 -0.264694E-04  0.566E-02    1.58       1.0  T
   3    -98.8879875  0.318086E-04  0.333E-02    1.58       1.0  T
   4    -98.8880335 -0.459254E-04  0.541E-03    1.58       2.5  T
   5    -98.8880348 -0.133658E-05  0.231E-03    1.58       5.8  T
   6    -98.8880349 -0.122212E-06  0.124E-03    1.58      10.8  T
   7    -98.8880349 -0.287538E-07  0.616E-04    1.58      21.7  T
   8    -98.8880349 -0.825801E-08  0.183E-04    1.58      73.2  T
     SCC iter.                  ...        0 min,  0.075 sec
     gradient                   ...        0 min,  0.046 sec
 * total energy  :   -97.7771013 Eh     change       -0.1208148E-02 Eh
   gradient norm :     0.0118885 Eh/α   predicted    -0.1065469E-02 ( -11.81%)
   displ. norm   :     0.2809999 α      lambda       -0.6902392E-03
   maximum displ.:     0.1329587 α      in ANC's #6, #5, #8, ...

........................................................................
.............................. CYCLE    6 ..............................
........................................................................

 iter      E             dE          RMSdq      gap      omega  full diag
   1    -98.8871378 -0.988871E+02  0.656E-02    1.58       0.0  T
   2    -98.8871427 -0.493453E-05  0.384E-02    1.58       1.0  T
   3    -98.8871320  0.106953E-04  0.161E-02    1.58       1.0  T
   4    -98.8871452 -0.131309E-04  0.270E-03    1.58       5.0  T
   5    -98.8871454 -0.214044E-06  0.143E-03    1.58       9.3  T
   6    -98.8871454 -0.396027E-07  0.728E-04    1.58      18.4  T
   7    -98.8871454 -0.848063E-08  0.324E-04    1.58      41.2  T
     SCC iter.                  ...        0 min,  0.026 sec
     gradient                   ...        0 min,  0.086 sec
 * total energy  :   -97.7775861 Eh     change       -0.4848906E-03 Eh
   gradient norm :     0.0082199 Eh/α   predicted    -0.3723712E-03 ( -23.21%)
   displ. norm   :     0.2855713 α      lambda       -0.4584382E-03
   maximum displ.:     0.1625441 α      in ANC's #6, #5, #8, ...

........................................................................
.............................. CYCLE    7 ..............................
........................................................................

 iter      E             dE          RMSdq      gap      omega  full diag
   1    -98.8866076 -0.988866E+02  0.643E-02    1.59       0.0  T
   2    -98.8866108 -0.313914E-05  0.376E-02    1.58       1.0  T
   3    -98.8866061  0.463135E-05  0.109E-02    1.58       1.2  T
   4    -98.8866119 -0.581498E-05  0.198E-03    1.58       6.8  T
   5    -98.8866120 -0.810938E-07  0.109E-03    1.58      12.3  T
   6    -98.8866120 -0.145172E-07  0.546E-04    1.58      24.5  T
   7    -98.8866120 -0.401009E-08  0.173E-04    1.58      77.3  T
     SCC iter.                  ...        0 min,  0.067 sec
     gradient                   ...        0 min,  0.047 sec
 * total energy  :   -97.7779118 Eh     change       -0.3256678E-03 Eh
   gradient norm :     0.0056873 Eh/α   predicted    -0.2479142E-03 ( -23.88%)
   displ. norm   :     0.2731033 α      lambda       -0.3060726E-03
   maximum displ.:     0.1571923 α      in ANC's #6, #5, #3, ...

........................................................................
.............................. CYCLE    8 ..............................
........................................................................

 iter      E             dE          RMSdq      gap      omega  full diag
   1    -98.8865554 -0.988866E+02  0.586E-02    1.60       0.0  T
   2    -98.8865578 -0.239570E-05  0.344E-02    1.59       1.0  T
   3    -98.8865516  0.624941E-05  0.109E-02    1.60       1.2  T
   4    -98.8865588 -0.720901E-05  0.217E-03    1.60       6.2  T
   5    -98.8865590 -0.226392E-06  0.987E-04    1.59      13.5  T
   6    -98.8865590 -0.119207E-07  0.503E-04    1.60      26.6  T
     SCC iter.                  ...        0 min,  0.023 sec
     gradient                   ...        0 min,  0.085 sec
 * total energy  :   -97.7781374 Eh     change       -0.2255886E-03 Eh
   gradient norm :     0.0051509 Eh/α   predicted    -0.1644522E-03 ( -27.10%)
   displ. norm   :     0.2540516 α      lambda       -0.2258988E-03
   maximum displ.:     0.1443518 α      in ANC's #6, #5, #3, ...

........................................................................
.............................. CYCLE    9 ..............................
........................................................................

 iter      E             dE          RMSdq      gap      omega  full diag
   1    -98.8870616 -0.988871E+02  0.512E-02    1.61       0.0  T
   2    -98.8870633 -0.167635E-05  0.302E-02    1.61       1.0  T
   3    -98.8870504  0.128659E-04  0.147E-02    1.61       1.0  T
   4    -98.8870653 -0.148519E-04  0.173E-03    1.61       7.7  T
   5    -98.8870654 -0.877157E-07  0.883E-04    1.61      15.1  T
   6    -98.8870654 -0.678506E-08  0.435E-04    1.61      30.7  T
     SCC iter.                  ...        0 min,  0.068 sec
     gradient                   ...        0 min,  0.047 sec
 * total energy  :   -97.7783084 Eh     change       -0.1709713E-03 Eh
   gradient norm :     0.0052010 Eh/α   predicted    -0.1202426E-03 ( -29.67%)
   displ. norm   :     0.2539885 α      lambda       -0.1858960E-03
   maximum displ.:     0.1466869 α      in ANC's #5, #6, #3, ...

........................................................................
.............................. CYCLE   10 ..............................
........................................................................

 iter      E             dE          RMSdq      gap      omega  full diag
   1    -98.8876180 -0.988876E+02  0.504E-02    1.62       0.0  T
   2    -98.8876196 -0.151915E-05  0.298E-02    1.62       1.0  T
   3    -98.8876065  0.130521E-04  0.147E-02    1.62       1.0  T
   4    -98.8876215 -0.150197E-04  0.166E-03    1.62       8.1  T
   5    -98.8876216 -0.650913E-07  0.873E-04    1.62      15.3  T
   6    -98.8876216 -0.598617E-08  0.395E-04    1.62      33.8  T
     SCC iter.                  ...        0 min,  0.023 sec
     gradient                   ...        0 min,  0.083 sec
 * total energy  :   -97.7784522 Eh     change       -0.1437942E-03 Eh
   gradient norm :     0.0047042 Eh/α   predicted    -0.9894807E-04 ( -31.19%)
   displ. norm   :     0.2788391 α      lambda       -0.1791081E-03
   maximum displ.:     0.1696908 α      in ANC's #5, #6, #3, ...

........................................................................
.............................. CYCLE   11 ..............................
........................................................................

 iter      E             dE          RMSdq      gap      omega  full diag
   1    -98.8885320 -0.988885E+02  0.567E-02    1.63       0.0  T
   2    -98.8885338 -0.177998E-05  0.335E-02    1.63       1.0  T
   3    -98.8885176  0.161287E-04  0.169E-02    1.63       1.0  T
   4    -98.8885364 -0.187317E-04  0.174E-03    1.63       7.7  T
   5    -98.8885364 -0.554130E-07  0.103E-03    1.63      13.0  T
   6    -98.8885364 -0.176899E-07  0.493E-04    1.63      27.1  T
   7    -98.8885365 -0.439653E-08  0.190E-04    1.63      70.4  T
     SCC iter.                  ...        0 min,  0.071 sec
     gradient                   ...        0 min,  0.046 sec
 * total energy  :   -97.7785886 Eh     change       -0.1364874E-03 Eh
   gradient norm :     0.0040711 Eh/α   predicted    -0.9653209E-04 ( -29.27%)
   displ. norm   :     0.2878128 α      lambda       -0.1619813E-03
   maximum displ.:     0.1822104 α      in ANC's #5, #6, #3, ...

........................................................................
.............................. CYCLE   12 ..............................
........................................................................

 iter      E             dE          RMSdq      gap      omega  full diag
   1    -98.8888270 -0.988888E+02  0.598E-02    1.64       0.0  T
   2    -98.8888288 -0.185342E-05  0.352E-02    1.64       1.0  T
   3    -98.8888161  0.127302E-04  0.152E-02    1.64       1.0  T
   4    -98.8888309 -0.147560E-04  0.178E-03    1.64       7.5  T
   5    -98.8888309 -0.649931E-07  0.106E-03    1.64      12.6  T
   6    -98.8888309 -0.131535E-07  0.523E-04    1.64      25.5  T
   7    -98.8888310 -0.767305E-08  0.174E-04    1.64      76.7  T
     SCC iter.                  ...        0 min,  0.026 sec
     gradient                   ...        0 min,  0.080 sec
 * total energy  :   -97.7787068 Eh     change       -0.1181480E-03 Eh
   gradient norm :     0.0036018 Eh/α   predicted    -0.8770342E-04 ( -25.77%)
   displ. norm   :     0.2542983 α      lambda       -0.1371271E-03
   maximum displ.:     0.1641951 α      in ANC's #5, #6, #9, ...

........................................................................
.............................. CYCLE   13 ..............................
........................................................................

 iter      E             dE          RMSdq      gap      omega  full diag
   1    -98.8905585 -0.988906E+02  0.554E-02    1.64       0.0  T
   2    -98.8905610 -0.249240E-05  0.326E-02    1.64       1.0  T
   3    -98.8905482  0.128592E-04  0.167E-02    1.64       1.0  T
   4    -98.8905637 -0.155545E-04  0.160E-03    1.64       8.3  T
   5    -98.8905638 -0.547607E-07  0.975E-04    1.64      13.7  T
   6    -98.8905638 -0.204902E-07  0.538E-04    1.64      24.8  T
     SCC iter.                  ...        0 min,  0.074 sec
     gradient                   ...        0 min,  0.047 sec
 * total energy  :   -97.7787965 Eh     change       -0.8971460E-04 Eh
   gradient norm :     0.0043664 Eh/α   predicted    -0.7299770E-04 ( -18.63%)
   displ. norm   :     0.2021715 α      lambda       -0.9623381E-04
   maximum displ.:     0.1326901 α      in ANC's #5, #6, #9, ...

........................................................................
.............................. CYCLE   14 ..............................
........................................................................

 iter      E             dE          RMSdq      gap      omega  full diag
   1    -98.8904254 -0.988904E+02  0.437E-02    1.64       0.0  T
   2    -98.8904266 -0.124497E-05  0.259E-02    1.64       1.0  T
   3    -98.8904219  0.477410E-05  0.944E-03    1.65       1.4  T
   4    -98.8904275 -0.561204E-05  0.129E-03    1.64      10.4  T
   5    -98.8904275 -0.367174E-07  0.730E-04    1.64      18.3  T
   6    -98.8904275 -0.147008E-08  0.381E-04    1.64      35.1  T
     SCC iter.                  ...        0 min,  0.022 sec
     gradient                   ...        0 min,  0.087 sec
 * total energy  :   -97.7788591 Eh     change       -0.6258198E-04 Eh
   gradient norm :     0.0038706 Eh/α   predicted    -0.5008336E-04 ( -19.97%)
   displ. norm   :     0.1391196 α      lambda       -0.6691219E-04
   maximum displ.:     0.0889291 α      in ANC's #5, #9, #7, ...

........................................................................
.............................. CYCLE   15 ..............................
........................................................................

 iter      E             dE          RMSdq      gap      omega  full diag
   1    -98.8914438 -0.988914E+02  0.318E-02    1.65       0.0  T
   2    -98.8914448 -0.985712E-06  0.188E-02    1.64       1.0  T
   3    -98.8914431  0.176487E-05  0.600E-03    1.65       2.2  T
   4    -98.8914452 -0.216529E-05  0.117E-03    1.65      11.4  T
   5    -98.8914453 -0.357674E-07  0.612E-04    1.65      21.8  T
   6    -98.8914453 -0.273312E-08  0.303E-04    1.65      44.0  T
     SCC iter.                  ...        0 min,  0.022 sec
     gradient                   ...        0 min,  0.091 sec
 * total energy  :   -97.7788994 Eh     change       -0.4026963E-04 Eh
   gradient norm :     0.0044537 Eh/α   predicted    -0.3410679E-04 ( -15.30%)
   displ. norm   :     0.1331894 α      lambda       -0.5717474E-04
   maximum displ.:     0.0849328 α      in ANC's #5, #7, #9, ...

........................................................................
.............................. CYCLE   16 ..............................
........................................................................

 iter      E             dE          RMSdq      gap      omega  full diag
   1    -98.8914209 -0.988914E+02  0.314E-02    1.65       0.0  T
   2    -98.8914218 -0.972940E-06  0.187E-02    1.65       1.0  T
   3    -98.8914192  0.261426E-05  0.685E-03    1.65       2.0  T
   4    -98.8914223 -0.303087E-05  0.132E-03    1.65      10.1  T
   5    -98.8914223 -0.792123E-07  0.609E-04    1.65      21.9  T
   6    -98.8914223 -0.602613E-08  0.331E-04    1.65      40.3  T
     SCC iter.                  ...        0 min,  0.056 sec
     gradient                   ...        0 min,  0.098 sec
 * total energy  :   -97.7789327 Eh     change       -0.3335382E-04 Eh
   gradient norm :     0.0024559 Eh/α   predicted    -0.2909660E-04 ( -12.76%)
   displ. norm   :     0.0896363 α      lambda       -0.3084832E-04
   maximum displ.:     0.0535500 α      in ANC's #5, #7, #6, ...

........................................................................
.............................. CYCLE   17 ..............................
........................................................................

 iter      E             dE          RMSdq      gap      omega  full diag
   1    -98.8910401 -0.988910E+02  0.215E-02    1.65       0.0  T
   2    -98.8910404 -0.366191E-06  0.127E-02    1.65       1.0  T
   3    -98.8910389  0.152675E-05  0.526E-03    1.65       2.5  T
   4    -98.8910407 -0.177149E-05  0.860E-04    1.65      15.5  T
   5    -98.8910407 -0.294353E-07  0.419E-04    1.65      31.9  T
   6    -98.8910407 -0.192367E-08  0.224E-04    1.65      59.8  T
     SCC iter.                  ...        0 min,  0.024 sec
     gradient                   ...        0 min,  0.080 sec
 * total energy  :   -97.7789564 Eh     change       -0.2372053E-04 Eh
   gradient norm :     0.0019878 Eh/α   predicted    -0.1555146E-04 ( -34.44%)
   displ. norm   :     0.2014028 α      lambda       -0.3788195E-04
   maximum displ.:     0.1049222 α      in ANC's #5, #7, #6, ...

........................................................................
.............................. CYCLE   18 ..............................
........................................................................

 iter      E             dE          RMSdq      gap      omega  full diag
   1    -98.8907949 -0.988908E+02  0.476E-02    1.67       0.0  T
   2    -98.8907965 -0.157074E-05  0.282E-02    1.67       1.0  T
   3    -98.8907869  0.958711E-05  0.128E-02    1.67       1.0  T
   4    -98.8907979 -0.110570E-04  0.171E-03    1.67       7.8  T
   5    -98.8907980 -0.850549E-07  0.900E-04    1.67      14.9  T
   6    -98.8907980 -0.696110E-08  0.474E-04    1.67      28.2  T
     SCC iter.                  ...        0 min,  0.069 sec
     gradient                   ...        0 min,  0.089 sec
 * total energy  :   -97.7789833 Eh     change       -0.2689890E-04 Eh
   gradient norm :     0.0029709 Eh/α   predicted    -0.1928531E-04 ( -28.30%)
   displ. norm   :     0.0266121 α      lambda       -0.1399543E-04
   maximum displ.:     0.0169311 α      in ANC's #2, #7, #6, ...

........................................................................
.............................. CYCLE   19 ..............................
........................................................................

 iter      E             dE          RMSdq      gap      omega  full diag
   1    -98.8910908 -0.988911E+02  0.570E-03    1.67       0.0  T
   2    -98.8910909 -0.934501E-07  0.344E-03    1.67       3.9  T
   3    -98.8910908  0.608921E-07  0.138E-03    1.67       9.7  T
   4    -98.8910909 -0.747090E-07  0.418E-04    1.67      31.9  T
   5    -98.8910909 -0.944242E-08  0.135E-04    1.67      98.8  T
     SCC iter.                  ...        0 min,  0.020 sec
     gradient                   ...        0 min,  0.072 sec
 * total energy  :   -97.7789952 Eh     change       -0.1182253E-04 Eh
   gradient norm :     0.0021899 Eh/α   predicted    -0.7007387E-05 ( -40.73%)
   displ. norm   :     0.0994002 α      lambda       -0.3731119E-04
   maximum displ.:     0.0580683 α      in ANC's #2, #6, #7, ...

........................................................................
.............................. CYCLE   20 ..............................
........................................................................

 iter      E             dE          RMSdq      gap      omega  full diag
   1    -98.8916221 -0.988916E+02  0.217E-02    1.68       0.0  T
   2    -98.8916225 -0.368081E-06  0.128E-02    1.68       1.0  T
   3    -98.8916214  0.106756E-05  0.470E-03    1.68       2.8  T
   4    -98.8916227 -0.128666E-05  0.698E-04    1.68      19.2  T
   5    -98.8916227 -0.121372E-07  0.379E-04    1.68      35.3  T
   6    -98.8916227 -0.792824E-09  0.192E-04    1.68      69.6  T
     SCC iter.                  ...        0 min,  0.074 sec
     gradient                   ...        0 min,  0.046 sec
 * total energy  :   -97.7790205 Eh     change       -0.2538639E-04 Eh
   gradient norm :     0.0016073 Eh/α   predicted    -0.1884466E-04 ( -25.77%)
   displ. norm   :     0.1610426 α      lambda       -0.2028720E-04
   maximum displ.:     0.0940063 α      in ANC's #2, #7, #6, ...
 * RMSD in coord.:     0.4474615 α      energy gain  -0.2838472E-01 Eh

generating ANC from exact Hessian ...
Using Lindh-Hessian (1995)
 Shifting diagonal of input Hessian by    9.6896144589025505E-003
 Lowest  eigenvalues of input Hessian
    0.000000    0.000000    0.000000    0.000000    0.000000    0.000000
    0.010000    0.010194    0.010789    0.010915    0.011365    0.011607
    0.012443    0.013054    0.014414    0.015009    0.015623    0.017445
 Highest eigenvalues
    2.028176    2.057918    2.072745    2.164816    2.173960    2.359943


........................................................................
.............................. CYCLE   21 ..............................
........................................................................

 iter      E             dE          RMSdq      gap      omega  full diag
   1    -98.8920891 -0.988921E+02  0.356E-02    1.68       0.0  T
   2    -98.8920896 -0.459599E-06  0.210E-02    1.68       1.0  T
   3    -98.8920881  0.146305E-05  0.525E-03    1.68       2.5  T
   4    -98.8920899 -0.175484E-05  0.101E-03    1.68      13.3  T
   5    -98.8920899 -0.174817E-07  0.590E-04    1.68      22.6  T
   6    -98.8920899 -0.564256E-09  0.296E-04    1.68      45.2  T
     SCC iter.                  ...        0 min,  0.063 sec
     gradient                   ...        0 min,  0.097 sec
 * total energy  :   -97.7790432 Eh     change       -0.2265612E-04 Eh
   gradient norm :     0.0023310 Eh/α   predicted     0.0000000E+00 (-100.00%)
   displ. norm   :     0.0238647 α      lambda       -0.1553271E-04
   maximum displ.:     0.0152237 α      in ANC's #2, #7, #6, ...

........................................................................
.............................. CYCLE   22 ..............................
........................................................................

 iter      E             dE          RMSdq      gap      omega  full diag
   1    -98.8921915 -0.988922E+02  0.710E-03    1.68       0.0  T
   2    -98.8921916 -0.110911E-06  0.423E-03    1.68       3.2  T
   3    -98.8921916  0.349070E-07  0.123E-03    1.68      10.8  T
   4    -98.8921916 -0.468393E-07  0.318E-04    1.68      42.0  T
   5    -98.8921916 -0.476224E-08  0.127E-04    1.68     105.1  T
     SCC iter.                  ...        0 min,  0.019 sec
     gradient                   ...        0 min,  0.071 sec
 * total energy  :   -97.7790564 Eh     change       -0.1318808E-04 Eh
   gradient norm :     0.0011452 Eh/α   predicted    -0.8263810E-05 ( -37.34%)
   displ. norm   :     0.0844135 α      lambda       -0.2093176E-04
   maximum displ.:     0.0584974 α      in ANC's #2, #6, #7, ...

........................................................................
.............................. CYCLE   23 ..............................
........................................................................

 iter      E             dE          RMSdq      gap      omega  full diag
   1    -98.8921037 -0.988921E+02  0.213E-02    1.69       0.0  T
   2    -98.8921043 -0.633086E-06  0.126E-02    1.68       1.1  T
   3    -98.8921036  0.726018E-06  0.414E-03    1.68       3.2  T
   4    -98.8921044 -0.826554E-06  0.112E-03    1.68      12.0  T
   5    -98.8921045 -0.728203E-07  0.411E-04    1.68      32.5  T
   6    -98.8921045 -0.325630E-08  0.217E-04    1.68      61.5  T
     SCC iter.                  ...        0 min,  0.023 sec
     gradient                   ...        0 min,  0.098 sec
 * total energy  :   -97.7790720 Eh     change       -0.1565006E-04 Eh
   gradient norm :     0.0020049 Eh/α   predicted    -0.1122451E-04 ( -28.28%)
   displ. norm   :     0.0227619 α      lambda       -0.7099178E-05
   maximum displ.:     0.0176358 α      in ANC's #2, #6, #9, ...

........................................................................
.............................. CYCLE   24 ..............................
........................................................................

 iter      E             dE          RMSdq      gap      omega  full diag
   1    -98.8920276 -0.988920E+02  0.457E-03    1.68       0.0  T
   2    -98.8920277 -0.335856E-07  0.268E-03    1.68       5.0  T
   3    -98.8920276  0.841625E-07  0.140E-03    1.68       9.6  T
   4    -98.8920277 -0.101581E-06  0.269E-04    1.68      49.7  T
   5    -98.8920277 -0.389879E-08  0.921E-05    1.68     145.0  T
     SCC iter.                  ...        0 min,  0.019 sec
     gradient                   ...        0 min,  0.047 sec
 * total energy  :   -97.7790786 Eh     change       -0.6512834E-05 Eh
   gradient norm :     0.0015254 Eh/α   predicted    -0.3551697E-05 ( -45.47%)
   displ. norm   :     0.1091091 α      lambda       -0.2111898E-04
   maximum displ.:     0.0791694 α      in ANC's #2, #6, #9, ...

........................................................................
.............................. CYCLE   25 ..............................
........................................................................

 iter      E             dE          RMSdq      gap      omega  full diag
   1    -98.8918266 -0.988918E+02  0.231E-02    1.68       0.0  T
   2    -98.8918275 -0.872637E-06  0.136E-02    1.69       1.0  T
   3    -98.8918258  0.174314E-05  0.641E-03    1.69       2.1  T
   4    -98.8918278 -0.206313E-05  0.142E-03    1.69       9.4  T
   5    -98.8918280 -0.114391E-06  0.456E-04    1.69      29.3  T
   6    -98.8918280 -0.192480E-08  0.265E-04    1.69      50.4  T
     SCC iter.                  ...        0 min,  0.022 sec
     gradient                   ...        0 min,  0.092 sec
 * total energy  :   -97.7790983 Eh     change       -0.1976114E-04 Eh
   gradient norm :     0.0014086 Eh/α   predicted    -0.1063451E-04 ( -46.18%)
   displ. norm   :     0.0840324 α      lambda       -0.8770181E-05
   maximum displ.:     0.0637916 α      in ANC's #2, #6, #9, ...

........................................................................
.............................. CYCLE   26 ..............................
........................................................................

 iter      E             dE          RMSdq      gap      omega  full diag
   1    -98.8918306 -0.988918E+02  0.173E-02    1.69       0.0  T
   2    -98.8918307 -0.113198E-06  0.102E-02    1.69       1.3  T
   3    -98.8918304  0.333701E-06  0.245E-03    1.69       5.5  T
   4    -98.8918308 -0.393109E-06  0.554E-04    1.69      24.1  T
   5    -98.8918308 -0.914518E-08  0.300E-04    1.69      44.5  T
     SCC iter.                  ...        0 min,  0.019 sec
     gradient                   ...        0 min,  0.074 sec
 * total energy  :   -97.7791101 Eh     change       -0.1176705E-04 Eh
   gradient norm :     0.0015610 Eh/α   predicted    -0.4400103E-05 ( -62.61%)
   displ. norm   :     0.1016155 α      lambda       -0.1246655E-04
   maximum displ.:     0.0759747 α      in ANC's #2, #6, #1, ...

........................................................................
.............................. CYCLE   27 ..............................
........................................................................

 iter      E             dE          RMSdq      gap      omega  full diag
   1    -98.8920391 -0.988920E+02  0.220E-02    1.69       0.0  T
   2    -98.8920393 -0.187888E-06  0.130E-02    1.69       1.0  T
   3    -98.8920391  0.202142E-06  0.209E-03    1.69       6.4  T
   4    -98.8920393 -0.266825E-06  0.654E-04    1.69      20.4  T
   5    -98.8920394 -0.110098E-07  0.342E-04    1.69      39.1  T
     SCC iter.                  ...        0 min,  0.019 sec
     gradient                   ...        0 min,  0.080 sec
 * total energy  :   -97.7791272 Eh     change       -0.1711612E-04 Eh
   gradient norm :     0.0009690 Eh/α   predicted    -0.6262791E-05 ( -63.41%)
   displ. norm   :     0.1644717 α      lambda       -0.1912348E-04
   maximum displ.:     0.1204061 α      in ANC's #2, #6, #1, ...

........................................................................
.............................. CYCLE   28 ..............................
........................................................................

 iter      E             dE          RMSdq      gap      omega  full diag
   1    -98.8922440 -0.988922E+02  0.349E-02    1.70       0.0  T
   2    -98.8922446 -0.616541E-06  0.206E-02    1.70       1.0  T
   3    -98.8922422  0.240072E-05  0.648E-03    1.70       2.1  T
   4    -98.8922450 -0.275800E-05  0.109E-03    1.70      12.3  T
   5    -98.8922450 -0.340620E-07  0.585E-04    1.70      22.8  T
   6    -98.8922450 -0.285326E-08  0.335E-04    1.70      39.9  T
     SCC iter.                  ...        0 min,  0.051 sec
     gradient                   ...        0 min,  0.047 sec
 * total energy  :   -97.7791531 Eh     change       -0.2585524E-04 Eh
   gradient norm :     0.0008432 Eh/α   predicted    -0.9677899E-05 ( -62.57%)
   displ. norm   :     0.2383029 α      lambda       -0.2526646E-04
   maximum displ.:     0.1716865 α      in ANC's #2, #6, #1, ...

........................................................................
.............................. CYCLE   29 ..............................
........................................................................

 iter      E             dE          RMSdq      gap      omega  full diag
   1    -98.8922230 -0.988922E+02  0.504E-02    1.71       0.0  T
   2    -98.8922242 -0.112208E-05  0.298E-02    1.70       1.0  T
   3    -98.8922165  0.767036E-05  0.114E-02    1.71       1.2  T
   4    -98.8922252 -0.873297E-05  0.141E-03    1.70       9.4  T
   5    -98.8922253 -0.433777E-07  0.837E-04    1.70      16.0  T
   6    -98.8922253 -0.792579E-08  0.472E-04    1.70      28.3  T
     SCC iter.                  ...        0 min,  0.033 sec
     gradient                   ...        0 min,  0.047 sec
 * total energy  :   -97.7791863 Eh     change       -0.3328956E-04 Eh
   gradient norm :     0.0013959 Eh/α   predicted    -0.1295315E-04 ( -61.09%)
   displ. norm   :     0.2519733 α      lambda       -0.2479929E-04
   maximum displ.:     0.1817356 α      in ANC's #2, #6, #7, ...

........................................................................
.............................. CYCLE   30 ..............................
........................................................................

 iter      E             dE          RMSdq      gap      omega  full diag
   1    -98.8924113 -0.988924E+02  0.512E-02    1.71       0.0  T
   2    -98.8924126 -0.128131E-05  0.303E-02    1.71       1.0  T
   3    -98.8924040  0.857588E-05  0.121E-02    1.71       1.1  T
   4    -98.8924138 -0.978761E-05  0.147E-03    1.71       9.1  T
   5    -98.8924138 -0.522325E-07  0.861E-04    1.71      15.5  T
   6    -98.8924138 -0.930044E-08  0.492E-04    1.71      27.1  T
     SCC iter.                  ...        0 min,  0.023 sec
     gradient                   ...        0 min,  0.045 sec
 * total energy  :   -97.7792208 Eh     change       -0.3441927E-04 Eh
   gradient norm :     0.0013951 Eh/α   predicted    -0.1275255E-04 ( -62.95%)
   displ. norm   :     0.2611974 α      lambda       -0.2561143E-04
   maximum displ.:     0.1883975 α      in ANC's #2, #6, #7, ...

........................................................................
.............................. CYCLE   31 ..............................
........................................................................

 iter      E             dE          RMSdq      gap      omega  full diag
   1    -98.8927117 -0.988927E+02  0.521E-02    1.72       0.0  T
   2    -98.8927129 -0.121603E-05  0.308E-02    1.72       1.0  T
   3    -98.8927035  0.939750E-05  0.126E-02    1.72       1.1  T
   4    -98.8927142 -0.107008E-04  0.144E-03    1.72       9.3  T
   5    -98.8927142 -0.455006E-07  0.864E-04    1.72      15.5  T
   6    -98.8927143 -0.898488E-08  0.486E-04    1.72      27.5  T
     SCC iter.                  ...        0 min,  0.023 sec
     gradient                   ...        0 min,  0.044 sec
 * total energy  :   -97.7792560 Eh     change       -0.3525555E-04 Eh
   gradient norm :     0.0011964 Eh/α   predicted    -0.1319908E-04 ( -62.56%)
   displ. norm   :     0.2528102 α      lambda       -0.2483503E-04
   maximum displ.:     0.1853074 α      in ANC's #2, #6, #7, ...

........................................................................
.............................. CYCLE   32 ..............................
........................................................................

 iter      E             dE          RMSdq      gap      omega  full diag
   1    -98.8929714 -0.988930E+02  0.495E-02    1.73       0.0  T
   2    -98.8929724 -0.915723E-06  0.292E-02    1.73       1.0  T
   3    -98.8929658  0.654279E-05  0.104E-02    1.73       1.3  T
   4    -98.8929732 -0.743777E-05  0.132E-03    1.73      10.1  T
   5    -98.8929733 -0.362593E-07  0.796E-04    1.73      16.8  T
   6    -98.8929733 -0.560924E-08  0.431E-04    1.73      31.0  T
     SCC iter.                  ...        0 min,  0.023 sec
     gradient                   ...        0 min,  0.044 sec
 * total energy  :   -97.7792901 Eh     change       -0.3409332E-04 Eh
   gradient norm :     0.0008773 Eh/α   predicted    -0.1277149E-04 ( -62.54%)
   displ. norm   :     0.2306309 α      lambda       -0.2223410E-04
   maximum displ.:     0.1721781 α      in ANC's #2, #6, #7, ...

........................................................................
.............................. CYCLE   33 ..............................
........................................................................

 iter      E             dE          RMSdq      gap      omega  full diag
   1    -98.8933158 -0.988933E+02  0.439E-02    1.74       0.0  T
   2    -98.8933165 -0.712530E-06  0.260E-02    1.74       1.0  T
   3    -98.8933112  0.525232E-05  0.917E-03    1.74       1.5  T
   4    -98.8933172 -0.595982E-05  0.116E-03    1.74      11.5  T
   5    -98.8933172 -0.266082E-07  0.703E-04    1.74      19.0  T
   6    -98.8933172 -0.430097E-08  0.381E-04    1.74      35.0  T
     SCC iter.                  ...        0 min,  0.023 sec
     gradient                   ...        0 min,  0.044 sec
 * total energy  :   -97.7793201 Eh     change       -0.3002043E-04 Eh
   gradient norm :     0.0007448 Eh/α   predicted    -0.1138439E-04 ( -62.08%)
   displ. norm   :     0.1973122 α      lambda       -0.1780203E-04
   maximum displ.:     0.1515205 α      in ANC's #2, #6, #7, ...

........................................................................
.............................. CYCLE   34 ..............................
........................................................................

 iter      E             dE          RMSdq      gap      omega  full diag
   1    -98.8933977 -0.988934E+02  0.380E-02    1.74       0.0  T
   2    -98.8933981 -0.429945E-06  0.225E-02    1.74       1.0  T
   3    -98.8933951  0.298416E-05  0.695E-03    1.75       1.9  T
   4    -98.8933985 -0.339316E-05  0.959E-04    1.74      13.9  T
   5    -98.8933985 -0.159974E-07  0.587E-04    1.74      22.8  T
   6    -98.8933985 -0.236760E-08  0.297E-04    1.74      45.1  T
     SCC iter.                  ...        0 min,  0.032 sec
     gradient                   ...        0 min,  0.044 sec
 * total energy  :   -97.7793441 Eh     change       -0.2392700E-04 Eh
   gradient norm :     0.0008142 Eh/α   predicted    -0.9056799E-05 ( -62.15%)
   displ. norm   :     0.1433590 α      lambda       -0.1242708E-04
   maximum displ.:     0.1144809 α      in ANC's #2, #6, #7, ...

........................................................................
.............................. CYCLE   35 ..............................
........................................................................

 iter      E             dE          RMSdq      gap      omega  full diag
   1    -98.8936907 -0.988937E+02  0.271E-02    1.75       0.0  T
   2    -98.8936910 -0.269321E-06  0.161E-02    1.75       1.0  T
   3    -98.8936894  0.157448E-05  0.499E-03    1.75       2.7  T
   4    -98.8936912 -0.179286E-05  0.714E-04    1.75      18.7  T
   5    -98.8936912 -0.100325E-07  0.425E-04    1.75      31.4  T
   6    -98.8936912 -0.161663E-08  0.231E-04    1.75      57.8  T
     SCC iter.                  ...        0 min,  0.023 sec
     gradient                   ...        0 min,  0.046 sec
 * total energy  :   -97.7793611 Eh     change       -0.1700965E-04 Eh
   gradient norm :     0.0006864 Eh/α   predicted    -0.6273407E-05 ( -63.12%)
   displ. norm   :     0.1063986 α      lambda       -0.9108859E-05
   maximum displ.:     0.0879858 α      in ANC's #2, #6, #9, ...

........................................................................
.............................. CYCLE   36 ..............................
........................................................................

 iter      E             dE          RMSdq      gap      omega  full diag
   1    -98.8937235 -0.988937E+02  0.211E-02    1.75       0.0  T
   2    -98.8937237 -0.124238E-06  0.125E-02    1.75       1.1  T
   3    -98.8937227  0.973477E-06  0.388E-03    1.75       3.4  T
   4    -98.8937238 -0.109559E-05  0.498E-04    1.75      26.8  T
   5    -98.8937238 -0.402281E-08  0.298E-04    1.75      44.9  T
   6    -98.8937238 -0.382045E-09  0.149E-04    1.75      90.0  T
     SCC iter.                  ...        0 min,  0.023 sec
     gradient                   ...        0 min,  0.044 sec
 * total energy  :   -97.7793737 Eh     change       -0.1261123E-04 Eh
   gradient norm :     0.0006870 Eh/α   predicted    -0.4578184E-05 ( -63.70%)
   displ. norm   :     0.0761819 α      lambda       -0.7322013E-05
   maximum displ.:     0.0657420 α      in ANC's #2, #6, #5, ...

........................................................................
.............................. CYCLE   37 ..............................
........................................................................

 iter      E             dE          RMSdq      gap      omega  full diag
   1    -98.8938873 -0.988939E+02  0.150E-02    1.76       0.0  T
   2    -98.8938874 -0.106240E-06  0.888E-03    1.76       1.5  T
   3    -98.8938871  0.247695E-06  0.206E-03    1.76       6.5  T
   4    -98.8938874 -0.288696E-06  0.434E-04    1.76      30.8  T
   5    -98.8938874 -0.586294E-08  0.217E-04    1.76      61.5  T
     SCC iter.                  ...        0 min,  0.020 sec
     gradient                   ...        0 min,  0.045 sec
 * total energy  :   -97.7793839 Eh     change       -0.1018701E-04 Eh
   gradient norm :     0.0003830 Eh/α   predicted    -0.3673461E-05 ( -63.94%)
   displ. norm   :     0.0675171 α      lambda       -0.6621230E-05
   maximum displ.:     0.0588491 α      in ANC's #2, #6, #4, ...

........................................................................
.............................. CYCLE   38 ..............................
........................................................................

 iter      E             dE          RMSdq      gap      omega  full diag
   1    -98.8939218 -0.988939E+02  0.137E-02    1.76       0.0  T
   2    -98.8939219 -0.416034E-07  0.804E-03    1.76       1.7  T
   3    -98.8939217  0.134949E-06  0.150E-03    1.76       8.9  T
   4    -98.8939219 -0.159905E-06  0.314E-04    1.76      42.6  T
   5    -98.8939219 -0.151395E-08  0.177E-04    1.76      75.5  T
     SCC iter.                  ...        0 min,  0.019 sec
     gradient                   ...        0 min,  0.047 sec
 * total energy  :   -97.7793934 Eh     change       -0.9518322E-05 Eh
   gradient norm :     0.0003269 Eh/α   predicted    -0.3319362E-05 ( -65.13%)
   displ. norm   :     0.0652356 α      lambda       -0.6537160E-05
   maximum displ.:     0.0562263 α      in ANC's #2, #4, #6, ...

........................................................................
.............................. CYCLE   39 ..............................
........................................................................

 iter      E             dE          RMSdq      gap      omega  full diag
   1    -98.8939575 -0.988940E+02  0.129E-02    1.76       0.0  T
   2    -98.8939575 -0.412134E-07  0.759E-03    1.76       1.8  T
   3    -98.8939574  0.996922E-07  0.132E-03    1.76      10.1  T
   4    -98.8939575 -0.120806E-06  0.310E-04    1.76      43.1  T
   5    -98.8939575 -0.163868E-08  0.171E-04    1.76      78.0  T
     SCC iter.                  ...        0 min,  0.020 sec
     gradient                   ...        0 min,  0.044 sec
 * total energy  :   -97.7794027 Eh     change       -0.9329001E-05 Eh
   gradient norm :     0.0003425 Eh/α   predicted    -0.3276660E-05 ( -64.88%)
   displ. norm   :     0.0682508 α      lambda       -0.6597291E-05
   maximum displ.:     0.0579221 α      in ANC's #2, #4, #5, ...

........................................................................
.............................. CYCLE   40 ..............................
........................................................................

 iter      E             dE          RMSdq      gap      omega  full diag
   1    -98.8939393 -0.988939E+02  0.131E-02    1.76       0.0  T
   2    -98.8939394 -0.463051E-07  0.772E-03    1.76       1.7  T
   3    -98.8939393  0.458942E-07  0.107E-03    1.76      12.5  T
   4    -98.8939394 -0.643963E-07  0.324E-04    1.76      41.2  T
   5    -98.8939394 -0.177516E-08  0.170E-04    1.76      78.5  T
     SCC iter.                  ...        0 min,  0.035 sec
     gradient                   ...        0 min,  0.046 sec
 * total energy  :   -97.7794120 Eh     change       -0.9334262E-05 Eh
   gradient norm :     0.0003361 Eh/α   predicted    -0.3307281E-05 ( -64.57%)
   displ. norm   :     0.0694069 α      lambda       -0.6230676E-05
   maximum displ.:     0.0582823 α      in ANC's #2, #4, #1, ...

........................................................................
.............................. CYCLE   41 ..............................
........................................................................

 iter      E             dE          RMSdq      gap      omega  full diag
   1    -98.8939984 -0.988940E+02  0.123E-02    1.76       0.0  T
   2    -98.8939985 -0.529285E-07  0.722E-03    1.76       1.9  T
   3    -98.8939984  0.474009E-07  0.109E-03    1.76      12.3  T
   4    -98.8939985 -0.672906E-07  0.329E-04    1.76      40.7  T
   5    -98.8939985 -0.176857E-08  0.176E-04    1.76      75.9  T
     SCC iter.                  ...        0 min,  0.019 sec
     gradient                   ...        0 min,  0.047 sec
 * total energy  :   -97.7794208 Eh     change       -0.8771022E-05 Eh
   gradient norm :     0.0003629 Eh/α   predicted    -0.3123736E-05 ( -64.39%)
   displ. norm   :     0.0668669 α      lambda       -0.5518726E-05
   maximum displ.:     0.0559105 α      in ANC's #2, #4, #1, ...

........................................................................
.............................. CYCLE   42 ..............................
........................................................................

 iter      E             dE          RMSdq      gap      omega  full diag
   1    -98.8939439 -0.988939E+02  0.114E-02    1.76       0.0  T
   2    -98.8939440 -0.505589E-07  0.671E-03    1.77       2.0  T
   3    -98.8939439  0.351304E-07  0.998E-04    1.77      13.4  T
   4    -98.8939440 -0.524497E-07  0.320E-04    1.77      41.7  T
     SCC iter.                  ...        0 min,  0.016 sec
     gradient                   ...        0 min,  0.047 sec
 * total energy  :   -97.7794286 Eh     change       -0.7755477E-05 Eh
   gradient norm :     0.0003073 Eh/α   predicted    -0.2766486E-05 ( -64.33%)
   displ. norm   :     0.0601900 α      lambda       -0.4659653E-05
   maximum displ.:     0.0504602 α      in ANC's #2, #4, #1, ...
 * RMSD in coord.:     0.3411406 α      energy gain  -0.4080278E-03 Eh

generating ANC from exact Hessian ...
Using Lindh-Hessian (1995)
 Shifting diagonal of input Hessian by    9.6766068898584048E-003
 Lowest  eigenvalues of input Hessian
    0.000000    0.000000    0.000000    0.000000    0.000000    0.000000
    0.010000    0.010170    0.010762    0.010905    0.011394    0.011478
    0.012388    0.012943    0.014265    0.015155    0.015548    0.017359
 Highest eigenvalues
    2.027723    2.062109    2.072255    2.166096    2.180163    2.368138


........................................................................
.............................. CYCLE   43 ..............................
........................................................................

 iter      E             dE          RMSdq      gap      omega  full diag
   1    -98.8940300 -0.988940E+02  0.937E-03    1.77       0.0  T
   2    -98.8940300 -0.360252E-07  0.551E-03    1.77       2.4  T
   3    -98.8940300  0.137765E-07  0.741E-04    1.77      18.0  T
   4    -98.8940300 -0.250248E-07  0.282E-04    1.77      47.3  T
     SCC iter.                  ...        0 min,  0.018 sec
     gradient                   ...        0 min,  0.070 sec
 * total energy  :   -97.7794352 Eh     change       -0.6619566E-05 Eh
   gradient norm :     0.0003240 Eh/α   predicted     0.0000000E+00 (-100.00%)
   displ. norm   :     0.0194577 α      lambda       -0.8990118E-07
   maximum displ.:     0.0179548 α      in ANC's #2, #1, #7, ...

........................................................................
.............................. CYCLE   44 ..............................
........................................................................

 iter      E             dE          RMSdq      gap      omega  full diag
   1    -98.8939445 -0.988939E+02  0.229E-03    1.77       0.0  T
   2    -98.8939445 -0.393693E-08  0.137E-03    1.77       9.7  T
   3    -98.8939445  0.211571E-07  0.599E-04    1.77      22.3  T
   4    -98.8939445 -0.240292E-07  0.927E-05    1.77     144.1  T
     SCC iter.                  ...        0 min,  0.016 sec
     gradient                   ...        0 min,  0.080 sec
 * total energy  :   -97.7794379 Eh     change       -0.2682441E-05 Eh
   gradient norm :     0.0001837 Eh/α   predicted    -0.9579222E-06 ( -64.29%)
   displ. norm   :     0.0295066 α      lambda       -0.2594235E-05
   maximum displ.:     0.0246162 α      in ANC's #2, #1, #7, ...

   *** GEOMETRY OPTIMIZATION CONVERGED AFTER 44 ITERATIONS ***

------------------------------------------------------------------------
 total energy gain   :        -0.0288020 Eh      -18.0736 kcal/mol
 total RMSD          :         0.6436172 a0        0.3406 Å
 total power (kW/mol):        -1.7186312 (step)  -13.0236 (real)
------------------------------------------------------------------------

 ANCopt (total)                0 d,  0 h,  0 min,  5.806 sec
 optimizer setup                ...        0 min,  0.000 sec (  0.002%)
 model hessian                  ...        0 min,  0.202 sec (  3.485%)
 ANC generation                 ...        0 min,  0.008 sec (  0.141%)
 coordinate transformation      ...        0 min,  0.001 sec (  0.011%)
 single point calculation       ...        0 min,  5.532 sec ( 95.283%)
 optimization log               ...        0 min,  0.054 sec (  0.936%)
 hessian update                 ...        0 min,  0.001 sec (  0.016%)
 rational function              ...        0 min,  0.004 sec (  0.068%)

================
 final structure:
================
56
 xtb: 6.7.1 (edcfbbe)
O            5.13617735622128        2.69894512793843       -0.12468751596937
C            4.85838296973233        1.71615972588176        0.73389419079360
C            5.90735895016562        1.17446437655248        1.48170638619682
C            5.66000558158868        0.17567635714068        2.39291311732019
C            4.36797900561755       -0.29722958730659        2.60129590937535
C            3.31569073716025        0.20386064648577        1.86160582861136
C            3.55783675469890        1.19631751539215        0.89785189770109
C            2.47580493237771        1.66591894768739        0.03277566909933
C            1.32888388663199        0.80406478877385       -0.12182144013087
C            0.35398746979059        1.14707833963457       -1.01079878305165
O            0.37488608985553        2.26763863768240       -1.70982905167138
C           -0.80366203282001        0.23084544149497       -1.41430225591946
C           -2.09335168050799        1.06703520717554       -1.25098699399832
C           -2.91037436751990        0.76511697023119       -0.09558632947179
C           -3.77144279004860        1.77059185565613        0.55690272270069
N           -3.85620681353888        2.96398903576229       -0.03626374615621
O           -4.37982489651586        1.50022013653564        1.60019884699119
C           -2.96979200266392       -0.52930768625742        0.34755844837031
O           -3.64177636452912       -0.90938783954726        1.40250746787357
C           -2.26296595547330       -1.57981814736632       -0.46747035816680
N           -2.95220504901216       -1.71553561343511       -1.74904923174507
C           -4.35585217780582       -2.02762443968534       -1.55671879397380
C           -2.32440597792103       -2.69476012271177       -2.61568352632934
O           -2.32038462338946        1.95017112934652       -2.05866417277080
O           -0.62265710066053       -0.05173198482711       -2.78507067537601
C           -0.81554959694584       -1.07899543201190       -0.62223394868457
C           -0.19132565209541       -0.93048422343412        0.76429581367913
C            1.25842198937764       -0.46632447438726        0.68290035684434
C            1.86035321269407       -0.18486514106812        2.07885034818439
O            1.15093777363712        0.93754565782862        2.59563308689910
C            1.69818579732918       -1.37189073979875        3.02993497383683
O            2.59422746174799        2.73626733070879       -0.61098667533699
H            4.28589427219911        3.00281606942006       -0.52331490968111
H            6.89850804222181        1.57040098226963        1.32924933644920
H            6.47424240607973       -0.23700399480162        2.96952887373063
H            4.21162320359784       -1.06302334724931        3.34246282999385
H            1.21185997307210        2.75953525969533       -1.46484017283015
H           -3.39575917652101        3.11208530561643       -0.92475951129063
H           -4.44648044042871        3.67268526161242        0.36571851100356
H           -4.08248370600209       -0.07331163571376        1.78019952577808
H           -2.26861393542610       -2.53181194155203        0.09673754478599
H           -4.82984885292651       -2.11332393554224       -2.53233558042259
H           -4.50944083594501       -2.96698630083809       -1.00425227120425
H           -4.84458769547088       -1.22195301238773       -1.01167005078159
H           -2.94141545562485       -2.81176953208918       -3.50382963299974
H           -2.21431924732841       -3.67771464928568       -2.13292994058408
H           -1.35184721650651       -2.32883886363949       -2.93131915252179
H           -0.94339572289172        0.72393651592882       -3.27113005586600
H           -0.22910355644335       -1.80066686356203       -1.19478189621170
H           -0.74209458554974       -0.19901807123674        1.35712245158779
H           -0.24785429727246       -1.89811192987897        1.26303525620022
H            1.87132243637885       -1.24161537651072        0.20460500102639
H            1.51339376601589        1.15718044886719        3.46063108255763
H            2.14328159316494       -2.26892008761084        2.60916596690541
H            2.16739366133201       -1.15312029483516        3.98693105726266
H            0.64248248309652       -1.54540180275385        3.21640417137978

 Bond Distances (Angstroems)
 ---------------------------
O1-C2=1.3342         O1-H33=0.9870        C2-O1=1.3342         C2-C3=1.3975         C2-C7=1.4102         C3-C2=1.3975         
C3-C4=1.3744         C3-H34=1.0781        C4-C3=1.3744         C4-C5=1.3915         C4-H35=1.0797        C5-C4=1.3915         
C5-C6=1.3804         C5-H36=1.0771        C6-C5=1.3804         C6-C7=1.4044         C6-C29=1.5219        C7-C2=1.4102         
C7-C6=1.4044         C7-C8=1.4628         C8-C7=1.4628         C8-C9=1.4430         C8-O32=1.2546        C9-C8=1.4430         
C9-C10=1.3632        C9-C28=1.5055        C10-C9=1.3632        C10-O11=1.3209       C10-C12=1.5305       O11-C10=1.3209       
O11-H37=1.0013       C12-C10=1.5305       C12-C13=1.5457       C12-O25=1.4112       C12-C26=1.5308       C13-C12=1.5457       
C13-C14=1.4469       C13-O24=1.2181       C14-C13=1.4469       C14-C15=1.4759       C14-C18=1.3695       C15-C14=1.4759       
C15-N16=1.3354       C15-O17=1.2376       N16-C15=1.3354       N16-H38=1.0116       N16-H39=1.0061       O17-C15=1.2376       
C18-C14=1.3695       C18-O19=1.3073       C18-C20=1.5058       O19-C18=1.3073       O19-H40=1.0178       C20-C18=1.5058       
C20-N21=1.4615       C20-C26=1.5394       C20-H41=1.1066       N21-C20=1.4615       N21-C22=1.4507       N21-C23=1.4505       
C22-N21=1.4507       C22-H42=1.0880       C22-H43=1.1005       C22-H44=1.0886       C23-N21=1.4505       C23-H45=1.0877       
C23-H46=1.1006       C23-H47=1.0860       O24-C13=1.2181       O25-C12=1.4112       O25-H48=0.9699       C26-C12=1.5308       
C26-C20=1.5394       C26-C27=1.5278       C26-H49=1.0920       C27-C26=1.5278       C27-C28=1.5244       C27-H50=1.0908       
C27-H51=1.0901       C28-C9=1.5055        C28-C27=1.5244       C28-C29=1.5460       C28-H52=1.0979       C29-C6=1.5219        
C29-C28=1.5460       C29-O30=1.4248       C29-C31=1.5297       O30-C29=1.4248       O30-H53=0.9632       C31-C29=1.5297       
C31-H54=1.0862       C31-H55=1.0881       C31-H56=1.0860       O32-C8=1.2546        H33-O1=0.9870        H34-C3=1.0781        
H35-C4=1.0797        H36-C5=1.0771        H37-O11=1.0013       H38-N16=1.0116       H39-N16=1.0061       H40-O19=1.0178       
H41-C20=1.1066       H42-C22=1.0880       H43-C22=1.1005       H44-C22=1.0886       H45-C23=1.0877       H46-C23=1.1006       
H47-C23=1.0860       H48-O25=0.9699       H49-C26=1.0920       H50-C27=1.0908       H51-C27=1.0901       H52-C28=1.0979       
H53-O30=0.9632       H54-C31=1.0862       H55-C31=1.0881       H56-C31=1.0860       
 C  H  Rav=1.0897 sigma=0.0078  Rmin=1.0771  Rmax=1.1066    17
 C  C  Rav=1.4664 sigma=0.0652  Rmin=1.3632  Rmax=1.5460    23
 N  H  Rav=1.0089 sigma=0.0028  Rmin=1.0061  Rmax=1.0116     2
 N  C  Rav=1.4245 sigma=0.0517  Rmin=1.3354  Rmax=1.4615     4
 O  H  Rav=0.9879 sigma=0.0200  Rmin=0.9632  Rmax=1.0178     5
 O  C  Rav=1.3136 sigma=0.0714  Rmin=1.2181  Rmax=1.4248     8

 selected bond angles (degree)
 --------------------
H33-O1-C2=107.90               C3-C2-O1=118.27                C7-C2-O1=122.57                C7-C2-C3=119.15                
C4-C3-C2=120.09                H34-C3-C2=118.17               H34-C3-C4=121.74               C5-C4-C3=120.89                
H35-C4-C3=119.74               H35-C4-C5=119.36               C6-C5-C4=120.28                H36-C5-C4=118.65               
H36-C5-C6=121.07               C7-C6-C5=119.52                C29-C6-C5=124.04               C29-C6-C7=116.32               
C6-C7-C2=119.95                C8-C7-C2=119.68                C8-C7-C6=120.34                C9-C8-C7=117.36                
O32-C8-C7=120.50               O32-C8-C9=121.98               C10-C9-C8=119.21               C28-C9-C8=118.94               
C28-C9-C10=121.83              O11-C10-C9=123.18              C12-C10-C9=124.21              C12-C10-O11=112.35             

 selected dihedral angles (degree)
 ---------------------------------
C3-C2-O1-H33=183.54           C7-C2-O1-H33=  4.47           C4-C3-C2-O1=178.94            C4-C3-C2-C7=358.04            
H34-C3-C2-O1=359.68           H34-C3-C2-C7=178.79           C5-C4-C3-C2=359.02            C5-C4-C3-H34=178.25           
H35-C4-C3-C2=180.16           H35-C4-C3-H34=359.39          C6-C5-C4-C3=  2.03            C6-C5-C4-H35=180.90           
H36-C5-C4-C3=181.57           H36-C5-C4-H35=  0.43          C7-C6-C5-C4=359.91            C7-C6-C5-H36=180.39           
C29-C6-C5-C4=184.09           C29-C6-C5-H36=  4.56          C6-C7-C2-O1=182.93            C6-C7-C2-C3=  3.87            
C8-C7-C2-O1=  4.82            C8-C7-C2-C3=185.75            C2-C7-C6-C5=357.15            C2-C7-C6-C29=173.29           
C8-C7-C6-C5=175.25            C8-C7-C6-C29=351.39           C9-C8-C7-C2=157.57            C9-C8-C7-C6=339.46            
O32-C8-C7-C2=342.12           O32-C8-C7-C6=164.02           C10-C9-C8-C7=185.85           C10-C9-C8-O32=  1.22          
C28-C9-C8-C7=  4.50           C28-C9-C8-O32=179.87          O11-C10-C9-C8=357.16          O11-C10-C9-C28=178.55         
C12-C10-C9-C8=170.85          C12-C10-C9-C28=352.24         
           -------------------------------------------------
          |                Final Singlepoint                |
           -------------------------------------------------

          ...................................................
          :                      SETUP                      :
          :.................................................:
          :  # basis functions                 152          :
          :  # atomic orbitals                 152          :
          :  # shells                           88          :
          :  # electrons                       170          :
          :  max. iterations                   250          :
          :  Hamiltonian                  GFN2-xTB          :
          :  restarted?                      false          :
          :  GBSA solvation                  false          :
          :  PC potential                    false          :
          :  electronic temp.          300.0000000     K    :
          :  accuracy                    1.0000000          :
          :  -> integral cutoff          0.2500000E+02      :
          :  -> integral neglect         0.1000000E-07      :
          :  -> SCF convergence          0.1000000E-05 Eh   :
          :  -> wf. convergence          0.1000000E-03 e    :
          :  Broyden damping             0.4000000          :
          :  net charge                          0          :
          :  unpaired electrons                  0          :
          ...................................................

 iter      E             dE          RMSdq      gap      omega  full diag
   1    -98.8939445 -0.988939E+02  0.398E-05    1.77       0.0  T
   2    -98.8939445 -0.630962E-11  0.249E-05    1.77     535.9  T
   3    -98.8939445  0.413536E-11  0.156E-05    1.77     859.0  T

   *** convergence criteria satisfied after 3 iterations ***

         #    Occupation            Energy/Eh            Energy/eV
      -------------------------------------------------------------
         1        2.0000           -0.7399388             -20.1348
       ...           ...                  ...                  ...
        79        2.0000           -0.4151219             -11.2960
        80        2.0000           -0.4106578             -11.1746
        81        2.0000           -0.4025322             -10.9535
        82        2.0000           -0.3983336             -10.8392
        83        2.0000           -0.3912313             -10.6459
        84        2.0000           -0.3832883             -10.4298
        85        2.0000           -0.3626049              -9.8670 (HOMO)
        86                         -0.2977131              -8.1012 (LUMO)
        87                         -0.2852866              -7.7630
        88                         -0.2481053              -6.7513
        89                         -0.2351721              -6.3994
        90                         -0.2255881              -6.1386
       ...                                ...                  ...
       152                          0.6638745              18.0649
      -------------------------------------------------------------
                  HL-Gap            0.0648918 Eh            1.7658 eV
             Fermi-level           -0.3301590 Eh           -8.9841 eV

 SCC (total)                   0 d,  0 h,  0 min,  0.077 sec
 SCC setup                      ...        0 min,  0.001 sec (  0.673%)
 Dispersion                     ...        0 min,  0.001 sec (  0.705%)
 classical contributions        ...        0 min,  0.000 sec (  0.322%)
 integral evaluation            ...        0 min,  0.013 sec ( 16.962%)
 iterations                     ...        0 min,  0.012 sec ( 14.935%)
 molecular gradient             ...        0 min,  0.051 sec ( 66.056%)
 printout                       ...        0 min,  0.000 sec (  0.337%)

         :::::::::::::::::::::::::::::::::::::::::::::::::::::
         ::                     SUMMARY                     ::
         :::::::::::::::::::::::::::::::::::::::::::::::::::::
         :: total energy             -97.779437876286 Eh    ::
         :: gradient norm              0.000182517374 Eh/a0 ::
         :: HOMO-LUMO gap              1.765794736891 eV    ::
         ::.................................................::
         :: SCC energy               -98.892311534689 Eh    ::
         :: -> isotropic ES            0.199806501595 Eh    ::
         :: -> anisotropic ES         -0.000731967850 Eh    ::
         :: -> anisotropic XC          0.014179072861 Eh    ::
         :: -> dispersion             -0.072294539760 Eh    ::
         :: repulsion energy           1.112873658403 Eh    ::
         :: add. restraining           0.000000000000 Eh    ::
         :: total charge              -0.000000000000 e     ::
         :::::::::::::::::::::::::::::::::::::::::::::::::::::

           -------------------------------------------------
          |                Property Printout                |
           -------------------------------------------------

    * Orbital Energies and Occupations

         #    Occupation            Energy/Eh            Energy/eV
      -------------------------------------------------------------
         1        2.0000           -0.7399388             -20.1348
       ...           ...                  ...                  ...
        73        2.0000           -0.4508194             -12.2674
        74        2.0000           -0.4436162             -12.0714
        75        2.0000           -0.4324983             -11.7689
        76        2.0000           -0.4305378             -11.7155
        77        2.0000           -0.4230899             -11.5129
        78        2.0000           -0.4179753             -11.3737
        79        2.0000           -0.4151219             -11.2960
        80        2.0000           -0.4106578             -11.1746
        81        2.0000           -0.4025322             -10.9535
        82        2.0000           -0.3983336             -10.8392
        83        2.0000           -0.3912313             -10.6459
        84        2.0000           -0.3832883             -10.4298
        85        2.0000           -0.3626049              -9.8670 (HOMO)
[...]
     DOI: 10.1063/5.0137838
   
   with help from (in alphabetical order)
   P. Atkinson, C. Bannwarth, F. Bohle, G. Brandenburg, E. Caldeweyher
   M. Checinski, S. Dohm, S. Ehlert, S. Ehrlich, I. Gerasimov, C. Hölzer
   A. Katbashev, J. Kohn, J. Koopman, C. Lavigne, S. Lehtola, F. März, M. Müller,
   F. Musil, H. Neugebauer, J. Pisarek, C. Plett, P. Pracht, F. Pultar,
   J. Seibert, P. Shushkov, S. Spicher, M. Stahn, M. Steiner, T. Strunk,
   J. Stückrath, T. Rose, and J. Unsleber
   
 * started run on 2025/05/15 at 16:14:04.335     
   ID    Z sym.   atoms
    1    8 O      1, 11, 17, 19, 24, 25, 30, 32
    2    6 C      2-10, 12-15, 18, 20, 22, 23, 26-29, 31
    3    7 N      16, 21
    4    1 H      33-56

           -------------------------------------------------
          |                Calculation Setup                |
           -------------------------------------------------

          program call               : xtb /rds/general/user/hgt20/home/callum/QDESCP/Tetracycline_rdkit_conf_4/Tetracycline_rdkit_conf_4.xyz --acc 1 --gfn 2 --chrg 0 --uhf 2 --etemp 300 --input /rds/general/user/hgt20/home/callum/QDESCP/Tetracycline_rdkit_conf_4/Tetracycline_rdkit_conf_4_xtb.inp -P 1
          hostname                   : login-c
          coordinate file            : /rds/general/user/hgt20/home/callum/QDESCP/Tetracycline_rdkit_conf_4/Tetracycline_rdkit_conf_4.xyz
          omp threads                :                     1


           -------------------------------------------------
          |                 G F N 2 - x T B                 |
           -------------------------------------------------

        Reference                      10.1021/acs.jctc.8b01176
      * Hamiltonian:
        H0-scaling (s, p, d)           1.850000    2.230000    2.230000
        zeta-weighting                 0.500000
      * Dispersion:
        s8                             2.700000
        a1                             0.520000
        a2                             5.000000
        s9                             5.000000
      * Repulsion:
        kExp                           1.500000    1.000000
        rExp                           1.000000
      * Coulomb:
        alpha                          2.000000
        third order                    shell-resolved
        anisotropic                    true
        a3                             3.000000
        a5                             4.000000
        cn-shift                       1.200000
        cn-exp                         4.000000
        max-rad                        5.000000


          ...................................................
          :                      SETUP                      :
          :.................................................:
          :  # basis functions                 152          :
          :  # atomic orbitals                 152          :
          :  # shells                           88          :
          :  # electrons                       170          :
          :  max. iterations                   250          :
          :  Hamiltonian                  GFN2-xTB          :
          :  restarted?                      false          :
          :  GBSA solvation                  false          :
          :  PC potential                    false          :
          :  electronic temp.          300.0000000     K    :
          :  accuracy                    1.0000000          :
          :  -> integral cutoff          0.2500000E+02      :
          :  -> integral neglect         0.1000000E-07      :
          :  -> SCF convergence          0.1000000E-05 Eh   :
          :  -> wf. convergence          0.1000000E-03 e    :
          :  Broyden damping             0.4000000          :
          :  net charge                          0          :
          :  unpaired electrons                  2          :
          ...................................................

 iter      E             dE          RMSdq      gap      omega  full diag
   1    -98.4216313 -0.984216E+02  0.420E+00    0.66       0.0  T
   2    -98.3504218  0.712094E-01  0.303E+00    1.54       1.0  T
   3    -98.5161896 -0.165768E+00  0.218E+00    1.85       1.0  T
   4    -98.6209746 -0.104785E+00  0.143E+00    0.67       1.0  T
   5    -98.5495268  0.714478E-01  0.148E+00    1.15       1.0  T
   6    -98.7618166 -0.212290E+00  0.701E-01    0.42       1.0  T
   7    -98.8011958 -0.393792E-01  0.325E-01    0.24       1.0  T
   8    -98.7904862  0.107096E-01  0.388E-01    0.33       1.0  T
   9    -98.7936171 -0.313096E-02  0.383E-01    0.22       1.0  T
  10    -98.7956810 -0.206380E-02  0.261E-01    0.23       1.0  T
  11    -98.8032416 -0.756060E-02  0.155E-01    0.28       1.0  T
  12    -98.8046162 -0.137463E-02  0.141E-01    0.24       1.0  T
  13    -98.8064410 -0.182481E-02  0.153E-02    0.24       1.0  T
  14    -98.8063480  0.930269E-04  0.260E-02    0.24       1.0  T
  15    -98.8064448 -0.968615E-04  0.103E-02    0.24       1.3  T
  16    -98.8064608 -0.159675E-04  0.245E-03    0.24       5.5  T
  17    -98.8064610 -0.168743E-06  0.145E-03    0.24       9.2  T
  18    -98.8064612 -0.205918E-06  0.799E-04    0.24      16.7  T
  19    -98.8064612 -0.415472E-07  0.206E-04    0.24      65.0  T

   *** convergence criteria satisfied after 19 iterations ***

         #    Occupation            Energy/Eh            Energy/eV
      -------------------------------------------------------------
         1        2.0000           -0.7338524             -19.9691
       ...           ...                  ...                  ...
        80        2.0000           -0.4068984             -11.0723
        81        2.0000           -0.3997323             -10.8773
        82        2.0000           -0.3921502             -10.6709
        83        1.9778           -0.3846092             -10.4657
        84        1.8598           -0.3827376             -10.4148
        85        1.1625           -0.3794568             -10.3255
        86        0.9900           -0.2872145              -7.8155 (HOMO)
        87        0.0100           -0.2784743              -7.5777 (LUMO)
        88                         -0.2443000              -6.6477
        89                         -0.2266447              -6.1673
        90                         -0.2169892              -5.9046
        91                         -0.1583173              -4.3080
       ...                                ...                  ...
       152                          0.6732554              18.3202
      -------------------------------------------------------------
                  HL-Gap            0.0087402 Eh            0.2378 eV
             Fermi-level           -0.3319296 Eh           -9.0323 eV

 transition dipole moment (au) for excitation:          85          86
     X       Y       Z   
   0.8833  -0.0004   0.3200  total (au/Debye):    0.940   2.388
 dE (eV)             :    2.510
 oscillator strength :  0.76764E-01

 SCC (total)                   0 d,  0 h,  0 min,  0.177 sec
 SCC setup                      ...        0 min,  0.001 sec (  0.334%)
 Dispersion                     ...        0 min,  0.001 sec (  0.491%)
 classical contributions        ...        0 min,  0.000 sec (  0.142%)
 integral evaluation            ...        0 min,  0.043 sec ( 24.133%)
 iterations                     ...        0 min,  0.073 sec ( 41.263%)
 molecular gradient             ...        0 min,  0.047 sec ( 26.339%)
 printout                       ...        0 min,  0.013 sec (  7.290%)

         :::::::::::::::::::::::::::::::::::::::::::::::::::::
         ::                     SUMMARY                     ::
         :::::::::::::::::::::::::::::::::::::::::::::::::::::
         :: total energy             -97.691954570742 Eh    ::
         :: gradient norm              0.060802528376 Eh/a0 ::
         :: HOMO-LUMO gap              0.237831732173 eV    ::
         ::.................................................::
         :: SCC energy               -98.804828229146 Eh    ::
         :: -> isotropic ES            0.195450638467 Eh    ::
         :: -> anisotropic ES         -0.000177223410 Eh    ::
         :: -> anisotropic XC          0.011173166708 Eh    ::
         :: -> dispersion             -0.072163696215 Eh    ::
         :: repulsion energy           1.112873658403 Eh    ::
         :: add. restraining           0.000000000000 Eh    ::
         :: total charge               0.000000000587 e     ::
         :::::::::::::::::::::::::::::::::::::::::::::::::::::

           -------------------------------------------------
          |                Property Printout                |
           -------------------------------------------------

    * Orbital Energies and Occupations

         #    Occupation            Energy/Eh            Energy/eV
      -------------------------------------------------------------
         1        2.0000           -0.7338524             -19.9691
       ...           ...                  ...                  ...
        74        2.0000           -0.4421686             -12.0320
        75        2.0000           -0.4341255             -11.8132
        76        2.0000           -0.4295748             -11.6893
        77        2.0000           -0.4180609             -11.3760
        78        2.0000           -0.4135039             -11.2520
        79        2.0000           -0.4107338             -11.1766
        80        2.0000           -0.4068984             -11.0723
        81        2.0000           -0.3997323             -10.8773
        82        2.0000           -0.3921502             -10.6709
        83        1.9778           -0.3846092             -10.4657
        84        1.8598           -0.3827376             -10.4148
        85        1.1625           -0.3794568             -10.3255
        86        0.9900           -0.2872145              -7.8155 (HOMO)
        87        0.0100           -0.2784743              -7.5777 (LUMO)
        88                         -0.2443000              -6.6477
        89                         -0.2266447              -6.1673
        90                         -0.2169892              -5.9046
        91                         -0.1583173              -4.3080
        92                         -0.1449046              -3.9431
        93                         -0.0874472              -2.3796
        94                         -0.0123547              -0.3362
        95                          0.0135591               0.3690
        96                          0.0213031               0.5797
        97                          0.0288917               0.7862
       ...                                ...                  ...
       152                          0.6732554              18.3202
      -------------------------------------------------------------
                  HL-Gap            0.0087402 Eh            0.2378 eV
             Fermi-level           -0.3319296 Eh           -9.0323 eV

     #   Z          covCN         q      C6AA      α(0)
     1   8 O        1.658    -0.379    20.455     6.105
     2   6 C        2.846     0.159    24.560     8.122
     3   6 C        2.916    -0.059    29.457     8.900
     4   6 C        2.918    -0.038    28.937     8.821
     5   6 C        2.919    -0.053    29.307     8.878
     6   6 C        2.976    -0.023    28.571     8.768
     7   6 C        2.978    -0.045    29.118     8.851
     8   6 C        2.838     0.186    24.030     8.033
     9   6 C        2.958    -0.053    29.312     8.880
    10   6 C        2.836     0.133    25.082     8.207
    11   8 O        1.655    -0.360    20.095     6.051
    12   6 C        3.783     0.131    18.473     6.123
    13   6 C        2.830     0.203    23.688     7.975
    14   6 C        2.957    -0.120    31.051     9.140
    15   6 C        2.754     0.285    22.172     7.711
    16   7 N        2.640    -0.257    26.669     7.670
    17   8 O        0.861    -0.475    23.227     6.462
    18   6 C        2.851     0.160    24.539     8.119
    19   8 O        1.651    -0.362    20.125     6.056
    20   6 C        3.823     0.032    20.019     6.367
    21   7 N        2.728    -0.130    23.821     7.249
    22   6 C        3.716    -0.042    21.451     6.617
    23   6 C        3.713    -0.050    21.606     6.642
    24   8 O        0.857    -0.387    21.415     6.204
    25   8 O        1.656    -0.420    21.250     6.223
    26   6 C        3.867    -0.038    21.201     6.548
    27   6 C        3.813    -0.072    21.866     6.656
    28   6 C        3.866    -0.017    20.832     6.490
    29   6 C        3.786     0.145    18.254     6.086
    30   8 O        1.655    -0.446    21.767     6.298
    31   6 C        3.753    -0.125    22.958     6.832
    32   8 O        0.859    -0.466    23.035     6.435
    33   1 H        0.802     0.346     0.599     1.216
    34   1 H        0.926     0.057     2.236     2.338
    35   1 H        0.926     0.041     2.429     2.437
    36   1 H        0.926     0.038     2.475     2.460
    37   1 H        0.800     0.358     0.570     1.186
    38   1 H        0.860     0.227     0.979     1.550
    39   1 H        0.860     0.198     1.117     1.656
    40   1 H        0.796     0.369     0.546     1.162
    41   1 H        0.922     0.045     2.389     2.417
    42   1 H        0.925     0.055     2.260     2.351
    43   1 H        0.923     0.037     2.493     2.469
    44   1 H        0.925     0.052     2.300     2.372
    45   1 H        0.925     0.056     2.248     2.345
    46   1 H        0.923     0.030     2.587     2.515
    47   1 H        0.925     0.074     2.042     2.235
    48   1 H        0.804     0.332     0.633     1.250
    49   1 H        0.924     0.071     2.075     2.253
    50   1 H        0.924     0.063     2.169     2.303
    51   1 H        0.925     0.051     2.307     2.375
    52   1 H        0.923     0.043     2.414     2.430
    53   1 H        0.805     0.294     0.739     1.351
    54   1 H        0.925     0.044     2.390     2.418
    55   1 H        0.925     0.047     2.362     2.403
    56   1 H        0.925     0.055     2.258     2.350

 Mol. C6AA /au·bohr⁶  :      34856.987257
 Mol. C8AA /au·bohr⁸  :     817757.758429
 Mol. α(0) /au        :        283.359364


Wiberg/Mayer (AO) data.
largest (>0.10) Wiberg bond orders for each atom

 ---------------------------------------------------------------------------
     #   Z sym  total        # sym  WBO       # sym  WBO       # sym  WBO
 ---------------------------------------------------------------------------
     1   8 O    2.148 --     2 C    1.144    33 H    0.796
     2   6 C    3.902 --     3 C    1.341     7 C    1.254     1 O    1.144
     3   6 C    3.955 --     4 C    1.452     2 C    1.341    34 H    0.963
     4   6 C    3.936 --     3 C    1.452     5 C    1.382    35 H    0.965
     5   6 C    3.970 --     6 C    1.450     4 C    1.382    36 H    0.964
     6   6 C    3.941 --     5 C    1.450     7 C    1.305    29 C    0.960
     7   6 C    3.918 --     6 C    1.305     2 C    1.254     8 C    1.075
     8   6 C    3.860 --    32 O    1.421     9 C    1.137     7 C    1.075
     9   6 C    3.913 --    10 C    1.459     8 C    1.137    28 C    1.005
    10   6 C    3.877 --     9 C    1.459    11 O    1.183    12 C    0.913
    11   8 O    2.183 --    10 C    1.183    37 H    0.752
    12   6 C    3.925 --    25 O    0.997    26 C    0.979    10 C    0.913
                            13 C    0.875
    13   6 C    3.887 --    24 O    1.668    14 C    1.111    12 C    0.875
    14   6 C    3.924 --    18 C    1.463    13 C    1.111    15 C    1.032
                            19 O    0.103
    15   6 C    3.945 --    17 O    1.541    16 N    1.311    14 C    1.032
    16   7 N    3.413 --    15 C    1.311    39 H    0.939    38 H    0.906
                            17 O    0.177
    17   8 O    1.993 --    15 C    1.541    16 N    0.177    40 H    0.106
    18   6 C    3.861 --    14 C    1.463    19 O    1.229    20 C    0.982
    19   8 O    2.205 --    18 C    1.229    40 H    0.736    14 C    0.103
    20   6 C    3.971 --    21 N    0.983    18 C    0.982    26 C    0.958
                            41 H    0.945
    21   7 N    3.090 --    22 C    1.012    23 C    1.011    20 C    0.983
    22   6 C    3.972 --    21 N    1.012    42 H    0.980    44 H    0.976
                            43 H    0.967
    23   6 C    3.968 --    21 N    1.011    45 H    0.979    47 H    0.971
                            46 H    0.967
    24   8 O    2.053 --    13 C    1.668
    25   8 O    2.001 --    12 C    0.997    48 H    0.863
    26   6 C    3.986 --    27 C    0.993    12 C    0.979    20 C    0.958
                            49 H    0.954
    27   6 C    3.989 --    26 C    0.993    28 C    0.991    51 H    0.970
                            50 H    0.968
    28   6 C    3.991 --     9 C    1.005    27 C    0.991    52 H    0.950
                            29 C    0.942
    29   6 C    3.937 --    31 C    0.994    30 O    0.969     6 C    0.960
                            28 C    0.942
    30   8 O    1.968 --    29 C    0.969    53 H    0.896
    31   6 C    3.993 --    29 C    0.994    54 H    0.985    56 H    0.979
                            55 H    0.978
    32   8 O    1.981 --     8 C    1.421
    33   1 H    0.880 --     1 O    0.796
    34   1 H    0.992 --     3 C    0.963
    35   1 H    0.991 --     4 C    0.965
    36   1 H    0.997 --     5 C    0.964
    37   1 H    0.871 --    11 O    0.752
    38   1 H    0.948 --    16 N    0.906
    39   1 H    0.958 --    16 N    0.939
    40   1 H    0.863 --    19 O    0.736    17 O    0.106
    41   1 H    0.984 --    20 C    0.945
    42   1 H    0.995 --    22 C    0.980
    43   1 H    0.983 --    22 C    0.967
    44   1 H    0.995 --    22 C    0.976
    45   1 H    0.995 --    23 C    0.979
    46   1 H    0.984 --    23 C    0.967
    47   1 H    0.992 --    23 C    0.971
    48   1 H    0.890 --    25 O    0.863
    49   1 H    0.993 --    26 C    0.954
    50   1 H    0.996 --    27 C    0.968
    51   1 H    0.997 --    27 C    0.970
    52   1 H    0.996 --    28 C    0.950
    53   1 H    0.913 --    30 O    0.896
    54   1 H    0.998 --    31 C    0.985
    55   1 H    0.996 --    31 C    0.978
    56   1 H    0.996 --    31 C    0.979
 ---------------------------------------------------------------------------

Topologies differ in total number of bonds
Writing topology from bond orders to xtbtopo.mol

molecular dipole:
                 x           y           z       tot (Debye)
 q only:       -0.535      -1.753       0.182
   full:       -0.539      -1.864       0.489       5.085
molecular quadrupole (traceless):
                xx          xy          yy          xz          yz          zz
 q only:       -6.353      -6.520       3.779      16.904       2.633       2.574
  q+dip:       -7.053      -8.814       6.476      20.937       2.746       0.576
   full:       -8.049      -8.695       6.107      20.781       5.244       1.942


           -------------------------------------------------
          | TOTAL ENERGY              -97.691954570742 Eh   |
          | GRADIENT NORM               0.060802528376 Eh/α |
          | HOMO-LUMO GAP               0.237831732173 eV   |
           -------------------------------------------------

------------------------------------------------------------------------
 * finished run on 2025/05/15 at 16:14:04.532     
------------------------------------------------------------------------
 total:
 * wall-time:     0 d,  0 h,  0 min,  0.197 sec
 *  cpu-time:     0 d,  0 h,  0 min,  0.166 sec
 * ratio c/w:     0.844 speedup
 SCF:
 * wall-time:     0 d,  0 h,  0 min,  0.178 sec
 *  cpu-time:     0 d,  0 h,  0 min,  0.148 sec
 * ratio c/w:     0.833 speedup


