42
 energy: -71.307375719244 gnorm: 0.000719070169 xtb: 6.7.1 (edcfbbe)
O            5.89020570090510       -1.39260989369290       -0.89960547596510
C            4.92717250385353       -2.10236225791017       -0.69826736410154
O            5.00831872457158       -3.42948845833664       -0.72224593115599
C            3.57767707240740       -1.57651921722451       -0.42518928739899
C            3.41810247526455       -0.23191075058346       -0.57408697057041
N            2.26699127298557        0.43363699204755       -0.38023711520329
C            1.11559852397530       -0.27418724698237       -0.06555285134275
C           -0.11187787464596        0.36765110002815        0.05374984650134
C           -1.29524713187111       -0.30872489306631        0.37450229494422
N           -2.46486572905898        0.39254772449758        0.50841908239232
C           -3.63492197258217       -0.11486755922086        1.19670115975070
C           -4.68618182937890       -0.62093970686450        0.19650714595196
N           -5.05493257205328        0.40774118012989       -0.75971262736028
C           -3.87909135306977        0.95244844912883       -1.40536080849338
C           -2.82026210823084        1.45998447825534       -0.40369418832257
C           -1.16371124604622       -1.69938936647723        0.58378938607209
F           -2.25094535933956       -2.46506213698831        0.86321532432204
C            0.03698589798931       -2.34677262131061        0.47406382790387
C            1.20511333662629       -1.66038949869581        0.14034445635357
C            2.46172603400873       -2.41801057756981        0.00690037301616
O            2.52522431414946       -3.61027069726454        0.24674444151298
C            2.23812389494504        1.85815696396365       -0.53628636856462
C            3.34693180030725        2.68026027447191        0.04820685024599
C            1.98550660625074        2.72167850028656        0.66759863021949
H            5.92167718260007       -3.70548337940233       -0.89486405190601
H            4.27280600278557        0.35792747172601       -0.87782135529632
H           -0.15519324207446        1.43453453272195       -0.08110648054061
H           -4.05954980236063        0.72533031927945        1.76422136839826
H           -3.35898638173097       -0.88967419774018        1.90664209143928
H           -5.58149932806148       -0.95156905604074        0.72449718571924
H           -4.28010736253390       -1.46783588795316       -0.36246703739003
H           -5.56262165933119        1.14992171627353       -0.28552636426545
H           -4.18349127634851        1.76480351643228       -2.06824095600749
H           -3.43654073893332        0.15478288515499       -2.01052954772018
H           -3.23116855134300        2.29590454314603        0.17698587741927
H           -1.94812747455701        1.80933240477302       -0.95192204390072
H            0.09346153959492       -3.41392098618209        0.62450137103568
H            1.81849552041961        2.17657309784458       -1.48661611407891
H            3.69058655156691        3.53504451632158       -0.51317413826116
H            4.12849386549029        2.17102752826610        0.58975080353593
H            1.38032557604816        3.60711244230292        0.54712797259926
H            1.84999859680506        2.22358775245815        1.61523758851103
