39
 energy: -51.134087175091 gnorm: 0.000170883865 xtb: 6.7.1 (edcfbbe)
C           -1.16913107297908       -1.88706443015448       -1.37987894028222
C           -2.30162598966733       -1.17940626888909       -0.69586051973633
C           -3.59931935660791       -1.64968695697297       -0.81348731051407
C           -4.64379839506130       -1.00479279659524       -0.17554819551650
C           -4.39628195790934        0.13466971771393        0.56436464006316
C           -3.11093090403862        0.64659540439009        0.69203920652895
C           -2.88217678645091        1.91511243192593        1.44929149127214
C           -2.05885607363785       -0.03733789424495        0.07666519404728
N           -0.73293173159779        0.43177026229947        0.17725425981672
C           -0.03708789763489        0.70413797753789        1.30489213395429
C            1.38850243001978        1.16492759945152        0.98392271893218
N            1.93845413444917        0.41514429740151       -0.13326649947633
C            2.34781810485955       -0.91379905385384        0.30683032879419
C            2.71500695062493       -1.83788917783336       -0.84774179912378
C            2.93668507302763        1.14938706452084       -0.89483351824290
C            4.23760142859462        1.48905020934660       -0.16194812155002
O           -0.46184320906796        0.63238693918531        2.43730266626083
H           -1.52534640705277       -2.79428402660273       -1.86104055460574
H           -0.71955497731562       -1.25140639032094       -2.14470015367515
H           -0.39525180603827       -2.15577570952700       -0.66272328346895
H           -3.79114520838459       -2.53397351527363       -1.40395776214034
H           -5.65005108000427       -1.38608827045949       -0.26477806096948
H           -5.21439650839120        0.64949962877129        1.04665581154260
H           -2.22779397389340        2.58248326858030        0.88939734266863
H           -2.39382663125817        1.70147190369127        2.39966522108853
H           -3.82510629069026        2.42022049334579        1.64220513068559
H           -0.14799213200358        0.34407266271540       -0.64738888802978
H            1.98662078155551        1.08404036502145        1.90358294527014
H            1.32727243640386        2.22233004565183        0.71012037580805
H            3.18536477438276       -0.86648638249842        1.02165928193203
H            1.49300103652035       -1.33556114566648        0.84499886858495
H            3.67870234315329       -1.57618967892485       -1.27673821523681
H            2.77470738302160       -2.86116182277491       -0.48527185841259
H            1.96039531249267       -1.78963024157304       -1.62856239413841
H            2.46073032581327        2.07765461464429       -1.22658330217517
H            3.16616539034344        0.56358238491371       -1.78761728942026
H            4.77142087548764        0.58630180451457        0.12430965059316
H            4.03577114817940        2.07334152238604        0.73269838045516
H            4.88052846075413        2.07215316415614       -0.81622898158402
