----- Optimization -----
      -----------------------------------------------------------      
     |                   =====================                   |     
     |                           x T B                           |     
     |                   =====================                   |     
     |                         S. Grimme                         |     
     |          Mulliken Center for Theoretical Chemistry        |     
     |                    University of Bonn                     |     
      -----------------------------------------------------------      

   * xtb version 6.7.1 (edcfbbe) compiled by 'conda@3ef47c1a292c' on 2024-11-25

   xtb is free software: you can redistribute it and/or modify it under
   the terms of the GNU Lesser General Public License as published by
   the Free Software Foundation, either version 3 of the License, or
   (at your option) any later version.
   
   xtb is distributed in the hope that it will be useful,
   but WITHOUT ANY WARRANTY; without even the implied warranty of
   MERCHANTABILITY or FITNESS FOR A PARTICULAR PURPOSE.  See the
   GNU Lesser General Public License for more details.
   
   Cite this work as:
   * C. Bannwarth, E. Caldeweyher, S. Ehlert, A. Hansen, P. Pracht,
     J. Seibert, S. Spicher, S. Grimme, WIREs Comput. Mol. Sci., 2020, 11,
     e01493. DOI: 10.1002/wcms.1493
   
   for GFN2-xTB:
   * C. Bannwarth, S. Ehlert and S. Grimme., J. Chem. Theory Comput., 2019,
     15, 1652-1671. DOI: 10.1021/acs.jctc.8b01176
   for GFN1-xTB:
   * S. Grimme, C. Bannwarth, P. Shushkov, J. Chem. Theory Comput., 2017,
     13, 1989-2009. DOI: 10.1021/acs.jctc.7b00118
   for GFN0-xTB:
   * P. Pracht, E. Caldeweyher, S. Ehlert, S. Grimme, ChemRxiv, 2019, preprint.
     DOI: 10.26434/chemrxiv.8326202.v1
   for GFN-FF:
   * S. Spicher and S. Grimme, Angew. Chem. Int. Ed., 2020, 59, 15665-15673.
     DOI: 10.1002/anie.202004239
   
   for ALPB and GBSA implicit solvation:
   * S. Ehlert, M. Stahn, S. Spicher, S. Grimme, J. Chem. Theory Comput.,
     2021, 17, 4250-4261. DOI: 10.1021/acs.jctc.1c00471
   
   for ddCOSMO and CPCM-X implicit solvation:
   * M. Stahn, S. Ehlert, S. Grimme, J. Phys. Chem. A,
     2023, XX, XXXX-XXXX. DOI: 10.1021/acs.jpca.3c04382
   
   for DFT-D4:
   * E. Caldeweyher, C. Bannwarth and S. Grimme, J. Chem. Phys., 2017,
     147, 034112. DOI: 10.1063/1.4993215
   * E. Caldeweyher, S. Ehlert, A. Hansen, H. Neugebauer, S. Spicher,
     C. Bannwarth and S. Grimme, J. Chem. Phys., 2019, 150, 154122.
     DOI: 10.1063/1.5090222
   * E. Caldeweyher, J.-M. Mewes, S. Ehlert and S. Grimme, Phys. Chem. Chem. Phys.
     2020, 22, 8499-8512. DOI: 10.1039/D0CP00502A
   
   for sTDA-xTB:
   * S. Grimme and C. Bannwarth, J. Chem. Phys., 2016, 145, 054103.
     DOI: 10.1063/1.4959605
   
   in the mass-spec context:
   * V. Asgeirsson, C. Bauer and S. Grimme, Chem. Sci., 2017, 8, 4879.
     DOI: 10.1039/c7sc00601b
   * J. Koopman and S. Grimme, ACS Omega 2019, 4, 12, 15120-15133.
     DOI: 10.1021/acsomega.9b02011
   
   for metadynamics refer to:
   * S. Grimme, J. Chem. Theory Comput., 2019, 155, 2847-2862
     DOI: 10.1021/acs.jctc.9b00143
   
   for SPH calculations refer to:
   * S. Spicher and S. Grimme, J. Chem. Theory Comput., 2021, 17, 1701-1714
     DOI: 10.1021/acs.jctc.0c01306
   
   for ONIOM refer to:
   * C. Plett, A. Katbashev, S. Ehlert, S. Grimme, M. Bursch,
     Phys. Chem. Chem. Phys., 2023, 25, 17860-17868. DOI: 10.1039/D3CP02178E
   
   for DIPRO refer to:
   * J. Kohn, N. Gildemeister, S. Grimme, D. Fazzi, A. Hansen,
     J. Chem. Phys., 2023, just accepted.
   
   for PTB refer to:
   * S. Grimme, M. Mueller, A. Hansen, J. Chem. Phys., 2023, 158, 124111.
     DOI: 10.1063/5.0137838
   
   with help from (in alphabetical order)
   P. Atkinson, C. Bannwarth, F. Bohle, G. Brandenburg, E. Caldeweyher
   M. Checinski, S. Dohm, S. Ehlert, S. Ehrlich, I. Gerasimov, C. Hölzer
   A. Katbashev, J. Kohn, J. Koopman, C. Lavigne, S. Lehtola, F. März, M. Müller,
   F. Musil, H. Neugebauer, J. Pisarek, C. Plett, P. Pracht, F. Pultar,
   J. Seibert, P. Shushkov, S. Spicher, M. Stahn, M. Steiner, T. Strunk,
   J. Stückrath, T. Rose, and J. Unsleber
   
 * started run on 2025/05/15 at 16:29:49.459     
   ID    Z sym.   atoms
    1    8 O      1, 31, 35, 43, 44
    2    6 C      2, 4-14, 16, 17, 19, 21-24, 26-29, 32-34, 36-42, 45-47, 49
    3    7 N      3, 15, 18, 20, 30, 48
    4   16 S      25, 50
    5    1 H      51-98

           -------------------------------------------------
          |                Calculation Setup                |
           -------------------------------------------------

          program call               : xtb /rds/general/user/hgt20/home/callum/QDESCP/Ritonavir_rdkit_conf_9/Ritonavir_rdkit_conf_9.xyz --opt normal --acc 1 --gfn 2 --chrg 0 --uhf 0 -P 1
          hostname                   : login-c
          coordinate file            : /rds/general/user/hgt20/home/callum/QDESCP/Ritonavir_rdkit_conf_9/Ritonavir_rdkit_conf_9.xyz
          omp threads                :                     1


           -------------------------------------------------
          |                 G F N 2 - x T B                 |
           -------------------------------------------------

        Reference                      10.1021/acs.jctc.8b01176
      * Hamiltonian:
        H0-scaling (s, p, d)           1.850000    2.230000    2.230000
        zeta-weighting                 0.500000
      * Dispersion:
        s8                             2.700000
        a1                             0.520000
        a2                             5.000000
        s9                             5.000000
      * Repulsion:
        kExp                           1.500000    1.000000
        rExp                           1.000000
      * Coulomb:
        alpha                          2.000000
        third order                    shell-resolved
        anisotropic                    true
        a3                             3.000000
        a5                             4.000000
        cn-shift                       1.200000
        cn-exp                         4.000000
        max-rad                        5.000000


          ...................................................
          :                      SETUP                      :
          :.................................................:
          :  # basis functions                 260          :
          :  # atomic orbitals                 258          :
          :  # shells                          150          :
          :  # electrons                       268          :
          :  max. iterations                   250          :
          :  Hamiltonian                  GFN2-xTB          :
          :  restarted?                      false          :
          :  GBSA solvation                  false          :
          :  PC potential                    false          :
          :  electronic temp.          300.0000000     K    :
          :  accuracy                    1.0000000          :
          :  -> integral cutoff          0.2500000E+02      :
          :  -> integral neglect         0.1000000E-07      :
          :  -> SCF convergence          0.1000000E-05 Eh   :
          :  -> wf. convergence          0.1000000E-03 e    :
          :  Broyden damping             0.4000000          :
          :  net charge                          0          :
          :  unpaired electrons                  0          :
          ...................................................

 iter      E             dE          RMSdq      gap      omega  full diag
   1   -149.8286089 -0.149829E+03  0.385E+00    2.76       0.0  T
   2   -150.0385413 -0.209932E+00  0.214E+00    2.80       1.0  T
   3   -150.0389944 -0.453091E-03  0.965E-01    2.59       1.0  T
   4   -150.0403888 -0.139440E-02  0.419E-01    2.36       1.0  T
   5   -150.0522816 -0.118928E-01  0.127E-01    2.34       1.0  T
   6   -150.0528035 -0.521843E-03  0.562E-02    2.37       1.0  T
   7   -150.0528717 -0.682008E-04  0.265E-02    2.37       1.0  T
   8   -150.0528946 -0.228778E-04  0.108E-02    2.38       1.0  T
   9   -150.0528969 -0.235739E-05  0.437E-03    2.38       2.3  T
  10   -150.0528972 -0.295668E-06  0.163E-03    2.38       6.2  T
  11   -150.0528973 -0.530794E-07  0.819E-04    2.38      12.3  T
  12   -150.0528973 -0.183379E-07  0.382E-04    2.38      26.4  T

   *** convergence criteria satisfied after 12 iterations ***

         #    Occupation            Energy/Eh            Energy/eV
      -------------------------------------------------------------
         1        2.0000           -0.7524618             -20.4755
       ...           ...                  ...                  ...
       128        2.0000           -0.3960085             -10.7759
       129        2.0000           -0.3898731             -10.6090
       130        2.0000           -0.3870265             -10.5315
       131        2.0000           -0.3860925             -10.5061
       132        2.0000           -0.3844552             -10.4616
       133        2.0000           -0.3754171             -10.2156
       134        2.0000           -0.3598707              -9.7926 (HOMO)
       135                         -0.2725419              -7.4162 (LUMO)
       136                         -0.2681128              -7.2957
       137                         -0.2303414              -6.2679
       138                         -0.2292030              -6.2369
       139                         -0.2169519              -5.9036
       ...                                ...                  ...
       258                          0.6474532              17.6181
      -------------------------------------------------------------
                  HL-Gap            0.0873289 Eh            2.3763 eV
             Fermi-level           -0.3162063 Eh           -8.6044 eV

 SCC (total)                   0 d,  0 h,  0 min,  0.355 sec
 SCC setup                      ...        0 min,  0.002 sec (  0.423%)
 Dispersion                     ...        0 min,  0.002 sec (  0.692%)
 classical contributions        ...        0 min,  0.001 sec (  0.211%)
 integral evaluation            ...        0 min,  0.031 sec (  8.602%)
 iterations                     ...        0 min,  0.168 sec ( 47.383%)
 molecular gradient             ...        0 min,  0.150 sec ( 42.375%)
 printout                       ...        0 min,  0.001 sec (  0.311%)

         :::::::::::::::::::::::::::::::::::::::::::::::::::::
         ::                     SUMMARY                     ::
         :::::::::::::::::::::::::::::::::::::::::::::::::::::
         :: total energy            -148.170009572872 Eh    ::
         :: gradient norm              0.110974997432 Eh/a0 ::
         :: HOMO-LUMO gap              2.376339324166 eV    ::
         ::.................................................::
         :: SCC energy              -150.046022652673 Eh    ::
         :: -> isotropic ES            0.192508499356 Eh    ::
         :: -> anisotropic ES          0.012421940175 Eh    ::
         :: -> anisotropic XC          0.064764275568 Eh    ::
         :: -> dispersion             -0.122334761710 Eh    ::
         :: repulsion energy           1.876013079801 Eh    ::
         :: add. restraining           0.000000000000 Eh    ::
         :: total charge               0.000000000000 e     ::
         :::::::::::::::::::::::::::::::::::::::::::::::::::::

      ----------------------------------------------------------- 
     |                   =====================                   |
     |                        A N C O P T                        |
     |                   =====================                   |
     |               Approximate Normal Coordinate               |
     |                Rational Function Optimizer                |
      ----------------------------------------------------------- 
      ----------------------------------------------------------- 
     |                   =====================                   |
     |                        A N C O P T                        |
     |                   =====================                   |
     |               Approximate Normal Coordinate               |
     |                Rational Function Optimizer                |
      ----------------------------------------------------------- 

          ...................................................
          :                      SETUP                      :
          :.................................................:
          :   optimization level            normal          :
          :   max. optcycles                   294          :
          :   ANC micro-cycles                  20          :
          :   degrees of freedom               288          :
          :.................................................:
          :   RF solver                   davidson          :
          :   write xtbopt.log                true          :
          :   linear?                        false          :
          :   energy convergence         0.5000000E-05 Eh   :
          :   grad. convergence          0.1000000E-02 Eh/α :
          :   maxmium RF displ.          1.0000000          :
          :   Hlow (freq-cutoff)         0.1000000E-01      :
          :   Hmax (freq-cutoff)         5.0000000          :
          :   S6 in model hess.         20.0000000          :
          ...................................................

generating ANC from exact Hessian ...
Using Lindh-Hessian (1995)
 Shifting diagonal of input Hessian by    9.9856864852726247E-003
 Lowest  eigenvalues of input Hessian
    0.000000    0.000000    0.000000    0.000000    0.000000    0.000000
    0.010000    0.010071    0.010130    0.010204    0.010268    0.010321
    0.010359    0.010374    0.010451    0.010576    0.010689    0.010817
 Highest eigenvalues
    1.948341    2.043203    2.087364    2.207423    2.362917    2.477004


........................................................................
.............................. CYCLE    1 ..............................
........................................................................

 iter      E             dE          RMSdq      gap      omega  full diag
   1   -150.0528973 -0.150053E+03  0.137E-04    2.38       0.0  T
   2   -150.0528973 -0.377298E-09  0.875E-05    2.38     115.4  T
   3   -150.0528973 -0.357545E-09  0.542E-05    2.38     186.2  T
     SCC iter.                  ...        0 min,  0.059 sec
     gradient                   ...        0 min,  0.154 sec
 * total energy  :  -148.1700096 Eh     change       -0.3822635E-08 Eh
   gradient norm :     0.1109785 Eh/α   predicted     0.0000000E+00 (-100.00%)
   displ. norm   :     0.3854737 α      lambda       -0.2287216E-01
   maximum displ.:     0.0849550 α      in ANC's #103, #54, #68, ...

........................................................................
.............................. CYCLE    2 ..............................
........................................................................

 iter      E             dE          RMSdq      gap      omega  full diag
   1   -150.1451426 -0.150145E+03  0.170E-01    2.40       0.0  T
   2   -150.1453586 -0.215972E-03  0.106E-01    2.40       1.0  T
   3   -150.1452801  0.785210E-04  0.645E-02    2.40       1.0  T
   4   -150.1454661 -0.186015E-03  0.218E-02    2.41       1.0  T
   5   -150.1454896 -0.234782E-04  0.560E-03    2.41       1.8  T
   6   -150.1454900 -0.462392E-06  0.277E-03    2.41       3.6  T
   7   -150.1454902 -0.196825E-06  0.121E-03    2.41       8.4  T
   8   -150.1454903 -0.228997E-07  0.633E-04    2.41      15.9  T
   9   -150.1454903 -0.691509E-08  0.256E-04    2.41      39.5  T
     SCC iter.                  ...        0 min,  0.126 sec
     gradient                   ...        0 min,  0.173 sec
 * total energy  :  -148.1856865 Eh     change       -0.1567691E-01 Eh
   gradient norm :     0.0446784 Eh/α   predicted    -0.1314588E-01 ( -16.14%)
   displ. norm   :     0.3867279 α      lambda       -0.7016992E-02
   maximum displ.:     0.1070279 α      in ANC's #45, #34, #54, ...

........................................................................
.............................. CYCLE    3 ..............................
........................................................................

 iter      E             dE          RMSdq      gap      omega  full diag
   1   -150.1916244 -0.150192E+03  0.107E-01    2.41       0.0  T
   2   -150.1917689 -0.144487E-03  0.677E-02    2.42       1.0  T
   3   -150.1917778 -0.885891E-05  0.391E-02    2.42       1.0  T
   4   -150.1918186 -0.408512E-04  0.176E-02    2.43       1.0  T
   5   -150.1918343 -0.157001E-04  0.357E-03    2.43       2.8  T
   6   -150.1918345 -0.180683E-06  0.181E-03    2.43       5.6  T
   7   -150.1918346 -0.107783E-06  0.691E-04    2.43      14.6  T
   8   -150.1918346 -0.687942E-08  0.373E-04    2.43      27.1  T
     SCC iter.                  ...        0 min,  0.171 sec
     gradient                   ...        0 min,  0.269 sec
 * total energy  :  -148.1900785 Eh     change       -0.4392005E-02 Eh
   gradient norm :     0.0165364 Eh/α   predicted    -0.4037048E-02 (  -8.08%)
   displ. norm   :     0.3266261 α      lambda       -0.1840003E-02
   maximum displ.:     0.1115867 α      in ANC's #17, #12, #20, ...

........................................................................
.............................. CYCLE    4 ..............................
........................................................................

 iter      E             dE          RMSdq      gap      omega  full diag
   1   -150.1993679 -0.150199E+03  0.522E-02    2.41       0.0  T
   2   -150.1993980 -0.300958E-04  0.309E-02    2.42       1.0  T
   3   -150.1993938  0.419476E-05  0.167E-02    2.42       1.0  T
   4   -150.1994014 -0.760746E-05  0.749E-03    2.43       1.3  T
   5   -150.1994051 -0.363230E-05  0.157E-03    2.43       6.5  T
   6   -150.1994051 -0.208754E-07  0.811E-04    2.43      12.5  T
   7   -150.1994051 -0.247682E-07  0.290E-04    2.43      34.8  T
     SCC iter.                  ...        0 min,  0.167 sec
     gradient                   ...        0 min,  0.234 sec
 * total energy  :  -148.1914380 Eh     change       -0.1359495E-02 Eh
   gradient norm :     0.0113154 Eh/α   predicted    -0.1018186E-02 ( -25.11%)
   displ. norm   :     0.4223164 α      lambda       -0.1419590E-02
   maximum displ.:     0.1804264 α      in ANC's #12, #17, #20, ...

........................................................................
.............................. CYCLE    5 ..............................
........................................................................

 iter      E             dE          RMSdq      gap      omega  full diag
   1   -150.1999824 -0.150200E+03  0.610E-02    2.40       0.0  T
   2   -150.2000055 -0.231584E-04  0.352E-02    2.42       1.0  T
   3   -150.2000004  0.513034E-05  0.140E-02    2.42       1.0  T
   4   -150.2000066 -0.624884E-05  0.595E-03    2.43       1.7  T
   5   -150.2000091 -0.251315E-05  0.159E-03    2.43       6.3  T
   6   -150.2000092 -0.127147E-07  0.805E-04    2.43      12.6  T
   7   -150.2000092 -0.278442E-07  0.278E-04    2.43      36.4  T
     SCC iter.                  ...        0 min,  0.122 sec
     gradient                   ...        0 min,  0.276 sec
 * total energy  :  -148.1924673 Eh     change       -0.1029303E-02 Eh
   gradient norm :     0.0079723 Eh/α   predicted    -0.8363913E-03 ( -18.74%)
   displ. norm   :     0.4338722 α      lambda       -0.9296880E-03
   maximum displ.:     0.2161227 α      in ANC's #12, #17, #20, ...

........................................................................
.............................. CYCLE    6 ..............................
........................................................................

 iter      E             dE          RMSdq      gap      omega  full diag
   1   -150.1985125 -0.150199E+03  0.619E-02    2.41       0.0  T
   2   -150.1985233 -0.108209E-04  0.358E-02    2.42       1.0  T
   3   -150.1985176  0.568941E-05  0.111E-02    2.43       1.0  T
   4   -150.1985242 -0.660576E-05  0.433E-03    2.43       2.3  T
   5   -150.1985255 -0.123366E-05  0.140E-03    2.43       7.2  T
   6   -150.1985255 -0.123746E-07  0.687E-04    2.43      14.7  T
   7   -150.1985255 -0.241411E-07  0.248E-04    2.43      40.7  T
     SCC iter.                  ...        0 min,  0.160 sec
     gradient                   ...        0 min,  0.226 sec
 * total energy  :  -148.1931813 Eh     change       -0.7140175E-03 Eh
   gradient norm :     0.0085070 Eh/α   predicted    -0.5523503E-03 ( -22.64%)
   displ. norm   :     0.4710313 α      lambda       -0.8141343E-03
   maximum displ.:     0.2476805 α      in ANC's #12, #17, #20, ...

........................................................................
.............................. CYCLE    7 ..............................
........................................................................

 iter      E             dE          RMSdq      gap      omega  full diag
   1   -150.1972100 -0.150197E+03  0.723E-02    2.42       0.0  T
   2   -150.1972165 -0.655565E-05  0.421E-02    2.43       1.0  T
   3   -150.1972056  0.109802E-04  0.128E-02    2.43       1.0  T
   4   -150.1972184 -0.128634E-04  0.346E-03    2.43       2.9  T
   5   -150.1972190 -0.568542E-06  0.141E-03    2.43       7.2  T
   6   -150.1972190 -0.183903E-07  0.688E-04    2.43      14.7  T
   7   -150.1972190 -0.240226E-07  0.251E-04    2.43      40.2  T
     SCC iter.                  ...        0 min,  0.129 sec
     gradient                   ...        0 min,  0.214 sec
 * total energy  :  -148.1938294 Eh     change       -0.6480939E-03 Eh
   gradient norm :     0.0089117 Eh/α   predicted    -0.4973865E-03 ( -23.25%)
   displ. norm   :     0.4975699 α      lambda       -0.7537312E-03
   maximum displ.:     0.2724284 α      in ANC's #12, #17, #20, ...

........................................................................
.............................. CYCLE    8 ..............................
........................................................................

 iter      E             dE          RMSdq      gap      omega  full diag
   1   -150.1972248 -0.150197E+03  0.810E-02    2.43       0.0  T
   2   -150.1972304 -0.560129E-05  0.472E-02    2.43       1.0  T
   3   -150.1972252  0.516846E-05  0.913E-03    2.43       1.1  T
   4   -150.1972316 -0.636435E-05  0.328E-03    2.43       3.1  T
   5   -150.1972321 -0.518484E-06  0.138E-03    2.43       7.3  T
   6   -150.1972321 -0.199444E-07  0.688E-04    2.43      14.7  T
   7   -150.1972322 -0.237557E-07  0.271E-04    2.43      37.3  T
     SCC iter.                  ...        0 min,  0.128 sec
     gradient                   ...        0 min,  0.264 sec
 * total energy  :  -148.1944257 Eh     change       -0.5962622E-03 Eh
   gradient norm :     0.0080869 Eh/α   predicted    -0.4701846E-03 ( -21.14%)
   displ. norm   :     0.4908142 α      lambda       -0.6254946E-03
   maximum displ.:     0.2783485 α      in ANC's #12, #20, #17, ...

........................................................................
.............................. CYCLE    9 ..............................
........................................................................

 iter      E             dE          RMSdq      gap      omega  full diag
   1   -150.1983262 -0.150198E+03  0.854E-02    2.43       0.0  T
   2   -150.1983326 -0.637428E-05  0.496E-02    2.43       1.0  T
   3   -150.1983308  0.184369E-05  0.695E-03    2.43       1.5  T
   4   -150.1983334 -0.262860E-05  0.329E-03    2.43       3.1  T
   5   -150.1983340 -0.627736E-06  0.134E-03    2.43       7.5  T
   6   -150.1983340 -0.193741E-07  0.607E-04    2.43      16.6  T
   7   -150.1983341 -0.174815E-07  0.281E-04    2.43      36.0  T
     SCC iter.                  ...        0 min,  0.161 sec
     gradient                   ...        0 min,  0.232 sec
 * total energy  :  -148.1949162 Eh     change       -0.4905170E-03 Eh
   gradient norm :     0.0067244 Eh/α   predicted    -0.3881034E-03 ( -20.88%)
   displ. norm   :     0.4620557 α      lambda       -0.5027040E-03
   maximum displ.:     0.2732746 α      in ANC's #12, #20, #17, ...

........................................................................
.............................. CYCLE   10 ..............................
........................................................................

 iter      E             dE          RMSdq      gap      omega  full diag
   1   -150.2004527 -0.150200E+03  0.811E-02    2.43       0.0  T
   2   -150.2004578 -0.506970E-05  0.471E-02    2.43       1.0  T
   3   -150.2004557  0.214675E-05  0.741E-03    2.43       1.4  T
   4   -150.2004584 -0.276480E-05  0.317E-03    2.43       3.2  T
   5   -150.2004590 -0.547037E-06  0.132E-03    2.43       7.6  T
   6   -150.2004590 -0.410828E-07  0.509E-04    2.43      19.9  T
   7   -150.2004590 -0.113924E-07  0.240E-04    2.43      42.1  T
     SCC iter.                  ...        0 min,  0.116 sec
     gradient                   ...        0 min,  0.223 sec
 * total energy  :  -148.1953128 Eh     change       -0.3965821E-03 Eh
   gradient norm :     0.0053761 Eh/α   predicted    -0.3050151E-03 ( -23.09%)
   displ. norm   :     0.4465372 α      lambda       -0.4273340E-03
   maximum displ.:     0.2715197 α      in ANC's #12, #20, #5, ...

........................................................................
.............................. CYCLE   11 ..............................
........................................................................

 iter      E             dE          RMSdq      gap      omega  full diag
   1   -150.2021810 -0.150202E+03  0.783E-02    2.43       0.0  T
   2   -150.2021864 -0.545217E-05  0.452E-02    2.43       1.0  T
   3   -150.2021828  0.360048E-05  0.887E-03    2.43       1.1  T
   4   -150.2021871 -0.426799E-05  0.359E-03    2.43       2.8  T
   5   -150.2021878 -0.730770E-06  0.129E-03    2.43       7.9  T
   6   -150.2021879 -0.274334E-07  0.439E-04    2.43      23.0  T
   7   -150.2021879 -0.739388E-08  0.216E-04    2.43      46.7  T
     SCC iter.                  ...        0 min,  0.191 sec
     gradient                   ...        0 min,  0.294 sec
 * total energy  :  -148.1956533 Eh     change       -0.3405317E-03 Eh
   gradient norm :     0.0055908 Eh/α   predicted    -0.2562744E-03 ( -24.74%)
   displ. norm   :     0.4421823 α      lambda       -0.3958421E-03
   maximum displ.:     0.2750719 α      in ANC's #12, #20, #5, ...

........................................................................
.............................. CYCLE   12 ..............................
........................................................................

 iter      E             dE          RMSdq      gap      omega  full diag
   1   -150.2039972 -0.150204E+03  0.740E-02    2.43       0.0  T
   2   -150.2040014 -0.421116E-05  0.429E-02    2.43       1.0  T
   3   -150.2039969  0.448420E-05  0.916E-03    2.44       1.1  T
   4   -150.2040023 -0.539577E-05  0.300E-03    2.43       3.4  T
   5   -150.2040027 -0.416425E-06  0.122E-03    2.43       8.3  T
   6   -150.2040028 -0.325952E-07  0.439E-04    2.43      23.0  T
   7   -150.2040028 -0.802561E-08  0.205E-04    2.43      49.2  T
     SCC iter.                  ...        0 min,  0.128 sec
     gradient                   ...        0 min,  0.291 sec
 * total energy  :  -148.1959707 Eh     change       -0.3173713E-03 Eh
   gradient norm :     0.0062964 Eh/α   predicted    -0.2366205E-03 ( -25.44%)
   displ. norm   :     0.4644154 α      lambda       -0.3865121E-03
   maximum displ.:     0.2853141 α      in ANC's #12, #5, #20, ...

........................................................................
.............................. CYCLE   13 ..............................
........................................................................

 iter      E             dE          RMSdq      gap      omega  full diag
   1   -150.2036319 -0.150204E+03  0.763E-02    2.43       0.0  T
   2   -150.2036366 -0.472121E-05  0.441E-02    2.44       1.0  T
   3   -150.2036293  0.735395E-05  0.109E-02    2.44       1.0  T
   4   -150.2036379 -0.863394E-05  0.340E-03    2.44       3.0  T
   5   -150.2036385 -0.544226E-06  0.129E-03    2.44       7.8  T
   6   -150.2036385 -0.168856E-07  0.492E-04    2.44      20.5  T
   7   -150.2036385 -0.114717E-07  0.223E-04    2.44      45.4  T
     SCC iter.                  ...        0 min,  0.132 sec
     gradient                   ...        0 min,  0.282 sec
 * total energy  :  -148.1962839 Eh     change       -0.3132795E-03 Eh
   gradient norm :     0.0075570 Eh/α   predicted    -0.2349415E-03 ( -25.01%)
   displ. norm   :     0.4838070 α      lambda       -0.4255477E-03
   maximum displ.:     0.2892275 α      in ANC's #12, #5, #18, ...

........................................................................
.............................. CYCLE   14 ..............................
........................................................................

 iter      E             dE          RMSdq      gap      omega  full diag
   1   -150.2050144 -0.150205E+03  0.744E-02    2.46       0.0  T
   2   -150.2050189 -0.451284E-05  0.431E-02    2.46       1.0  T
   3   -150.2050123  0.654019E-05  0.102E-02    2.46       1.0  T
   4   -150.2050202 -0.784622E-05  0.298E-03    2.46       3.4  T
   5   -150.2050205 -0.338821E-06  0.133E-03    2.46       7.6  T
   6   -150.2050206 -0.469317E-07  0.610E-04    2.46      16.6  T
   7   -150.2050206 -0.162112E-07  0.233E-04    2.46      43.4  T
     SCC iter.                  ...        0 min,  0.128 sec
     gradient                   ...        0 min,  0.269 sec
 * total energy  :  -148.1966105 Eh     change       -0.3265509E-03 Eh
   gradient norm :     0.0067238 Eh/α   predicted    -0.2625789E-03 ( -19.59%)
   displ. norm   :     0.5427517 α      lambda       -0.4067359E-03
   maximum displ.:     0.3174602 α      in ANC's #12, #5, #20, ...

........................................................................
.............................. CYCLE   15 ..............................
........................................................................

 iter      E             dE          RMSdq      gap      omega  full diag
   1   -150.1994168 -0.150199E+03  0.889E-02    2.44       0.0  T
   2   -150.1994252 -0.845107E-05  0.511E-02    2.45       1.0  T
   3   -150.1994075  0.177566E-04  0.166E-02    2.45       1.0  T
   4   -150.1994281 -0.205747E-04  0.469E-03    2.45       2.2  T
   5   -150.1994291 -0.104249E-05  0.185E-03    2.45       5.4  T
   6   -150.1994291 -0.437666E-07  0.795E-04    2.45      12.7  T
   7   -150.1994292 -0.361199E-07  0.309E-04    2.45      32.6  T
     SCC iter.                  ...        0 min,  0.122 sec
     gradient                   ...        0 min,  0.244 sec
 * total energy  :  -148.1968863 Eh     change       -0.2758135E-03 Eh
   gradient norm :     0.0095119 Eh/α   predicted    -0.2632785E-03 (  -4.54%)
   displ. norm   :     0.4054261 α      lambda       -0.4220706E-03
   maximum displ.:     0.1974510 α      in ANC's #12, #15, #5, ...

........................................................................
.............................. CYCLE   16 ..............................
........................................................................

 iter      E             dE          RMSdq      gap      omega  full diag
   1   -150.2035338 -0.150204E+03  0.608E-02    2.49       0.0  T
   2   -150.2035398 -0.595778E-05  0.350E-02    2.49       1.0  T
   3   -150.2035314  0.841051E-05  0.119E-02    2.49       1.0  T
   4   -150.2035413 -0.991392E-05  0.337E-03    2.48       3.0  T
   5   -150.2035419 -0.580699E-06  0.146E-03    2.48       6.9  T
   6   -150.2035419 -0.649398E-07  0.678E-04    2.49      14.9  T
   7   -150.2035420 -0.215973E-07  0.235E-04    2.49      42.9  T
     SCC iter.                  ...        0 min,  0.161 sec
     gradient                   ...        0 min,  0.232 sec
 * total energy  :  -148.1971497 Eh     change       -0.2634089E-03 Eh
   gradient norm :     0.0061572 Eh/α   predicted    -0.2457325E-03 (  -6.71%)
   displ. norm   :     0.4170777 α      lambda       -0.2779737E-03
   maximum displ.:     0.2236276 α      in ANC's #12, #5, #20, ...

........................................................................
.............................. CYCLE   17 ..............................
........................................................................

 iter      E             dE          RMSdq      gap      omega  full diag
   1   -150.2005269 -0.150201E+03  0.643E-02    2.49       0.0  T
   2   -150.2005306 -0.366964E-05  0.371E-02    2.49       1.0  T
   3   -150.2005286  0.199395E-05  0.657E-03    2.49       1.5  T
   4   -150.2005313 -0.267266E-05  0.272E-03    2.49       3.7  T
   5   -150.2005316 -0.330690E-06  0.116E-03    2.49       8.7  T
   6   -150.2005316 -0.283006E-07  0.482E-04    2.49      21.0  T
   7   -150.2005317 -0.142065E-07  0.197E-04    2.49      51.4  T
     SCC iter.                  ...        0 min,  0.123 sec
     gradient                   ...        0 min,  0.270 sec
 * total energy  :  -148.1973691 Eh     change       -0.2193574E-03 Eh
   gradient norm :     0.0065871 Eh/α   predicted    -0.1631663E-03 ( -25.62%)
   displ. norm   :     0.4500205 α      lambda       -0.4563910E-03
   maximum displ.:     0.1631346 α      in ANC's #12, #5, #10, ...

........................................................................
.............................. CYCLE   18 ..............................
........................................................................

 iter      E             dE          RMSdq      gap      omega  full diag
   1   -150.2039749 -0.150204E+03  0.659E-02    2.49       0.0  T
   2   -150.2039831 -0.825202E-05  0.378E-02    2.50       1.0  T
   3   -150.2039812  0.195125E-05  0.818E-03    2.49       1.2  T
   4   -150.2039841 -0.293197E-05  0.342E-03    2.49       3.0  T
   5   -150.2039847 -0.612433E-06  0.154E-03    2.49       6.6  T
   6   -150.2039848 -0.533674E-07  0.578E-04    2.49      17.5  T
   7   -150.2039848 -0.209745E-07  0.238E-04    2.49      42.4  T
     SCC iter.                  ...        0 min,  0.167 sec
     gradient                   ...        0 min,  0.220 sec
 * total energy  :  -148.1976929 Eh     change       -0.3238380E-03 Eh
   gradient norm :     0.0075198 Eh/α   predicted    -0.2744116E-03 ( -15.26%)
   displ. norm   :     0.4964040 α      lambda       -0.3600982E-03
   maximum displ.:     0.2108203 α      in ANC's #12, #5, #10, ...

........................................................................
.............................. CYCLE   19 ..............................
........................................................................

 iter      E             dE          RMSdq      gap      omega  full diag
   1   -150.2005600 -0.150201E+03  0.702E-02    2.51       0.0  T
   2   -150.2005658 -0.581908E-05  0.407E-02    2.51       1.0  T
   3   -150.2005610  0.485979E-05  0.886E-03    2.51       1.1  T
   4   -150.2005666 -0.562871E-05  0.354E-03    2.51       2.9  T
   5   -150.2005673 -0.746946E-06  0.130E-03    2.51       7.8  T
   6   -150.2005673 -0.159193E-07  0.560E-04    2.51      18.1  T
   7   -150.2005674 -0.189381E-07  0.213E-04    2.51      47.5  T
     SCC iter.                  ...        0 min,  0.116 sec
     gradient                   ...        0 min,  0.225 sec
 * total energy  :  -148.1979537 Eh     change       -0.2608124E-03 Eh
   gradient norm :     0.0081280 Eh/α   predicted    -0.2244169E-03 ( -13.95%)
   displ. norm   :     0.4414791 α      lambda       -0.3785841E-03
   maximum displ.:     0.1670543 α      in ANC's #5, #10, #3, ...

........................................................................
.............................. CYCLE   20 ..............................
........................................................................

 iter      E             dE          RMSdq      gap      omega  full diag
   1   -150.2034514 -0.150203E+03  0.544E-02    2.51       0.0  T
   2   -150.2034575 -0.613616E-05  0.313E-02    2.52       1.0  T
   3   -150.2034565  0.980331E-06  0.635E-03    2.51       1.6  T
   4   -150.2034583 -0.172635E-05  0.252E-03    2.52       4.0  T
   5   -150.2034585 -0.282940E-06  0.119E-03    2.52       8.5  T
   6   -150.2034586 -0.315289E-07  0.484E-04    2.52      20.9  T
   7   -150.2034586 -0.118500E-07  0.226E-04    2.52      44.8  T
     SCC iter.                  ...        0 min,  0.122 sec
     gradient                   ...        0 min,  0.265 sec
 * total energy  :  -148.1982184 Eh     change       -0.2646940E-03 Eh
   gradient norm :     0.0065949 Eh/α   predicted    -0.2261884E-03 ( -14.55%)
   displ. norm   :     0.5044469 α      lambda       -0.3059891E-03
   maximum displ.:     0.1971021 α      in ANC's #5, #12, #10, ...
 * RMSD in coord.:     0.6875954 α      energy gain  -0.2820885E-01 Eh

generating ANC from exact Hessian ...
Using Lindh-Hessian (1995)
 Shifting diagonal of input Hessian by    1.0049547249581613E-002
 Lowest  eigenvalues of input Hessian
    0.010000    0.000000    0.000000    0.000000    0.000000    0.000000
    0.000000    0.010138    0.010264    0.010285    0.010364    0.010420
    0.010469    0.010558    0.010591    0.010639    0.010828    0.010897
 Highest eigenvalues
    2.048116    2.118789    2.152054    2.328146    2.424921    2.544328


........................................................................
.............................. CYCLE   21 ..............................
........................................................................

 iter      E             dE          RMSdq      gap      omega  full diag
   1   -150.2012100 -0.150201E+03  0.618E-02    2.52       0.0  T
   2   -150.2012158 -0.582162E-05  0.356E-02    2.52       1.0  T
   3   -150.2012071  0.878672E-05  0.118E-02    2.52       1.0  T
   4   -150.2012169 -0.984291E-05  0.375E-03    2.53       2.7  T
   5   -150.2012178 -0.893930E-06  0.124E-03    2.53       8.2  T
   6   -150.2012178 -0.577143E-08  0.511E-04    2.52      19.8  T
   7   -150.2012178 -0.147555E-07  0.203E-04    2.52      49.7  T
     SCC iter.                  ...        0 min,  0.135 sec
     gradient                   ...        0 min,  0.289 sec
 * total energy  :  -148.1984497 Eh     change       -0.2313010E-03 Eh
   gradient norm :     0.0067290 Eh/α   predicted     0.0000000E+00 (-100.00%)
   displ. norm   :     0.0717437 α      lambda       -0.1428227E-03
   maximum displ.:     0.0317413 α      in ANC's #5, #10, #3, ...

........................................................................
.............................. CYCLE   22 ..............................
........................................................................

 iter      E             dE          RMSdq      gap      omega  full diag
   1   -150.2051625 -0.150205E+03  0.152E-02    2.54       0.0  T
   2   -150.2051633 -0.774735E-06  0.866E-03    2.53       1.2  T
   3   -150.2051630  0.284364E-06  0.302E-03    2.53       3.3  T
   4   -150.2051634 -0.363345E-06  0.104E-03    2.53       9.7  T
   5   -150.2051635 -0.651459E-07  0.380E-04    2.53      26.6  T
   6   -150.2051635 -0.262784E-08  0.206E-04    2.53      49.0  T
     SCC iter.                  ...        0 min,  0.123 sec
     gradient                   ...        0 min,  0.271 sec
 * total energy  :  -148.1985635 Eh     change       -0.1137408E-03 Eh
   gradient norm :     0.0028445 Eh/α   predicted    -0.7324847E-04 ( -35.60%)
   displ. norm   :     0.1795313 α      lambda       -0.1851916E-03
   maximum displ.:     0.0838534 α      in ANC's #5, #10, #3, ...

........................................................................
.............................. CYCLE   23 ..............................
........................................................................

 iter      E             dE          RMSdq      gap      omega  full diag
   1   -150.2089145 -0.150209E+03  0.282E-02    2.54       0.0  T
   2   -150.2089167 -0.213936E-05  0.163E-02    2.54       1.0  T
   3   -150.2089161  0.618806E-06  0.427E-03    2.54       2.4  T
   4   -150.2089169 -0.867312E-06  0.155E-03    2.54       6.5  T
   5   -150.2089170 -0.126864E-06  0.637E-04    2.54      15.9  T
   6   -150.2089170 -0.482405E-08  0.340E-04    2.54      29.7  T
     SCC iter.                  ...        0 min,  0.155 sec
     gradient                   ...        0 min,  0.228 sec
 * total energy  :  -148.1986938 Eh     change       -0.1303203E-03 Eh
   gradient norm :     0.0034039 Eh/α   predicted    -0.9558128E-04 ( -26.66%)
   displ. norm   :     0.2130672 α      lambda       -0.1309348E-03
   maximum displ.:     0.1014945 α      in ANC's #5, #10, #3, ...

........................................................................
.............................. CYCLE   24 ..............................
........................................................................

 iter      E             dE          RMSdq      gap      omega  full diag
   1   -150.2094844 -0.150209E+03  0.284E-02    2.54       0.0  T
   2   -150.2094860 -0.158831E-05  0.164E-02    2.54       1.0  T
   3   -150.2094859  0.152205E-06  0.294E-03    2.54       3.4  T
   4   -150.2094862 -0.359139E-06  0.136E-03    2.54       7.4  T
   5   -150.2094863 -0.719393E-07  0.633E-04    2.54      16.0  T
   6   -150.2094863 -0.974015E-08  0.273E-04    2.54      37.0  T
     SCC iter.                  ...        0 min,  0.122 sec
     gradient                   ...        0 min,  0.277 sec
 * total energy  :  -148.1988015 Eh     change       -0.1076795E-03 Eh
   gradient norm :     0.0048538 Eh/α   predicted    -0.6852357E-04 ( -36.36%)
   displ. norm   :     0.3468230 α      lambda       -0.1937717E-03
   maximum displ.:     0.1641714 α      in ANC's #5, #10, #3, ...

........................................................................
.............................. CYCLE   25 ..............................
........................................................................

 iter      E             dE          RMSdq      gap      omega  full diag
   1   -150.2077345 -0.150208E+03  0.433E-02    2.54       0.0  T
   2   -150.2077373 -0.282142E-05  0.249E-02    2.53       1.0  T
   3   -150.2077373  0.338871E-07  0.388E-03    2.53       2.6  T
   4   -150.2077378 -0.509535E-06  0.196E-03    2.53       5.1  T
   5   -150.2077379 -0.117501E-06  0.947E-04    2.53      10.7  T
   6   -150.2077379 -0.314147E-07  0.357E-04    2.53      28.3  T
     SCC iter.                  ...        0 min,  0.123 sec
     gradient                   ...        0 min,  0.260 sec
 * total energy  :  -148.1989602 Eh     change       -0.1587400E-03 Eh
   gradient norm :     0.0046853 Eh/α   predicted    -0.1085403E-03 ( -31.62%)
   displ. norm   :     0.4290405 α      lambda       -0.2123650E-03
   maximum displ.:     0.2038725 α      in ANC's #5, #10, #3, ...

........................................................................
.............................. CYCLE   26 ..............................
........................................................................

 iter      E             dE          RMSdq      gap      omega  full diag
   1   -150.2046426 -0.150205E+03  0.506E-02    2.53       0.0  T
   2   -150.2046456 -0.300053E-05  0.290E-02    2.53       1.0  T
   3   -150.2046454  0.228025E-06  0.467E-03    2.52       2.2  T
   4   -150.2046462 -0.862353E-06  0.236E-03    2.52       4.3  T
   5   -150.2046464 -0.175608E-06  0.101E-03    2.52      10.0  T
   6   -150.2046464 -0.332025E-07  0.417E-04    2.52      24.2  T
   7   -150.2046464 -0.828439E-08  0.184E-04    2.52      54.9  T
     SCC iter.                  ...        0 min,  0.170 sec
     gradient                   ...        0 min,  0.222 sec
 * total energy  :  -148.1991269 Eh     change       -0.1667101E-03 Eh
   gradient norm :     0.0047067 Eh/α   predicted    -0.1257302E-03 ( -24.58%)
   displ. norm   :     0.4039274 α      lambda       -0.1878993E-03
   maximum displ.:     0.1937716 α      in ANC's #5, #10, #3, ...

........................................................................
.............................. CYCLE   27 ..............................
........................................................................

 iter      E             dE          RMSdq      gap      omega  full diag
   1   -150.2026711 -0.150203E+03  0.440E-02    2.52       0.0  T
   2   -150.2026729 -0.187928E-05  0.252E-02    2.52       1.0  T
   3   -150.2026726  0.358812E-06  0.413E-03    2.52       2.4  T
   4   -150.2026734 -0.792198E-06  0.211E-03    2.52       4.8  T
   5   -150.2026735 -0.150445E-06  0.815E-04    2.52      12.4  T
   6   -150.2026736 -0.229543E-07  0.331E-04    2.52      30.5  T
     SCC iter.                  ...        0 min,  0.100 sec
     gradient                   ...        0 min,  0.279 sec
 * total energy  :  -148.1992776 Eh     change       -0.1507326E-03 Eh
   gradient norm :     0.0054339 Eh/α   predicted    -0.1092795E-03 ( -27.50%)
   displ. norm   :     0.4168194 α      lambda       -0.2179456E-03
   maximum displ.:     0.2001604 α      in ANC's #5, #10, #3, ...

........................................................................
.............................. CYCLE   28 ..............................
........................................................................

 iter      E             dE          RMSdq      gap      omega  full diag
   1   -150.2026769 -0.150203E+03  0.420E-02    2.52       0.0  T
   2   -150.2026788 -0.193914E-05  0.242E-02    2.52       1.0  T
   3   -150.2026780  0.816079E-06  0.459E-03    2.52       2.2  T
   4   -150.2026792 -0.116189E-05  0.222E-03    2.52       4.6  T
   5   -150.2026794 -0.204456E-06  0.824E-04    2.52      12.3  T
   6   -150.2026794 -0.180918E-07  0.282E-04    2.52      35.8  T
     SCC iter.                  ...        0 min,  0.072 sec
     gradient                   ...        0 min,  0.261 sec
 * total energy  :  -148.1994521 Eh     change       -0.1744303E-03 Eh
   gradient norm :     0.0053895 Eh/α   predicted    -0.1279057E-03 ( -26.67%)
   displ. norm   :     0.4585082 α      lambda       -0.2284981E-03
   maximum displ.:     0.2179902 α      in ANC's #5, #10, #3, ...

........................................................................
.............................. CYCLE   29 ..............................
........................................................................

 iter      E             dE          RMSdq      gap      omega  full diag
   1   -150.2038406 -0.150204E+03  0.456E-02    2.53       0.0  T
   2   -150.2038429 -0.232689E-05  0.263E-02    2.53       1.0  T
   3   -150.2038410  0.191742E-05  0.597E-03    2.52       1.7  T
   4   -150.2038434 -0.242976E-05  0.233E-03    2.52       4.3  T
   5   -150.2038437 -0.217840E-06  0.909E-04    2.52      11.1  T
   6   -150.2038437 -0.212396E-07  0.321E-04    2.52      31.4  T
     SCC iter.                  ...        0 min,  0.147 sec
     gradient                   ...        0 min,  0.210 sec
 * total energy  :  -148.1996326 Eh     change       -0.1804990E-03 Eh
   gradient norm :     0.0050082 Eh/α   predicted    -0.1382688E-03 ( -23.40%)
   displ. norm   :     0.4965199 α      lambda       -0.2106080E-03
   maximum displ.:     0.2343754 α      in ANC's #5, #3, #10, ...

........................................................................
.............................. CYCLE   30 ..............................
........................................................................

 iter      E             dE          RMSdq      gap      omega  full diag
   1   -150.2046895 -0.150205E+03  0.502E-02    2.53       0.0  T
   2   -150.2046918 -0.226724E-05  0.290E-02    2.53       1.0  T
   3   -150.2046887  0.303476E-05  0.699E-03    2.53       1.4  T
   4   -150.2046925 -0.377885E-05  0.229E-03    2.53       4.4  T
   5   -150.2046927 -0.156862E-06  0.959E-04    2.53      10.5  T
   6   -150.2046927 -0.306675E-07  0.341E-04    2.53      29.6  T
     SCC iter.                  ...        0 min,  0.143 sec
     gradient                   ...        0 min,  0.232 sec
 * total energy  :  -148.1998021 Eh     change       -0.1695660E-03 Eh
   gradient norm :     0.0046419 Eh/α   predicted    -0.1312651E-03 ( -22.59%)
   displ. norm   :     0.5010580 α      lambda       -0.2026140E-03
   maximum displ.:     0.2329982 α      in ANC's #5, #3, #10, ...

........................................................................
.............................. CYCLE   31 ..............................
........................................................................

 iter      E             dE          RMSdq      gap      omega  full diag
   1   -150.2060160 -0.150206E+03  0.512E-02    2.54       0.0  T
   2   -150.2060183 -0.223466E-05  0.297E-02    2.54       1.0  T
   3   -150.2060149  0.336834E-05  0.712E-03    2.54       1.4  T
   4   -150.2060191 -0.414600E-05  0.221E-03    2.54       4.6  T
   5   -150.2060192 -0.137579E-06  0.995E-04    2.54      10.1  T
   6   -150.2060192 -0.335026E-07  0.368E-04    2.54      27.4  T
     SCC iter.                  ...        0 min,  0.110 sec
     gradient                   ...        0 min,  0.226 sec
 * total energy  :  -148.1999625 Eh     change       -0.1603496E-03 Eh
   gradient norm :     0.0039650 Eh/α   predicted    -0.1267428E-03 ( -20.96%)
   displ. norm   :     0.5047978 α      lambda       -0.1698266E-03
   maximum displ.:     0.2349457 α      in ANC's #5, #3, #10, ...

........................................................................
.............................. CYCLE   32 ..............................
........................................................................

 iter      E             dE          RMSdq      gap      omega  full diag
   1   -150.2057214 -0.150206E+03  0.526E-02    2.54       0.0  T
   2   -150.2057240 -0.259286E-05  0.304E-02    2.55       1.0  T
   3   -150.2057220  0.204565E-05  0.611E-03    2.55       1.7  T
   4   -150.2057246 -0.261003E-05  0.244E-03    2.55       4.1  T
   5   -150.2057249 -0.248412E-06  0.101E-03    2.55      10.0  T
   6   -150.2057249 -0.265958E-07  0.372E-04    2.55      27.2  T
   7   -150.2057249 -0.724035E-08  0.165E-04    2.55      61.3  T
     SCC iter.                  ...        0 min,  0.123 sec
     gradient                   ...        0 min,  0.271 sec
 * total energy  :  -148.2000922 Eh     change       -0.1297296E-03 Eh
   gradient norm :     0.0034628 Eh/α   predicted    -0.1065528E-03 ( -17.87%)
   displ. norm   :     0.3829992 α      lambda       -0.1357243E-03
   maximum displ.:     0.1638424 α      in ANC's #5, #3, #2, ...

........................................................................
.............................. CYCLE   33 ..............................
........................................................................

 iter      E             dE          RMSdq      gap      omega  full diag
   1   -150.2095296 -0.150210E+03  0.393E-02    2.57       0.0  T
   2   -150.2095317 -0.212162E-05  0.230E-02    2.57       1.0  T
   3   -150.2095297  0.201539E-05  0.573E-03    2.57       1.8  T
   4   -150.2095322 -0.246803E-05  0.173E-03    2.57       5.9  T
   5   -150.2095323 -0.119617E-06  0.823E-04    2.57      12.3  T
   6   -150.2095323 -0.158535E-07  0.387E-04    2.57      26.1  T
     SCC iter.                  ...        0 min,  0.099 sec
     gradient                   ...        0 min,  0.276 sec
 * total energy  :  -148.2001714 Eh     change       -0.7918783E-04 Eh
   gradient norm :     0.0039012 Eh/α   predicted    -0.7782464E-04 (  -1.72%)
   displ. norm   :     0.4590444 α      lambda       -0.1057516E-03
   maximum displ.:     0.2189655 α      in ANC's #5, #3, #10, ...

........................................................................
.............................. CYCLE   34 ..............................
........................................................................

 iter      E             dE          RMSdq      gap      omega  full diag
   1   -150.2045324 -0.150205E+03  0.500E-02    2.56       0.0  T
   2   -150.2045357 -0.331804E-05  0.286E-02    2.56       1.0  T
   3   -150.2045338  0.191459E-05  0.670E-03    2.56       1.5  T
   4   -150.2045364 -0.257667E-05  0.247E-03    2.57       4.1  T
   5   -150.2045366 -0.238708E-06  0.115E-03    2.56       8.8  T
   6   -150.2045367 -0.433358E-07  0.457E-04    2.56      22.1  T
   7   -150.2045367 -0.124443E-07  0.167E-04    2.56      60.4  T
     SCC iter.                  ...        0 min,  0.128 sec
     gradient                   ...        0 min,  0.227 sec
 * total energy  :  -148.2002141 Eh     change       -0.4266110E-04 Eh
   gradient norm :     0.0044302 Eh/α   predicted    -0.6401968E-04 (  50.07%)
   displ. norm   :     0.0680807 α      lambda       -0.5683310E-04
   maximum displ.:     0.0333827 α      in ANC's #12, #15, #10, ...

........................................................................
.............................. CYCLE   35 ..............................
........................................................................

 iter      E             dE          RMSdq      gap      omega  full diag
   1   -150.2073354 -0.150207E+03  0.110E-02    2.57       0.0  T
   2   -150.2073357 -0.274555E-06  0.632E-03    2.57       1.6  T
   3   -150.2073355  0.168647E-06  0.191E-03    2.57       5.3  T
   4   -150.2073357 -0.214885E-06  0.658E-04    2.57      15.3  T
   5   -150.2073358 -0.176597E-07  0.308E-04    2.57      32.8  T
     SCC iter.                  ...        0 min,  0.093 sec
     gradient                   ...        0 min,  0.189 sec
 * total energy  :  -148.2002579 Eh     change       -0.4383994E-04 Eh
   gradient norm :     0.0025278 Eh/α   predicted    -0.2856927E-04 ( -34.83%)
   displ. norm   :     0.1921970 α      lambda       -0.7266323E-04
   maximum displ.:     0.0828546 α      in ANC's #2, #3, #5, ...

........................................................................
.............................. CYCLE   36 ..............................
........................................................................

 iter      E             dE          RMSdq      gap      omega  full diag
   1   -150.2089579 -0.150209E+03  0.208E-02    2.58       0.0  T
   2   -150.2089588 -0.907364E-06  0.121E-02    2.58       1.0  T
   3   -150.2089585  0.341193E-06  0.278E-03    2.58       3.6  T
   4   -150.2089589 -0.424978E-06  0.103E-03    2.58       9.8  T
   5   -150.2089589 -0.638685E-07  0.449E-04    2.58      22.5  T
   6   -150.2089589 -0.375445E-08  0.200E-04    2.58      50.6  T
     SCC iter.                  ...        0 min,  0.098 sec
     gradient                   ...        0 min,  0.211 sec
 * total energy  :  -148.2003076 Eh     change       -0.4965201E-04 Eh
   gradient norm :     0.0024427 Eh/α   predicted    -0.3767855E-04 ( -24.11%)
   displ. norm   :     0.1850937 α      lambda       -0.3796705E-04
   maximum displ.:     0.0818401 α      in ANC's #2, #3, #5, ...

........................................................................
.............................. CYCLE   37 ..............................
........................................................................

 iter      E             dE          RMSdq      gap      omega  full diag
   1   -150.2089644 -0.150209E+03  0.188E-02    2.58       0.0  T
   2   -150.2089649 -0.529834E-06  0.110E-02    2.58       1.0  T
   3   -150.2089643  0.586291E-06  0.304E-03    2.58       3.3  T
   4   -150.2089650 -0.656427E-06  0.994E-04    2.58      10.2  T
   5   -150.2089651 -0.678742E-07  0.343E-04    2.58      29.4  T
     SCC iter.                  ...        0 min,  0.094 sec
     gradient                   ...        0 min,  0.197 sec
 * total energy  :  -148.2003364 Eh     change       -0.2889102E-04 Eh
   gradient norm :     0.0025264 Eh/α   predicted    -0.1963412E-04 ( -32.04%)
   displ. norm   :     0.1980595 α      lambda       -0.3906136E-04
   maximum displ.:     0.0894005 α      in ANC's #2, #3, #5, ...

........................................................................
.............................. CYCLE   38 ..............................
........................................................................

 iter      E             dE          RMSdq      gap      omega  full diag
   1   -150.2082641 -0.150208E+03  0.208E-02    2.58       0.0  T
   2   -150.2082646 -0.482183E-06  0.121E-02    2.58       1.0  T
   3   -150.2082638  0.785886E-06  0.332E-03    2.58       3.0  T
   4   -150.2082647 -0.883780E-06  0.960E-04    2.58      10.5  T
   5   -150.2082647 -0.595513E-07  0.349E-04    2.58      28.9  T
     SCC iter.                  ...        0 min,  0.089 sec
     gradient                   ...        0 min,  0.187 sec
 * total energy  :  -148.2003664 Eh     change       -0.2999056E-04 Eh
   gradient norm :     0.0021609 Eh/α   predicted    -0.2029703E-04 ( -32.32%)
   displ. norm   :     0.1984741 α      lambda       -0.3881618E-04
   maximum displ.:     0.0921913 α      in ANC's #2, #3, #12, ...

........................................................................
.............................. CYCLE   39 ..............................
........................................................................

 iter      E             dE          RMSdq      gap      omega  full diag
   1   -150.2076886 -0.150208E+03  0.218E-02    2.58       0.0  T
   2   -150.2076891 -0.477895E-06  0.128E-02    2.58       1.0  T
   3   -150.2076878  0.127390E-05  0.416E-03    2.58       2.4  T
   4   -150.2076893 -0.145563E-05  0.950E-04    2.58      10.6  T
   5   -150.2076894 -0.473369E-07  0.411E-04    2.58      24.6  T
   6   -150.2076894 -0.227379E-08  0.171E-04    2.58      59.2  T
     SCC iter.                  ...        0 min,  0.089 sec
     gradient                   ...        0 min,  0.168 sec
 * total energy  :  -148.2003946 Eh     change       -0.2816325E-04 Eh
   gradient norm :     0.0017932 Eh/α   predicted    -0.2017405E-04 ( -28.37%)
   displ. norm   :     0.2464458 α      lambda       -0.2970083E-04
   maximum displ.:     0.1181537 α      in ANC's #2, #3, #12, ...

........................................................................
.............................. CYCLE   40 ..............................
........................................................................

 iter      E             dE          RMSdq      gap      omega  full diag
   1   -150.2069790 -0.150207E+03  0.278E-02    2.58       0.0  T
   2   -150.2069798 -0.790060E-06  0.163E-02    2.58       1.0  T
   3   -150.2069791  0.700890E-06  0.342E-03    2.58       3.0  T
   4   -150.2069800 -0.864137E-06  0.122E-03    2.58       8.3  T
   5   -150.2069800 -0.748562E-07  0.540E-04    2.58      18.7  T
   6   -150.2069800 -0.545856E-08  0.234E-04    2.58      43.2  T
     SCC iter.                  ...        0 min,  0.082 sec
     gradient                   ...        0 min,  0.163 sec
 * total energy  :  -148.2004192 Eh     change       -0.2455117E-04 Eh
   gradient norm :     0.0023642 Eh/α   predicted    -0.1525299E-04 ( -37.87%)
   displ. norm   :     0.0635212 α      lambda       -0.1721725E-04
   maximum displ.:     0.0301171 α      in ANC's #2, #10, #3, ...

........................................................................
.............................. CYCLE   41 ..............................
........................................................................

 iter      E             dE          RMSdq      gap      omega  full diag
   1   -150.2076926 -0.150208E+03  0.809E-03    2.58       0.0  T
   2   -150.2076927 -0.172237E-06  0.471E-03    2.58       2.1  T
   3   -150.2076926  0.122368E-06  0.152E-03    2.58       6.6  T
   4   -150.2076928 -0.153073E-06  0.483E-04    2.58      20.9  T
   5   -150.2076928 -0.127492E-07  0.211E-04    2.58      47.8  T
     SCC iter.                  ...        0 min,  0.067 sec
     gradient                   ...        0 min,  0.149 sec
 * total energy  :  -148.2004319 Eh     change       -0.1276414E-04 Eh
   gradient norm :     0.0019520 Eh/α   predicted    -0.8646628E-05 ( -32.26%)
   displ. norm   :     0.1308684 α      lambda       -0.2329216E-04
   maximum displ.:     0.0594918 α      in ANC's #2, #10, #3, ...

........................................................................
.............................. CYCLE   42 ..............................
........................................................................

 iter      E             dE          RMSdq      gap      omega  full diag
   1   -150.2091305 -0.150209E+03  0.164E-02    2.58       0.0  T
   2   -150.2091313 -0.793635E-06  0.938E-03    2.58       1.1  T
   3   -150.2091309  0.360705E-06  0.279E-03    2.58       3.6  T
   4   -150.2091314 -0.438844E-06  0.112E-03    2.58       9.0  T
   5   -150.2091314 -0.847119E-07  0.427E-04    2.58      23.6  T
   6   -150.2091315 -0.311874E-08  0.189E-04    2.58      53.4  T
     SCC iter.                  ...        0 min,  0.072 sec
     gradient                   ...        0 min,  0.169 sec
 * total energy  :  -148.2004514 Eh     change       -0.1949548E-04 Eh
   gradient norm :     0.0015551 Eh/α   predicted    -0.1173647E-04 ( -39.80%)
   displ. norm   :     0.0706773 α      lambda       -0.9483015E-05
   maximum displ.:     0.0370925 α      in ANC's #2, #3, #10, ...
 * RMSD in coord.:     0.5291064 α      energy gain  -0.2232995E-02 Eh

generating ANC from exact Hessian ...
Using Lindh-Hessian (1995)
 Shifting diagonal of input Hessian by    1.0048833045446601E-002
 Lowest  eigenvalues of input Hessian
    0.010000    0.000000    0.000000    0.000000    0.000000    0.000000
    0.000000    0.010148    0.010304    0.010318    0.010397    0.010442
    0.010519    0.010549    0.010646    0.010699    0.010905    0.011012
 Highest eigenvalues
    2.057607    2.110216    2.154863    2.321928    2.420883    2.539935


........................................................................
.............................. CYCLE   43 ..............................
........................................................................

 iter      E             dE          RMSdq      gap      omega  full diag
   1   -150.2086588 -0.150209E+03  0.769E-03    2.59       0.0  T
   2   -150.2086590 -0.172268E-06  0.436E-03    2.59       2.3  T
   3   -150.2086590  0.391881E-07  0.121E-03    2.59       8.4  T
   4   -150.2086590 -0.567530E-07  0.475E-04    2.59      21.3  T
   5   -150.2086590 -0.111063E-07  0.230E-04    2.59      43.9  T
     SCC iter.                  ...        0 min,  0.077 sec
     gradient                   ...        0 min,  0.152 sec
 * total energy  :  -148.2004621 Eh     change       -0.1071142E-04 Eh
   gradient norm :     0.0011379 Eh/α   predicted     0.0000000E+00 (-100.00%)
   displ. norm   :     0.0279061 α      lambda       -0.7499546E-05
   maximum displ.:     0.0125001 α      in ANC's #4, #2, #10, ...

........................................................................
.............................. CYCLE   44 ..............................
........................................................................

 iter      E             dE          RMSdq      gap      omega  full diag
   1   -150.2080779 -0.150208E+03  0.542E-03    2.59       0.0  T
   2   -150.2080779 -0.674927E-07  0.304E-03    2.59       3.3  T
   3   -150.2080779  0.122991E-07  0.736E-04    2.58      13.7  T
   4   -150.2080780 -0.200552E-07  0.318E-04    2.58      31.8  T
     SCC iter.                  ...        0 min,  0.069 sec
     gradient                   ...        0 min,  0.196 sec
 * total energy  :  -148.2004698 Eh     change       -0.7640670E-05 Eh
   gradient norm :     0.0005929 Eh/α   predicted    -0.3755273E-05 ( -50.85%)
   displ. norm   :     0.0638074 α      lambda       -0.9868113E-05
   maximum displ.:     0.0305777 α      in ANC's #4, #2, #10, ...

........................................................................
.............................. CYCLE   45 ..............................
........................................................................

 iter      E             dE          RMSdq      gap      omega  full diag
   1   -150.2074690 -0.150207E+03  0.927E-03    2.59       0.0  T
   2   -150.2074692 -0.191532E-06  0.530E-03    2.59       1.9  T
   3   -150.2074691  0.757293E-07  0.144E-03    2.58       7.0  T
   4   -150.2074692 -0.938932E-07  0.591E-04    2.58      17.1  T
   5   -150.2074692 -0.202177E-07  0.238E-04    2.58      42.4  T
     SCC iter.                  ...        0 min,  0.063 sec
     gradient                   ...        0 min,  0.152 sec
 * total energy  :  -148.2004798 Eh     change       -0.9997419E-05 Eh
   gradient norm :     0.0010659 Eh/α   predicted    -0.4966350E-05 ( -50.32%)
   displ. norm   :     0.0830329 α      lambda       -0.8641695E-05
   maximum displ.:     0.0411714 α      in ANC's #4, #2, #10, ...

........................................................................
.............................. CYCLE   46 ..............................
........................................................................

 iter      E             dE          RMSdq      gap      omega  full diag
   1   -150.2075489 -0.150208E+03  0.116E-02    2.59       0.0  T
   2   -150.2075491 -0.178725E-06  0.668E-03    2.59       1.5  T
   3   -150.2075490  0.127296E-06  0.157E-03    2.59       6.4  T
   4   -150.2075492 -0.168278E-06  0.570E-04    2.59      17.7  T
   5   -150.2075492 -0.120618E-07  0.261E-04    2.59      38.7  T
     SCC iter.                  ...        0 min,  0.060 sec
     gradient                   ...        0 min,  0.172 sec
 * total energy  :  -148.2004896 Eh     change       -0.9804804E-05 Eh
   gradient norm :     0.0009872 Eh/α   predicted    -0.4339538E-05 ( -55.74%)
   displ. norm   :     0.1126260 α      lambda       -0.9822172E-05
   maximum displ.:     0.0567764 α      in ANC's #4, #2, #10, ...

........................................................................
.............................. CYCLE   47 ..............................
........................................................................

 iter      E             dE          RMSdq      gap      omega  full diag
   1   -150.2077637 -0.150208E+03  0.148E-02    2.59       0.0  T
   2   -150.2077639 -0.187145E-06  0.848E-03    2.59       1.2  T
   3   -150.2077637  0.243607E-06  0.204E-03    2.59       4.9  T
   4   -150.2077640 -0.307234E-06  0.703E-04    2.59      14.4  T
   5   -150.2077640 -0.120624E-07  0.297E-04    2.59      34.0  T
     SCC iter.                  ...        0 min,  0.063 sec
     gradient                   ...        0 min,  0.183 sec
 * total energy  :  -148.2005013 Eh     change       -0.1171612E-04 Eh
   gradient norm :     0.0008023 Eh/α   predicted    -0.4941667E-05 ( -57.82%)
   displ. norm   :     0.1428392 α      lambda       -0.1106014E-04
   maximum displ.:     0.0731609 α      in ANC's #4, #2, #10, ...

........................................................................
.............................. CYCLE   48 ..............................
........................................................................

 iter      E             dE          RMSdq      gap      omega  full diag
   1   -150.2080125 -0.150208E+03  0.186E-02    2.59       0.0  T
   2   -150.2080128 -0.242224E-06  0.106E-02    2.59       1.0  T
   3   -150.2080125  0.249638E-06  0.220E-03    2.59       4.6  T
   4   -150.2080128 -0.327079E-06  0.861E-04    2.59      11.7  T
   5   -150.2080129 -0.201201E-07  0.327E-04    2.59      30.9  T
     SCC iter.                  ...        0 min,  0.080 sec
     gradient                   ...        0 min,  0.152 sec
 * total energy  :  -148.2005142 Eh     change       -0.1288977E-04 Eh
   gradient norm :     0.0007782 Eh/α   predicted    -0.5586601E-05 ( -56.66%)
   displ. norm   :     0.1483582 α      lambda       -0.9778340E-05
   maximum displ.:     0.0775449 α      in ANC's #4, #2, #10, ...

........................................................................
.............................. CYCLE   49 ..............................
........................................................................

 iter      E             dE          RMSdq      gap      omega  full diag
   1   -150.2082143 -0.150208E+03  0.182E-02    2.59       0.0  T
   2   -150.2082145 -0.242357E-06  0.104E-02    2.59       1.0  T
   3   -150.2082144  0.144053E-06  0.187E-03    2.59       5.4  T
   4   -150.2082146 -0.205896E-06  0.845E-04    2.59      11.9  T
   5   -150.2082146 -0.228529E-07  0.318E-04    2.59      31.7  T
     SCC iter.                  ...        0 min,  0.084 sec
     gradient                   ...        0 min,  0.159 sec
 * total energy  :  -148.2005254 Eh     change       -0.1126347E-04 Eh
   gradient norm :     0.0007411 Eh/α   predicted    -0.4937180E-05 ( -56.17%)
   displ. norm   :     0.1400095 α      lambda       -0.8277683E-05
   maximum displ.:     0.0750928 α      in ANC's #2, #4, #10, ...

........................................................................
.............................. CYCLE   50 ..............................
........................................................................

 iter      E             dE          RMSdq      gap      omega  full diag
   1   -150.2082601 -0.150208E+03  0.163E-02    2.59       0.0  T
   2   -150.2082603 -0.209968E-06  0.929E-03    2.59       1.1  T
   3   -150.2082603  0.192967E-07  0.133E-03    2.59       7.6  T
   4   -150.2082603 -0.617900E-07  0.722E-04    2.59      14.0  T
   5   -150.2082604 -0.194082E-07  0.269E-04    2.59      37.6  T
     SCC iter.                  ...        0 min,  0.060 sec
     gradient                   ...        0 min,  0.163 sec
 * total energy  :  -148.2005352 Eh     change       -0.9761119E-05 Eh
   gradient norm :     0.0006293 Eh/α   predicted    -0.4177724E-05 ( -57.20%)
   displ. norm   :     0.1421441 α      lambda       -0.8137791E-05
   maximum displ.:     0.0780918 α      in ANC's #2, #4, #10, ...

........................................................................
.............................. CYCLE   51 ..............................
........................................................................

 iter      E             dE          RMSdq      gap      omega  full diag
   1   -150.2082592 -0.150208E+03  0.151E-02    2.59       0.0  T
   2   -150.2082594 -0.212531E-06  0.859E-03    2.60       1.2  T
   3   -150.2082594 -0.218371E-07  0.112E-03    2.59       9.0  T
   4   -150.2082594 -0.254382E-07  0.577E-04    2.60      17.5  T
   5   -150.2082594 -0.789882E-08  0.231E-04    2.60      43.7  T
     SCC iter.                  ...        0 min,  0.060 sec
     gradient                   ...        0 min,  0.174 sec
 * total energy  :  -148.2005449 Eh     change       -0.9745940E-05 Eh
   gradient norm :     0.0005711 Eh/α   predicted    -0.4110274E-05 ( -57.83%)
   displ. norm   :     0.1554341 α      lambda       -0.8525756E-05
   maximum displ.:     0.0867192 α      in ANC's #2, #4, #10, ...

........................................................................
.............................. CYCLE   52 ..............................
........................................................................

 iter      E             dE          RMSdq      gap      omega  full diag
   1   -150.2081256 -0.150208E+03  0.157E-02    2.60       0.0  T
   2   -150.2081258 -0.263662E-06  0.897E-03    2.60       1.1  T
   3   -150.2081258 -0.254103E-07  0.120E-03    2.60       8.4  T
   4   -150.2081259 -0.307313E-07  0.575E-04    2.60      17.6  T
   5   -150.2081259 -0.414715E-08  0.260E-04    2.60      38.8  T
     SCC iter.                  ...        0 min,  0.082 sec
     gradient                   ...        0 min,  0.197 sec
 * total energy  :  -148.2005550 Eh     change       -0.1006031E-04 Eh
   gradient norm :     0.0005874 Eh/α   predicted    -0.4312527E-05 ( -57.13%)
   displ. norm   :     0.1679523 α      lambda       -0.8559859E-05
   maximum displ.:     0.0943331 α      in ANC's #2, #4, #10, ...

........................................................................
.............................. CYCLE   53 ..............................
........................................................................

 iter      E             dE          RMSdq      gap      omega  full diag
   1   -150.2079678 -0.150208E+03  0.162E-02    2.60       0.0  T
   2   -150.2079681 -0.318133E-06  0.928E-03    2.60       1.1  T
   3   -150.2079681 -0.511824E-08  0.137E-03    2.60       7.4  T
   4   -150.2079682 -0.541158E-07  0.644E-04    2.60      15.7  T
   5   -150.2079682 -0.700749E-08  0.355E-04    2.60      28.5  T
     SCC iter.                  ...        0 min,  0.067 sec
     gradient                   ...        0 min,  0.201 sec
 * total energy  :  -148.2005647 Eh     change       -0.9743814E-05 Eh
   gradient norm :     0.0006331 Eh/α   predicted    -0.4337961E-05 ( -55.48%)
   displ. norm   :     0.1604436 α      lambda       -0.7532868E-05
   maximum displ.:     0.0908246 α      in ANC's #2, #4, #10, ...

........................................................................
.............................. CYCLE   54 ..............................
........................................................................

 iter      E             dE          RMSdq      gap      omega  full diag
   1   -150.2079006 -0.150208E+03  0.152E-02    2.60       0.0  T
   2   -150.2079009 -0.296962E-06  0.879E-03    2.60       1.1  T
   3   -150.2079008  0.637472E-07  0.154E-03    2.60       6.6  T
   4   -150.2079009 -0.104324E-06  0.718E-04    2.60      14.1  T
   5   -150.2079009 -0.223032E-07  0.343E-04    2.60      29.5  T
     SCC iter.                  ...        0 min,  0.099 sec
     gradient                   ...        0 min,  0.244 sec
 * total energy  :  -148.2005731 Eh     change       -0.8309067E-05 Eh
   gradient norm :     0.0005561 Eh/α   predicted    -0.3813777E-05 ( -54.10%)
   displ. norm   :     0.1261609 α      lambda       -0.5750663E-05
   maximum displ.:     0.0717818 α      in ANC's #2, #4, #10, ...

........................................................................
.............................. CYCLE   55 ..............................
........................................................................

 iter      E             dE          RMSdq      gap      omega  full diag
   1   -150.2079245 -0.150208E+03  0.122E-02    2.60       0.0  T
   2   -150.2079247 -0.210096E-06  0.705E-03    2.60       1.4  T
   3   -150.2079246  0.965314E-07  0.147E-03    2.60       6.8  T
   4   -150.2079247 -0.119410E-06  0.645E-04    2.60      15.7  T
   5   -150.2079247 -0.243631E-07  0.253E-04    2.60      40.0  T
     SCC iter.                  ...        0 min,  0.086 sec
     gradient                   ...        0 min,  0.210 sec
 * total energy  :  -148.2005793 Eh     change       -0.6289547E-05 Eh
   gradient norm :     0.0004037 Eh/α   predicted    -0.2897823E-05 ( -53.93%)
   displ. norm   :     0.0915535 α      lambda       -0.4134120E-05
   maximum displ.:     0.0519985 α      in ANC's #2, #4, #10, ...

........................................................................
.............................. CYCLE   56 ..............................
........................................................................

 iter      E             dE          RMSdq      gap      omega  full diag
   1   -150.2080164 -0.150208E+03  0.964E-03    2.61       0.0  T
   2   -150.2080165 -0.109820E-06  0.561E-03    2.61       1.8  T
   3   -150.2080164  0.100094E-06  0.126E-03    2.61       8.0  T
   4   -150.2080165 -0.114392E-06  0.479E-04    2.61      21.1  T
   5   -150.2080166 -0.145334E-07  0.165E-04    2.61      61.4  T
     SCC iter.                  ...        0 min,  0.081 sec
     gradient                   ...        0 min,  0.191 sec
 * total energy  :  -148.2005838 Eh     change       -0.4492307E-05 Eh
   gradient norm :     0.0002957 Eh/α   predicted    -0.2077506E-05 ( -53.75%)
   displ. norm   :     0.0688770 α      lambda       -0.2976737E-05
   maximum displ.:     0.0388427 α      in ANC's #2, #4, #1, ...

   *** GEOMETRY OPTIMIZATION CONVERGED AFTER 56 ITERATIONS ***

------------------------------------------------------------------------
 total energy gain   :        -0.0305743 Eh      -19.1856 kcal/mol
 total RMSD          :         1.0999014 a0        0.5820 Å
 total power (kW/mol):        -1.4334415 (step)   -3.6847 (real)
------------------------------------------------------------------------

 ANCopt (total)                0 d,  0 h,  0 min, 21.785 sec
 optimizer setup                ...        0 min,  0.000 sec (  0.001%)
 model hessian                  ...        0 min,  0.277 sec (  1.273%)
 ANC generation                 ...        0 min,  0.028 sec (  0.128%)
 coordinate transformation      ...        0 min,  0.003 sec (  0.014%)
 single point calculation       ...        0 min, 21.406 sec ( 98.258%)
 optimization log               ...        0 min,  0.017 sec (  0.077%)
 hessian update                 ...        0 min,  0.003 sec (  0.014%)
 rational function              ...        0 min,  0.048 sec (  0.222%)

================
 final structure:
================
98
 xtb: 6.7.1 (edcfbbe)
O           -4.10212114876453        0.37763239432372        0.13864102992426
C           -3.87326936216614        1.20251074703491       -0.71296174089499
N           -2.81305904825712        1.20184792771912       -1.53996326962109
C           -1.81755138096528        0.15116315395536       -1.53454975262409
C           -1.59877271049186       -0.40182604975540       -2.95434570824948
C           -1.18771258334723        0.64851468376114       -3.94557748787392
C           -2.14833740582639        1.39303560290352       -4.62161201688278
C           -1.77638802421137        2.38709836953067       -5.51075294378777
C           -0.43655592049027        2.64918786904493       -5.73604218731449
C            0.52744864649672        1.90465697359870       -5.07709005875071
C            0.15357699850783        0.91013191264430       -4.19276686802741
C           -0.51968500667450        0.65407066319587       -0.85700681421133
C           -0.73039593252100        0.92026944824651        0.64045621784365
C           -1.09443339916109       -0.32349598294409        1.46005779343391
N           -0.11169757024472       -1.38069650290260        1.29157644898026
C            1.18324724869220       -1.26934396313446        1.63689156977276
C            1.98000294341243       -2.53128844242769        1.25940707278970
N            2.38414921492605       -2.41948368001960       -0.13081867982654
C            1.51069195163003       -2.72871686507129       -1.12854668667124
N            1.99996143130955       -2.56677151809019       -2.39906803307916
C            1.20092186947073       -2.98820771085643       -3.52465768862033
C            3.34560178170205       -2.09648404404859       -2.67640682545508
C            3.46075364495656       -0.61205937760163       -2.47306116824629
C            3.51715072050853        0.35316564142887       -3.42918625038411
S            3.54031989283240        1.91848280783361       -2.71197410150510
[...]
       130        1.9913           -0.3888600             -10.5814
       131        1.9398           -0.3869685             -10.5299
       132        1.8959           -0.3864029             -10.5146
       133        1.7523           -0.3854127             -10.4876
       134        1.4207           -0.3840534             -10.4506
       135        0.5460           -0.2435874              -6.6284 (HOMO)
       136        0.4540           -0.2432371              -6.6188 (LUMO)
       137        0.0000           -0.2291952              -6.2367
       138                         -0.2277956              -6.1986
       139                         -0.2262871              -6.1576
       140                         -0.2160270              -5.8784
       ...                                ...                  ...
       258                          0.6742693              18.3478
      -------------------------------------------------------------
                  HL-Gap            0.0003504 Eh            0.0095 eV
             Fermi-level           -0.3138848 Eh           -8.5412 eV

 transition dipole moment (au) for excitation:         134         135
     X       Y       Z   
   0.0246   0.3190  -0.9041  total (au/Debye):    0.959   2.438
 dE (eV)             :    3.822
 oscillator strength :  0.12182E+00

 SCC (total)                   0 d,  0 h,  0 min,  0.841 sec
 SCC setup                      ...        0 min,  0.001 sec (  0.178%)
 Dispersion                     ...        0 min,  0.002 sec (  0.275%)
 classical contributions        ...        0 min,  0.001 sec (  0.088%)
 integral evaluation            ...        0 min,  0.032 sec (  3.819%)
 iterations                     ...        0 min,  0.569 sec ( 67.623%)
 molecular gradient             ...        0 min,  0.208 sec ( 24.758%)
 printout                       ...        0 min,  0.027 sec (  3.259%)

         :::::::::::::::::::::::::::::::::::::::::::::::::::::
         ::                     SUMMARY                     ::
         :::::::::::::::::::::::::::::::::::::::::::::::::::::
         :: total energy            -148.071188508567 Eh    ::
         :: gradient norm              0.091461206428 Eh/a0 ::
         :: HOMO-LUMO gap              0.009534379853 eV    ::
         ::.................................................::
         :: SCC energy              -150.070938793731 Eh    ::
         :: -> isotropic ES            0.185832565316 Eh    ::
         :: -> anisotropic ES          0.003136193720 Eh    ::
         :: -> anisotropic XC          0.058602334125 Eh    ::
         :: -> dispersion             -0.132204315972 Eh    ::
         :: repulsion energy           1.999750285164 Eh    ::
         :: add. restraining           0.000000000000 Eh    ::
         :: total charge               0.000000000421 e     ::
         :::::::::::::::::::::::::::::::::::::::::::::::::::::

           -------------------------------------------------
          |                Property Printout                |
           -------------------------------------------------

    * Orbital Energies and Occupations

         #    Occupation            Energy/Eh            Energy/eV
      -------------------------------------------------------------
         1        2.0000           -0.7424541             -20.2032
       ...           ...                  ...                  ...
       123        2.0000           -0.4097438             -11.1497
       124        2.0000           -0.4072302             -11.0813
       125        2.0000           -0.4037380             -10.9863
       126        2.0000           -0.4029833             -10.9657
       127        2.0000           -0.3969433             -10.8014
       128        2.0000           -0.3954947             -10.7620
       129        2.0000           -0.3944239             -10.7328
       130        1.9913           -0.3888600             -10.5814
       131        1.9398           -0.3869685             -10.5299
       132        1.8959           -0.3864029             -10.5146
       133        1.7523           -0.3854127             -10.4876
       134        1.4207           -0.3840534             -10.4506
       135        0.5460           -0.2435874              -6.6284 (HOMO)
       136        0.4540           -0.2432371              -6.6188 (LUMO)
       137        0.0000           -0.2291952              -6.2367
       138                         -0.2277956              -6.1986
       139                         -0.2262871              -6.1576
       140                         -0.2160270              -5.8784
       141                         -0.2149528              -5.8492
       142                         -0.2026408              -5.5141
       143                         -0.1999210              -5.4401
       144                         -0.1942878              -5.2868
       145                         -0.1881404              -5.1196
       146                         -0.1838095              -5.0017
       ...                                ...                  ...
       258                          0.6742693              18.3478
      -------------------------------------------------------------
                  HL-Gap            0.0003504 Eh            0.0095 eV
             Fermi-level           -0.3138848 Eh           -8.5412 eV

     #   Z          covCN         q      C6AA      α(0)
     1   8 O        0.859    -0.458    22.872     6.412
     2   6 C        2.659     0.406    20.157     7.346
     3   7 N        2.689    -0.201    25.367     7.480
     4   6 C        3.790     0.032    20.039     6.375
     5   6 C        3.809    -0.074    21.914     6.664
     6   6 C        2.968     0.013    27.718     8.636
     7   6 C        2.925    -0.045    29.117     8.849
     8   6 C        2.918    -0.032    28.803     8.801
     9   6 C        2.920    -0.032    28.799     8.800
    10   6 C        2.919    -0.027    28.673     8.781
    11   6 C        2.925    -0.028    28.693     8.784
    12   6 C        3.725     0.108    18.901     6.208
    13   6 C        3.804    -0.084    22.104     6.693
    14   6 C        3.791     0.045    19.831     6.342
    15   7 N        2.691    -0.174    24.777     7.393
    16   6 C        2.750     0.278    22.298     7.732
    17   6 C        3.801     0.022    20.201     6.399
    18   7 N        2.695    -0.215    25.676     7.526
    19   6 C        2.701     0.319    21.584     7.604
    20   7 N        2.740    -0.108    23.364     7.179
    21   6 C        3.698    -0.045    21.551     6.640
    22   6 C        3.747    -0.007    20.769     6.500
    23   6 C        3.197     0.057    26.215     8.346
    24   6 C        2.926    -0.053    29.309     8.878
    25  16 S        2.289    -0.068   143.871    20.188
    26   6 C        3.012     0.102    25.733     8.321
    27   6 C        3.868    -0.015    20.807     6.486
    28   6 C        3.758    -0.103    22.512     6.764
    29   6 C        3.758    -0.111    22.674     6.789
    30   7 N        1.983    -0.288    28.266     7.885
    31   8 O        0.859    -0.508    23.959     6.563
    32   6 C        3.851    -0.010    20.726     6.475
    33   6 C        3.755    -0.118    22.818     6.811
    34   6 C        3.757    -0.111    22.684     6.791
    35   8 O        0.858    -0.403    21.745     6.252
    36   6 C        3.811    -0.078    21.977     6.673
    37   6 C        2.972     0.015    27.685     8.631
    38   6 C        2.925    -0.039    28.972     8.827
    39   6 C        2.919    -0.029    28.719     8.788
    40   6 C        2.920    -0.033    28.813     8.802
    41   6 C        2.919    -0.032    28.797     8.800
    42   6 C        2.925    -0.040    28.984     8.829
    43   8 O        1.655    -0.439    21.622     6.277
    44   8 O        1.706    -0.311    19.181     5.913
    45   6 C        3.726     0.090    19.185     6.254
    46   6 C        2.973    -0.022    28.555     8.765
    47   6 C        3.197     0.022    26.985     8.468
    48   7 N        1.957    -0.200    26.159     7.585
    49   6 C        2.998     0.045    26.983     8.521
    50  16 S        2.288    -0.055   143.337    20.150
    51   1 H        0.860     0.192     1.150     1.680
    52   1 H        0.924     0.071     2.079     2.255
    53   1 H        0.924     0.049     2.337     2.391
    54   1 H        0.925     0.058     2.227     2.334
    55   1 H        0.925     0.027     2.631     2.536
    56   1 H        0.926     0.030     2.593     2.518
    57   1 H        0.926     0.031     2.568     2.506
    58   1 H        0.926     0.036     2.503     2.474
    59   1 H        0.926     0.036     2.500     2.473
    60   1 H        0.924     0.044     2.394     2.420
    61   1 H        0.924     0.045     2.389     2.417
    62   1 H        0.924     0.076     2.026     2.226
    63   1 H        0.924     0.071     2.073     2.251
    64   1 H        0.860     0.207     1.070     1.621
    65   1 H        0.924     0.068     2.109     2.271
    66   1 H        0.860     0.226     0.982     1.552
    67   1 H        0.925     0.088     1.900     2.156
    68   1 H        0.924     0.051     2.303     2.373
    69   1 H        0.924     0.055     2.257     2.349
    70   1 H        0.924     0.057     2.236     2.339
    71   1 H        0.924     0.057     2.238     2.339
    72   1 H        0.926     0.029     2.606     2.524
    73   1 H        0.924     0.068     2.112     2.273
    74   1 H        0.925     0.040     2.450     2.448
    75   1 H        0.925     0.045     2.383     2.414
    76   1 H        0.925     0.039     2.461     2.453
    77   1 H        0.925     0.040     2.448     2.447
    78   1 H        0.925     0.053     2.280     2.361
    79   1 H        0.925     0.042     2.418     2.432
    80   1 H        0.924     0.042     2.422     2.434
    81   1 H        0.925     0.038     2.475     2.460
    82   1 H        0.925     0.074     2.042     2.235
    83   1 H        0.925     0.044     2.398     2.422
    84   1 H        0.925     0.036     2.504     2.474
    85   1 H        0.925     0.046     2.376     2.410
    86   1 H        0.925     0.053     2.278     2.360
    87   1 H        0.924     0.061     2.191     2.315
    88   1 H        0.925     0.068     2.103     2.268
    89   1 H        0.926     0.051     2.310     2.377
    90   1 H        0.926     0.033     2.545     2.495
    91   1 H        0.926     0.029     2.604     2.523
    92   1 H        0.926     0.027     2.622     2.532
    93   1 H        0.926     0.030     2.581     2.512
    94   1 H        0.805     0.292     0.745     1.356
    95   1 H        0.924     0.058     2.223     2.332
    96   1 H        0.924     0.054     2.274     2.358
    97   1 H        0.926     0.037     2.493     2.469
    98   1 H        0.926     0.042     2.424     2.435

 Mol. C6AA /au·bohr⁶  :     109758.029971
 Mol. C8AA /au·bohr⁸  :    2702095.605915
 Mol. α(0) /au        :        512.576952


Wiberg/Mayer (AO) data.
largest (>0.10) Wiberg bond orders for each atom

 ---------------------------------------------------------------------------
     #   Z sym  total        # sym  WBO       # sym  WBO       # sym  WBO
 ---------------------------------------------------------------------------
     1   8 O    1.988 --     2 C    1.623     3 N    0.162    44 O    0.128
     2   6 C    3.940 --     1 O    1.623     3 N    1.217    44 O    1.051
     3   7 N    3.406 --     2 C    1.217     4 C    0.985    51 H    0.923
                             1 O    0.162
     4   6 C    3.958 --     3 N    0.985     5 C    0.970    12 C    0.957
                            52 H    0.950
     5   6 C    3.992 --     6 C    1.014    53 H    0.970     4 C    0.970
                            54 H    0.965
     6   6 C    3.987 --     7 C    1.410    11 C    1.408     5 C    1.014
                             9 C    0.109
     7   6 C    3.990 --     8 C    1.441     6 C    1.410    55 H    0.967
                            10 C    0.109
     8   6 C    3.992 --     9 C    1.441     7 C    1.441    56 H    0.971
                            11 C    0.111
     9   6 C    3.990 --     8 C    1.441    10 C    1.435    57 H    0.971
                             6 C    0.109
    10   6 C    3.992 --    11 C    1.448     9 C    1.435    58 H    0.970
                             7 C    0.109
    11   6 C    3.988 --    10 C    1.448     6 C    1.408    59 H    0.962
                             8 C    0.111
    12   6 C    3.953 --    43 O    0.994    13 C    0.985    60 H    0.959
                             4 C    0.957
    13   6 C    3.988 --    12 C    0.985    14 C    0.985    61 H    0.970
                            62 H    0.965
    14   6 C    3.954 --    13 C    0.985    15 N    0.973    36 C    0.969
                            63 H    0.951
    15   7 N    3.466 --    16 C    1.305    14 C    0.973    64 H    0.909
                            35 O    0.195
    16   6 C    3.932 --    35 O    1.656    15 N    1.305    17 C    0.892
    17   6 C    3.934 --    18 N    0.996    32 C    0.971    65 H    0.951
                            16 C    0.892
    18   7 N    3.336 --    19 C    1.168    17 C    0.996    66 H    0.850
                            31 O    0.128
    19   6 C    3.960 --    31 O    1.551    20 N    1.170    18 N    1.168
    20   7 N    3.424 --    19 C    1.170    21 C    1.003    22 C    0.975
                            31 O    0.147
    21   6 C    3.959 --    20 N    1.003    68 H    0.972    69 H    0.971
                            67 H    0.970
    22   6 C    3.969 --    23 C    0.988    20 N    0.975    70 H    0.970
                            71 H    0.959
    23   6 C    3.837 --    24 C    1.409    30 N    1.275    22 C    0.988
    24   6 C    3.709 --    23 C    1.409    25 S    1.198    72 H    0.971
    25  16 S    2.421 --    24 C    1.198    26 C    1.008    30 N    0.100
    26   6 C    3.667 --    30 N    1.480    27 C    1.021    25 S    1.008
    27   6 C    3.987 --    26 C    1.021    29 C    1.002    28 C    0.974
                            73 H    0.946
    28   6 C    3.974 --    76 H    0.987    74 H    0.987    75 H    0.982
                            27 C    0.974
    29   6 C    3.988 --    27 C    1.002    77 H    0.985    79 H    0.982
                            78 H    0.980
    30   7 N    3.103 --    26 C    1.480    23 C    1.275    25 S    0.100
    31   8 O    1.924 --    19 C    1.551    20 N    0.147    18 N    0.128
    32   6 C    3.983 --    33 C    1.010    34 C    1.008    17 C    0.971
                            80 H    0.960
    33   6 C    3.987 --    32 C    1.010    83 H    0.983    81 H    0.982
                            82 H    0.972
    34   6 C    3.993 --    32 C    1.008    84 H    0.986    85 H    0.985
                            86 H    0.982
    35   8 O    2.005 --    16 C    1.656    15 N    0.195
    36   6 C    3.983 --    37 C    1.013    14 C    0.969    88 H    0.966
                            87 H    0.958
    37   6 C    3.980 --    42 C    1.415    38 C    1.402    36 C    1.013
                            40 C    0.107
    38   6 C    3.985 --    39 C    1.453    37 C    1.402    89 H    0.966
                            41 C    0.111
    39   6 C    3.991 --    38 C    1.453    40 C    1.432    90 H    0.971
                            42 C    0.109
    40   6 C    3.983 --    41 C    1.439    39 C    1.432    91 H    0.972
                            37 C    0.107
    41   6 C    3.989 --    42 C    1.441    40 C    1.439    92 H    0.971
                            38 C    0.111
    42   6 C    3.988 --    41 C    1.441    37 C    1.415    93 H    0.967
                            39 C    0.109
    43   8 O    1.975 --    12 C    0.994    94 H    0.894
    44   8 O    2.220 --     2 C    1.051    45 C    0.929     1 O    0.128
    45   6 C    3.926 --    46 C    1.018    96 H    0.967    95 H    0.958
                            44 O    0.929
    46   6 C    3.750 --    47 C    1.469    50 S    1.139    45 C    1.018
    47   6 C    3.865 --    46 C    1.469    48 N    1.297    97 H    0.960
    48   7 N    3.008 --    49 C    1.532    47 C    1.297    50 S    0.102
    49   6 C    3.688 --    48 N    1.532    50 S    1.080    98 H    0.964
    50  16 S    2.461 --    46 C    1.139    49 C    1.080    48 N    0.102
    51   1 H    0.963 --     3 N    0.923
    52   1 H    0.994 --     4 C    0.950
    53   1 H    0.997 --     5 C    0.970
    54   1 H    0.996 --     5 C    0.965
    55   1 H    0.999 --     7 C    0.967
    56   1 H    0.999 --     8 C    0.971
    57   1 H    0.998 --     9 C    0.971
    58   1 H    0.998 --    10 C    0.970
    59   1 H    0.998 --    11 C    0.962
    60   1 H    0.997 --    12 C    0.959
    61   1 H    0.997 --    13 C    0.970
    62   1 H    0.993 --    13 C    0.965
    63   1 H    0.990 --    14 C    0.951
    64   1 H    0.957 --    15 N    0.909
    65   1 H    0.991 --    17 C    0.951
    66   1 H    0.949 --    18 N    0.850
    67   1 H    0.992 --    21 C    0.970
    68   1 H    0.992 --    21 C    0.972
    69   1 H    0.992 --    21 C    0.971
    70   1 H    0.996 --    22 C    0.970
    71   1 H    0.994 --    22 C    0.959
    72   1 H    0.999 --    24 C    0.971
    73   1 H    0.991 --    27 C    0.946
    74   1 H    0.998 --    28 C    0.987
    75   1 H    0.995 --    28 C    0.982
    76   1 H    0.998 --    28 C    0.987
    77   1 H    0.997 --    29 C    0.985
    78   1 H    0.997 --    29 C    0.980
    79   1 H    0.997 --    29 C    0.982
    80   1 H    0.990 --    32 C    0.960
    81   1 H    0.998 --    33 C    0.982
    82   1 H    0.992 --    33 C    0.972
    83   1 H    0.997 --    33 C    0.983
    84   1 H    0.999 --    34 C    0.986
    85   1 H    0.997 --    34 C    0.985
    86   1 H    0.996 --    34 C    0.982
    87   1 H    0.994 --    36 C    0.958
    88   1 H    0.993 --    36 C    0.966
    89   1 H    0.997 --    38 C    0.966
    90   1 H    0.998 --    39 C    0.971
    91   1 H    0.999 --    40 C    0.972
    92   1 H    0.999 --    41 C    0.971
    93   1 H    0.999 --    42 C    0.967
    94   1 H    0.915 --    43 O    0.894
    95   1 H    0.990 --    45 C    0.958
    96   1 H    0.996 --    45 C    0.967
    97   1 H    0.997 --    47 C    0.960
    98   1 H    0.994 --    49 C    0.964
 ---------------------------------------------------------------------------

Topologies differ in total number of bonds
Writing topology from bond orders to xtbtopo.mol

molecular dipole:
                 x           y           z       tot (Debye)
 q only:        1.676      -1.130      -0.972
   full:        1.290      -1.180      -1.760       6.306
molecular quadrupole (traceless):
                xx          xy          yy          xz          yz          zz
 q only:       -6.143      -4.180      -2.890      12.370      -5.476       9.034
  q+dip:        2.106      -9.901      -5.066      16.760     -11.280       2.960
   full:        0.047     -10.269      -5.565      15.395      -7.539       5.519


           -------------------------------------------------
          | TOTAL ENERGY             -148.071188508567 Eh   |
          | GRADIENT NORM               0.091461206428 Eh/α |
          | HOMO-LUMO GAP               0.009534379853 eV   |
           -------------------------------------------------

------------------------------------------------------------------------
 * finished run on 2025/05/15 at 16:30:22.985     
------------------------------------------------------------------------
 total:
 * wall-time:     0 d,  0 h,  0 min,  0.940 sec
 *  cpu-time:     0 d,  0 h,  0 min,  0.533 sec
 * ratio c/w:     0.567 speedup
 SCF:
 * wall-time:     0 d,  0 h,  0 min,  0.843 sec
 *  cpu-time:     0 d,  0 h,  0 min,  0.497 sec
 * ratio c/w:     0.590 speedup


