98
 energy: -148.200583839639 gnorm: 0.000301246133 xtb: 6.7.1 (edcfbbe)
O           -4.10212114876453        0.37763239432372        0.13864102992426
C           -3.87326936216614        1.20251074703491       -0.71296174089499
N           -2.81305904825712        1.20184792771912       -1.53996326962109
C           -1.81755138096528        0.15116315395536       -1.53454975262409
C           -1.59877271049186       -0.40182604975540       -2.95434570824948
C           -1.18771258334723        0.64851468376114       -3.94557748787392
C           -2.14833740582639        1.39303560290352       -4.62161201688278
C           -1.77638802421137        2.38709836953067       -5.51075294378777
C           -0.43655592049027        2.64918786904493       -5.73604218731449
C            0.52744864649672        1.90465697359870       -5.07709005875071
C            0.15357699850783        0.91013191264430       -4.19276686802741
C           -0.51968500667450        0.65407066319587       -0.85700681421133
C           -0.73039593252100        0.92026944824651        0.64045621784365
C           -1.09443339916109       -0.32349598294409        1.46005779343391
N           -0.11169757024472       -1.38069650290260        1.29157644898026
C            1.18324724869220       -1.26934396313446        1.63689156977276
C            1.98000294341243       -2.53128844242769        1.25940707278970
N            2.38414921492605       -2.41948368001960       -0.13081867982654
C            1.51069195163003       -2.72871686507129       -1.12854668667124
N            1.99996143130955       -2.56677151809019       -2.39906803307916
C            1.20092186947073       -2.98820771085643       -3.52465768862033
C            3.34560178170205       -2.09648404404859       -2.67640682545508
C            3.46075364495656       -0.61205937760163       -2.47306116824629
C            3.51715072050853        0.35316564142887       -3.42918625038411
S            3.54031989283240        1.91848280783361       -2.71197410150510
C            3.46498674160304        1.15689307010400       -1.14219323409223
C            3.46089951652198        1.92432204058160        0.13103474466630
C            4.90471909369144        2.14678163088931        0.59554709536355
C            2.72671492018482        3.25098188445966       -0.03558943375762
N            3.44464958810827       -0.12711363403983       -1.20180367708074
O            0.37946799862028       -3.15985719167623       -0.92647700347051
C            3.20652699428566       -2.81152999296955        2.14607156004316
C            4.29544383862206       -1.74738664883273        2.02111520167609
C            2.76507130402968       -2.94602982540151        3.60152510475695
O            1.67309382095515       -0.27725231319895        2.14731914551589
C           -1.24200016202965        0.03736464525515        2.94949030479129
C           -1.78205266858642       -1.13576352512208        3.71430935622725
C           -3.12420682102469       -1.47991500675873        3.60061878348188
C           -3.62632715519961       -2.57899694057752        4.27282440511283
C           -2.79192290180560       -3.35194771405122        5.06357669756407
C           -1.45381982030009       -3.01838789577422        5.17867528768870
C           -0.95335940347472       -1.91603451564864        4.50757284471005
O           -0.01713032360183        1.81728588931691       -1.47971489016154
O           -4.65844599708826        2.28570802581765       -0.95187851345468
C           -5.75713275519479        2.43988784034554       -0.05202320334730
C           -5.31950964158320        2.97327475736614        1.26906958730977
C           -5.48114037399059        4.22947626431092        1.77545022442402
N           -4.96154598729122        4.43373467189072        3.00557979356634
C           -4.40047360873918        3.37172058511908        3.45816929439594
S           -4.45245557497327        1.99722013401423        2.40537120412645
H           -2.76490288243948        1.89927435977230       -2.26805777315465
H           -2.22129796040278       -0.66021918874403       -0.92357213324032
H           -2.53401127347946       -0.86368174627245       -3.27918813170687
H           -0.83921128434654       -1.17893803528417       -2.88310890489770
H           -3.19821831800684        1.18155628817272       -4.46651702353391
H           -2.53501228496046        2.95569005391296       -6.02895919547396
H           -0.14469059591618        3.42631126533928       -6.42673441798405
H            1.57429282982098        2.10538090309656       -5.25183233888013
H            0.90687245057931        0.33595704736803       -3.67573505114888
H            0.25986187587632       -0.10222938091290       -0.99070495855955
H           -1.52534117903595        1.66062150092762        0.76228778713359
H            0.19579457809188        1.33887653887988        1.03837783971031
H           -2.05508301171786       -0.71926869183703        1.12150480330315
H           -0.36639812990513       -2.17752968878249        0.71927007430199
H            1.30138461000979       -3.38969329868329        1.32965838539291
H            3.02631055943975       -1.64800220882555       -0.30649519456325
H            0.24985707812115       -3.35157307910662       -3.13924279319396
H            1.69636537769893       -3.80048792331078       -4.06394923880651
H            1.02636524864302       -2.15846025443565       -4.21500968239867
H            3.58211652711295       -2.34183576692114       -3.71302980203192
H            4.05850914010088       -2.61019515498434       -2.02122393845141
H            3.54822858212515        0.23756998448487       -4.49380120266870
H            2.94595408524669        1.30495482217842        0.87402321005642
H            5.41614076947585        1.19547579938563        0.71910712054888
H            4.90677903883350        2.66828998776498        1.54886371857673
H            5.44916421447276        2.74691356988885       -0.13172186953542
H            2.62514412904701        3.74565083827527        0.92683479730989
H            1.73749185684063        3.07876328323030       -0.45264665511828
H            3.27622641023969        3.90839868183387       -0.70771159963141
H            3.61828609416485       -3.77207801043465        1.81232907168559
H            4.70788625818811       -1.71754637440742        1.01561866628886
H            3.88798664051954       -0.77167852510207        2.26526556084718
H            5.10495414141841       -1.97158498788900        2.71269829780674
H            1.95187952175528       -3.66269040083527        3.69669674500498
H            3.59570897502629       -3.28049057421000        4.21874847861539
H            2.42796726549056       -1.98248931091806        3.97369379631703
H           -1.93261816093320        0.87864249931325        3.02719720018056
H           -0.26987977851971        0.33765200999010        3.33861110527854
H           -3.77409198325744       -0.88149065590104        2.97821090387886
H           -4.67177458314120       -2.83546714816108        4.17975047577739
H           -3.18423211244968       -4.21124009879858        5.58791603710351
H           -0.79745887517938       -3.61758043152169        5.79349180267635
H            0.09074267551410       -1.65635093572996        4.60069267181901
H           -0.66321932729110        2.52312109399767       -1.35616314951310
H           -6.24732270577218        1.46751379705789        0.07674217853759
H           -6.43350707560650        3.14380157667553       -0.53997147193669
H           -5.98508413572859        5.03897324851537        1.27934557623135
H           -3.91871274887391        3.31568242811692        4.41395769141104
