48
 energy: -69.040480555674 gnorm: 0.000644057447 xtb: 6.7.1 (edcfbbe)
O           -1.94130509458432        0.22374606844883        0.41860352452247
C           -0.65635096536052       -0.29083672977308        0.12342940314503
C            0.03494788670416       -0.72926435070347        1.42418006623372
N           -0.15372495655046        0.31211660330310        2.44047080101184
C            0.21205435186959       -0.23299358517828        3.73950635590588
C            1.66126483097221       -0.76459910999385        3.72129262781833
C            0.65940931876746        1.48933194613349        2.17187933394860
C            2.17280333135319        1.16626953113051        2.22449432525302
C            2.93785505034827        1.66040593915097        1.02926291211325
C            2.72155060001629        2.79953072928627        0.39842670592508
C            2.29369395341618       -0.35690586068600        2.38644566461789
C            1.53192270762816       -1.04065585288237        1.24668814152780
C           -0.80082355876163       -1.38318489265721       -0.91888183261639
C           -0.51655511340828       -2.70408137679020       -0.67803975407921
C           -0.64207556767362       -3.64328731522825       -1.71489099356729
N           -1.01384113465803       -3.34580062864854       -2.92640435116052
C           -1.32496593031268       -2.06476059135753       -3.19642458261855
C           -1.25257363130009       -1.03143694591107       -2.22099881476786
C           -1.63189251883483        0.27671032160301       -2.58245504831783
C           -2.05246100588984        0.55481735995652       -3.86000513327911
O           -2.44963528645333        1.77795349193682       -4.30390786663216
C           -2.47417446111425        2.84670195884268       -3.38923341098165
C           -2.09510812468547       -0.47158360801359       -4.83232934367778
C           -1.74485612720978       -1.74532654721180       -4.50693588122067
H           -1.89957295011288        0.55503140755895        1.32847619513767
H           -0.04271818950195        0.50648656294747       -0.33794236608791
H           -0.50519209668503       -1.60142617528997        1.80865773099572
H            0.09419029512597        0.56356041666915        4.47756476030555
H           -0.49673667280862       -1.02664280655287        3.98891028117329
H            2.23645342454404       -0.34954462760101        4.55013276764083
H            1.67807972117661       -1.85175091287377        3.81427293173554
H            0.39352423045611        2.24501872262214        2.91548521079192
H            0.38724610148895        1.88061471307134        1.19161349108769
H            2.61378116368380        1.63759047240613        3.11237459624352
H            3.74558258094014        1.01730367303788        0.70298137315293
H            1.94665678419190        3.48622134803876        0.69606307944394
H            3.32256802649845        3.10231968872078       -0.44200608935863
H            3.34634206732038       -0.65387384925871        2.36466766651057
H            1.88660570886708       -0.66366343871748        0.28512659010232
H            1.71523507143872       -2.11532744902803        1.27053060301790
H           -0.18943391936111       -3.05129554359727        0.28766492526211
H           -0.41454897718982       -4.68583511537306       -1.53014866967865
H           -1.62297807308982        1.04091089993131       -1.82516742873186
H           -2.85083934719141        3.70332422055303       -3.94608405723848
H           -3.14065643041204        2.63744926180325       -2.54681798757034
H           -1.47184236900410        3.07309448202104       -3.01099351356039
H           -2.42272236708226       -0.20848394641611       -5.82593448429491
H           -1.78418233758665       -2.54454855943792       -5.22990045517716
