----- Optimization -----
      -----------------------------------------------------------      
     |                   =====================                   |     
     |                           x T B                           |     
     |                   =====================                   |     
     |                         S. Grimme                         |     
     |          Mulliken Center for Theoretical Chemistry        |     
     |                    University of Bonn                     |     
      -----------------------------------------------------------      

   * xtb version 6.7.1 (edcfbbe) compiled by 'conda@3ef47c1a292c' on 2024-11-25

   xtb is free software: you can redistribute it and/or modify it under
   the terms of the GNU Lesser General Public License as published by
   the Free Software Foundation, either version 3 of the License, or
   (at your option) any later version.
   
   xtb is distributed in the hope that it will be useful,
   but WITHOUT ANY WARRANTY; without even the implied warranty of
   MERCHANTABILITY or FITNESS FOR A PARTICULAR PURPOSE.  See the
   GNU Lesser General Public License for more details.
   
   Cite this work as:
   * C. Bannwarth, E. Caldeweyher, S. Ehlert, A. Hansen, P. Pracht,
     J. Seibert, S. Spicher, S. Grimme, WIREs Comput. Mol. Sci., 2020, 11,
     e01493. DOI: 10.1002/wcms.1493
   
   for GFN2-xTB:
   * C. Bannwarth, S. Ehlert and S. Grimme., J. Chem. Theory Comput., 2019,
     15, 1652-1671. DOI: 10.1021/acs.jctc.8b01176
   for GFN1-xTB:
   * S. Grimme, C. Bannwarth, P. Shushkov, J. Chem. Theory Comput., 2017,
     13, 1989-2009. DOI: 10.1021/acs.jctc.7b00118
   for GFN0-xTB:
   * P. Pracht, E. Caldeweyher, S. Ehlert, S. Grimme, ChemRxiv, 2019, preprint.
     DOI: 10.26434/chemrxiv.8326202.v1
   for GFN-FF:
   * S. Spicher and S. Grimme, Angew. Chem. Int. Ed., 2020, 59, 15665-15673.
     DOI: 10.1002/anie.202004239
   
   for ALPB and GBSA implicit solvation:
   * S. Ehlert, M. Stahn, S. Spicher, S. Grimme, J. Chem. Theory Comput.,
     2021, 17, 4250-4261. DOI: 10.1021/acs.jctc.1c00471
   
   for ddCOSMO and CPCM-X implicit solvation:
   * M. Stahn, S. Ehlert, S. Grimme, J. Phys. Chem. A,
     2023, XX, XXXX-XXXX. DOI: 10.1021/acs.jpca.3c04382
   
   for DFT-D4:
   * E. Caldeweyher, C. Bannwarth and S. Grimme, J. Chem. Phys., 2017,
     147, 034112. DOI: 10.1063/1.4993215
   * E. Caldeweyher, S. Ehlert, A. Hansen, H. Neugebauer, S. Spicher,
     C. Bannwarth and S. Grimme, J. Chem. Phys., 2019, 150, 154122.
     DOI: 10.1063/1.5090222
   * E. Caldeweyher, J.-M. Mewes, S. Ehlert and S. Grimme, Phys. Chem. Chem. Phys.
     2020, 22, 8499-8512. DOI: 10.1039/D0CP00502A
   
   for sTDA-xTB:
   * S. Grimme and C. Bannwarth, J. Chem. Phys., 2016, 145, 054103.
     DOI: 10.1063/1.4959605
   
   in the mass-spec context:
   * V. Asgeirsson, C. Bauer and S. Grimme, Chem. Sci., 2017, 8, 4879.
     DOI: 10.1039/c7sc00601b
   * J. Koopman and S. Grimme, ACS Omega 2019, 4, 12, 15120-15133.
     DOI: 10.1021/acsomega.9b02011
   
   for metadynamics refer to:
   * S. Grimme, J. Chem. Theory Comput., 2019, 155, 2847-2862
     DOI: 10.1021/acs.jctc.9b00143
   
   for SPH calculations refer to:
   * S. Spicher and S. Grimme, J. Chem. Theory Comput., 2021, 17, 1701-1714
     DOI: 10.1021/acs.jctc.0c01306
   
   for ONIOM refer to:
   * C. Plett, A. Katbashev, S. Ehlert, S. Grimme, M. Bursch,
     Phys. Chem. Chem. Phys., 2023, 25, 17860-17868. DOI: 10.1039/D3CP02178E
   
   for DIPRO refer to:
   * J. Kohn, N. Gildemeister, S. Grimme, D. Fazzi, A. Hansen,
     J. Chem. Phys., 2023, just accepted.
   
   for PTB refer to:
   * S. Grimme, M. Mueller, A. Hansen, J. Chem. Phys., 2023, 158, 124111.
     DOI: 10.1063/5.0137838
   
   with help from (in alphabetical order)
   P. Atkinson, C. Bannwarth, F. Bohle, G. Brandenburg, E. Caldeweyher
   M. Checinski, S. Dohm, S. Ehlert, S. Ehrlich, I. Gerasimov, C. Hölzer
   A. Katbashev, J. Kohn, J. Koopman, C. Lavigne, S. Lehtola, F. März, M. Müller,
   F. Musil, H. Neugebauer, J. Pisarek, C. Plett, P. Pracht, F. Pultar,
   J. Seibert, P. Shushkov, S. Spicher, M. Stahn, M. Steiner, T. Strunk,
   J. Stückrath, T. Rose, and J. Unsleber
   
 * started run on 2025/05/15 at 16:33:03.517     
   ID    Z sym.   atoms
    1    8 O      1, 21
    2    6 C      2, 3, 5-15, 17-20, 22-24
    3    7 N      4, 16
    4    1 H      25-48

           -------------------------------------------------
          |                Calculation Setup                |
           -------------------------------------------------

          program call               : xtb /rds/general/user/hgt20/home/callum/QDESCP/Quinine_rdkit_conf_13/Quinine_rdkit_conf_13.xyz --opt normal --acc 1 --gfn 2 --chrg 0 --uhf 0 -P 1
          hostname                   : login-c
          coordinate file            : /rds/general/user/hgt20/home/callum/QDESCP/Quinine_rdkit_conf_13/Quinine_rdkit_conf_13.xyz
          omp threads                :                     1


           -------------------------------------------------
          |                 G F N 2 - x T B                 |
           -------------------------------------------------

        Reference                      10.1021/acs.jctc.8b01176
      * Hamiltonian:
        H0-scaling (s, p, d)           1.850000    2.230000    2.230000
        zeta-weighting                 0.500000
      * Dispersion:
        s8                             2.700000
        a1                             0.520000
        a2                             5.000000
        s9                             5.000000
      * Repulsion:
        kExp                           1.500000    1.000000
        rExp                           1.000000
      * Coulomb:
        alpha                          2.000000
        third order                    shell-resolved
        anisotropic                    true
        a3                             3.000000
        a5                             4.000000
        cn-shift                       1.200000
        cn-exp                         4.000000
        max-rad                        5.000000


          ...................................................
          :                      SETUP                      :
          :.................................................:
          :  # basis functions                 120          :
          :  # atomic orbitals                 120          :
          :  # shells                           72          :
          :  # electrons                       126          :
          :  max. iterations                   250          :
          :  Hamiltonian                  GFN2-xTB          :
          :  restarted?                      false          :
          :  GBSA solvation                  false          :
          :  PC potential                    false          :
          :  electronic temp.          300.0000000     K    :
          :  accuracy                    1.0000000          :
          :  -> integral cutoff          0.2500000E+02      :
          :  -> integral neglect         0.1000000E-07      :
          :  -> SCF convergence          0.1000000E-05 Eh   :
          :  -> wf. convergence          0.1000000E-03 e    :
          :  Broyden damping             0.4000000          :
          :  net charge                          0          :
          :  unpaired electrons                  0          :
          ...................................................

 iter      E             dE          RMSdq      gap      omega  full diag
   1    -69.8836423 -0.698836E+02  0.392E+00    2.53       0.0  T
   2    -69.9492103 -0.655679E-01  0.233E+00    2.51       1.0  T
   3    -69.9329860  0.162243E-01  0.975E-01    2.32       1.0  T
   4    -69.9511609 -0.181750E-01  0.429E-01    2.32       1.0  T
   5    -69.9573168 -0.615588E-02  0.113E-01    2.25       1.0  T
   6    -69.9577279 -0.411065E-03  0.537E-02    2.28       1.0  T
   7    -69.9577719 -0.440858E-04  0.255E-02    2.27       1.0  T
   8    -69.9577818 -0.985139E-05  0.946E-03    2.27       1.5  T
   9    -69.9577830 -0.121684E-05  0.291E-03    2.27       5.0  T
  10    -69.9577831 -0.892283E-07  0.132E-03    2.27      11.0  T
  11    -69.9577831 -0.319554E-07  0.602E-04    2.27      24.0  T
  12    -69.9577831 -0.312022E-08  0.244E-04    2.27      59.2  T

   *** convergence criteria satisfied after 12 iterations ***

         #    Occupation            Energy/Eh            Energy/eV
      -------------------------------------------------------------
         1        2.0000           -0.7149052             -19.4536
       ...           ...                  ...                  ...
        57        2.0000           -0.4227409             -11.5034
        58        2.0000           -0.4052401             -11.0271
        59        2.0000           -0.4027598             -10.9597
        60        2.0000           -0.3958964             -10.7729
        61        2.0000           -0.3755055             -10.2180
        62        2.0000           -0.3706828             -10.0868
        63        2.0000           -0.3599177              -9.7939 (HOMO)
        64                         -0.2763729              -7.5205 (LUMO)
        65                         -0.2266327              -6.1670
        66                         -0.2162935              -5.8856
        67                         -0.1991150              -5.4182
        68                         -0.1521882              -4.1413
       ...                                ...                  ...
       120                          0.6729695              18.3124
      -------------------------------------------------------------
                  HL-Gap            0.0835448 Eh            2.2734 eV
             Fermi-level           -0.3181453 Eh           -8.6572 eV

 SCC (total)                   0 d,  0 h,  0 min,  0.092 sec
 SCC setup                      ...        0 min,  0.000 sec (  0.475%)
 Dispersion                     ...        0 min,  0.001 sec (  0.643%)
 classical contributions        ...        0 min,  0.000 sec (  0.200%)
 integral evaluation            ...        0 min,  0.009 sec (  9.840%)
 iterations                     ...        0 min,  0.053 sec ( 57.709%)
 molecular gradient             ...        0 min,  0.029 sec ( 30.908%)
 printout                       ...        0 min,  0.000 sec (  0.218%)

         :::::::::::::::::::::::::::::::::::::::::::::::::::::
         ::                     SUMMARY                     ::
         :::::::::::::::::::::::::::::::::::::::::::::::::::::
         :: total energy             -69.024911607247 Eh    ::
         :: gradient norm              0.105195545515 Eh/a0 ::
         :: HOMO-LUMO gap              2.273370115565 eV    ::
         ::.................................................::
         :: SCC energy               -69.956855360243 Eh    ::
         :: -> isotropic ES            0.056553258349 Eh    ::
         :: -> anisotropic ES          0.009009441841 Eh    ::
         :: -> anisotropic XC          0.037519942256 Eh    ::
         :: -> dispersion             -0.053449222416 Eh    ::
         :: repulsion energy           0.931943752996 Eh    ::
         :: add. restraining           0.000000000000 Eh    ::
         :: total charge               0.000000000000 e     ::
         :::::::::::::::::::::::::::::::::::::::::::::::::::::

      ----------------------------------------------------------- 
     |                   =====================                   |
     |                        A N C O P T                        |
     |                   =====================                   |
     |               Approximate Normal Coordinate               |
     |                Rational Function Optimizer                |
      ----------------------------------------------------------- 
      ----------------------------------------------------------- 
     |                   =====================                   |
     |                        A N C O P T                        |
     |                   =====================                   |
     |               Approximate Normal Coordinate               |
     |                Rational Function Optimizer                |
      ----------------------------------------------------------- 

          ...................................................
          :                      SETUP                      :
          :.................................................:
          :   optimization level            normal          :
          :   max. optcycles                   200          :
          :   ANC micro-cycles                  20          :
          :   degrees of freedom               138          :
          :.................................................:
          :   RF solver                   davidson          :
          :   write xtbopt.log                true          :
          :   linear?                        false          :
          :   energy convergence         0.5000000E-05 Eh   :
          :   grad. convergence          0.1000000E-02 Eh/α :
          :   maxmium RF displ.          1.0000000          :
          :   Hlow (freq-cutoff)         0.1000000E-01      :
          :   Hmax (freq-cutoff)         5.0000000          :
          :   S6 in model hess.         20.0000000          :
          ...................................................

generating ANC from exact Hessian ...
Using Lindh-Hessian (1995)
 Shifting diagonal of input Hessian by    9.8019670027391717E-003
 Lowest  eigenvalues of input Hessian
    0.000000    0.000000    0.000000    0.000000    0.000000    0.000000
    0.010000    0.010127    0.010454    0.011141    0.011553    0.012360
    0.013009    0.014094    0.014313    0.014775    0.015664    0.016739
 Highest eigenvalues
    1.858498    1.862301    1.921262    1.999140    2.051964    2.167626


........................................................................
.............................. CYCLE    1 ..............................
........................................................................

 iter      E             dE          RMSdq      gap      omega  full diag
   1    -69.9577831 -0.699578E+02  0.998E-05    2.27       0.0  T
   2    -69.9577831 -0.499938E-10  0.703E-05    2.27     205.4  T
   3    -69.9577831 -0.111399E-09  0.431E-05    2.27     334.8  T
     SCC iter.                  ...        0 min,  0.008 sec
     gradient                   ...        0 min,  0.029 sec
 * total energy  :   -69.0249116 Eh     change       -0.1138673E-08 Eh
   gradient norm :     0.1051966 Eh/α   predicted     0.0000000E+00 (-100.00%)
   displ. norm   :     0.3529436 α      lambda       -0.1614289E-01
   maximum displ.:     0.1479828 α      in ANC's #12, #44, #17, ...

........................................................................
.............................. CYCLE    2 ..............................
........................................................................

 iter      E             dE          RMSdq      gap      omega  full diag
   1    -69.9982180 -0.699982E+02  0.189E-01    2.38       0.0  T
   2    -69.9983007 -0.826871E-04  0.116E-01    2.41       1.0  T
   3    -69.9982381  0.625299E-04  0.470E-02    2.40       1.0  T
   4    -69.9983185 -0.803720E-04  0.125E-02    2.41       1.2  T
   5    -69.9983261 -0.758063E-05  0.399E-03    2.41       3.6  T
   6    -69.9983263 -0.219548E-06  0.184E-03    2.41       7.8  T
   7    -69.9983263 -0.227518E-07  0.805E-04    2.41      17.9  T
   8    -69.9983263 -0.134028E-07  0.270E-04    2.41      53.4  T
     SCC iter.                  ...        0 min,  0.019 sec
     gradient                   ...        0 min,  0.029 sec
 * total energy  :   -69.0358733 Eh     change       -0.1096172E-01 Eh
   gradient norm :     0.0415668 Eh/α   predicted    -0.9089362E-02 ( -17.08%)
   displ. norm   :     0.3147623 α      lambda       -0.4569337E-02
   maximum displ.:     0.1834161 α      in ANC's #12, #7, #17, ...

........................................................................
.............................. CYCLE    3 ..............................
........................................................................

 iter      E             dE          RMSdq      gap      omega  full diag
   1    -70.0211087 -0.700211E+02  0.122E-01    2.48       0.0  T
   2    -70.0211535 -0.447363E-04  0.753E-02    2.49       1.0  T
   3    -70.0211346  0.188680E-04  0.302E-02    2.49       1.0  T
   4    -70.0211601 -0.254573E-04  0.830E-03    2.49       1.7  T
   5    -70.0211630 -0.297610E-05  0.265E-03    2.49       5.5  T
   6    -70.0211632 -0.158141E-06  0.112E-03    2.49      12.9  T
   7    -70.0211632 -0.664048E-08  0.518E-04    2.49      27.9  T
   8    -70.0211632 -0.578235E-08  0.163E-04    2.49      88.3  T
     SCC iter.                  ...        0 min,  0.054 sec
     gradient                   ...        0 min,  0.029 sec
 * total energy  :   -69.0385095 Eh     change       -0.2636224E-02 Eh
   gradient norm :     0.0094543 Eh/α   predicted    -0.2513384E-02 (  -4.66%)
   displ. norm   :     0.2045809 α      lambda       -0.7231074E-03
   maximum displ.:     0.1322764 α      in ANC's #12, #7, #17, ...

........................................................................
.............................. CYCLE    4 ..............................
........................................................................

 iter      E             dE          RMSdq      gap      omega  full diag
   1    -70.0230191 -0.700230E+02  0.562E-02    2.50       0.0  T
   2    -70.0230219 -0.279782E-05  0.338E-02    2.50       1.0  T
   3    -70.0230189  0.300603E-05  0.827E-03    2.50       1.7  T
   4    -70.0230223 -0.346864E-05  0.241E-03    2.50       6.0  T
   5    -70.0230225 -0.214858E-06  0.856E-04    2.50      16.9  T
   6    -70.0230226 -0.664708E-08  0.401E-04    2.50      36.0  T
     SCC iter.                  ...        0 min,  0.053 sec
     gradient                   ...        0 min,  0.029 sec
 * total energy  :   -69.0390096 Eh     change       -0.5000090E-03 Eh
   gradient norm :     0.0060929 Eh/α   predicted    -0.3767170E-03 ( -24.66%)
   displ. norm   :     0.2301065 α      lambda       -0.4485157E-03
   maximum displ.:     0.1270920 α      in ANC's #7, #12, #10, ...

........................................................................
.............................. CYCLE    5 ..............................
........................................................................

 iter      E             dE          RMSdq      gap      omega  full diag
   1    -70.0231018 -0.700231E+02  0.658E-02    2.50       0.0  T
   2    -70.0231039 -0.218222E-05  0.396E-02    2.49       1.0  T
   3    -70.0230977  0.622281E-05  0.114E-02    2.50       1.3  T
   4    -70.0231048 -0.706644E-05  0.215E-03    2.49       6.7  T
   5    -70.0231049 -0.131266E-06  0.938E-04    2.49      15.4  T
   6    -70.0231049 -0.632923E-08  0.442E-04    2.49      32.7  T
     SCC iter.                  ...        0 min,  0.014 sec
     gradient                   ...        0 min,  0.063 sec
 * total energy  :   -69.0392576 Eh     change       -0.2480121E-03 Eh
   gradient norm :     0.0042364 Eh/α   predicted    -0.2361345E-03 (  -4.79%)
   displ. norm   :     0.1317553 α      lambda       -0.1608457E-03
   maximum displ.:     0.0652926 α      in ANC's #7, #6, #5, ...

........................................................................
.............................. CYCLE    6 ..............................
........................................................................

 iter      E             dE          RMSdq      gap      omega  full diag
   1    -70.0231597 -0.700232E+02  0.398E-02    2.49       0.0  T
   2    -70.0231601 -0.458059E-06  0.237E-02    2.49       1.0  T
   3    -70.0231584  0.170681E-05  0.622E-03    2.49       2.3  T
   4    -70.0231604 -0.196981E-05  0.102E-03    2.49      14.1  T
   5    -70.0231604 -0.192654E-07  0.525E-04    2.49      27.5  T
   6    -70.0231604 -0.310146E-08  0.227E-04    2.49      63.5  T
     SCC iter.                  ...        0 min,  0.014 sec
     gradient                   ...        0 min,  0.058 sec
 * total energy  :   -69.0393493 Eh     change       -0.9169725E-04 Eh
   gradient norm :     0.0036222 Eh/α   predicted    -0.8182373E-04 ( -10.77%)
   displ. norm   :     0.1112962 α      lambda       -0.9467744E-04
   maximum displ.:     0.0513486 α      in ANC's #6, #7, #5, ...

........................................................................
.............................. CYCLE    7 ..............................
........................................................................

 iter      E             dE          RMSdq      gap      omega  full diag
   1    -70.0233173 -0.700233E+02  0.368E-02    2.49       0.0  T
   2    -70.0233176 -0.302703E-06  0.218E-02    2.49       1.0  T
   3    -70.0233172  0.443882E-06  0.361E-03    2.49       4.0  T
   4    -70.0233178 -0.559692E-06  0.868E-04    2.49      16.6  T
   5    -70.0233178 -0.105749E-07  0.431E-04    2.49      33.5  T
     SCC iter.                  ...        0 min,  0.012 sec
     gradient                   ...        0 min,  0.029 sec
 * total energy  :   -69.0394228 Eh     change       -0.7357945E-04 Eh
   gradient norm :     0.0025525 Eh/α   predicted    -0.4792546E-04 ( -34.87%)
   displ. norm   :     0.1825481 α      lambda       -0.1136253E-03
   maximum displ.:     0.0971601 α      in ANC's #6, #5, #10, ...

........................................................................
.............................. CYCLE    8 ..............................
........................................................................

 iter      E             dE          RMSdq      gap      omega  full diag
   1    -70.0234088 -0.700234E+02  0.646E-02    2.49       0.0  T
   2    -70.0234096 -0.730129E-06  0.382E-02    2.49       1.0  T
   3    -70.0234087  0.922027E-06  0.527E-03    2.49       2.7  T
   4    -70.0234099 -0.121733E-05  0.136E-03    2.49      10.6  T
   5    -70.0234099 -0.224827E-07  0.699E-04    2.49      20.7  T
   6    -70.0234099 -0.717263E-08  0.243E-04    2.49      59.5  T
     SCC iter.                  ...        0 min,  0.044 sec
     gradient                   ...        0 min,  0.029 sec
 * total energy  :   -69.0394970 Eh     change       -0.7418465E-04 Eh
   gradient norm :     0.0023580 Eh/α   predicted    -0.5870634E-04 ( -20.86%)
   displ. norm   :     0.1271300 α      lambda       -0.4852707E-04
   maximum displ.:     0.0767801 α      in ANC's #6, #5, #3, ...

........................................................................
.............................. CYCLE    9 ..............................
........................................................................

 iter      E             dE          RMSdq      gap      omega  full diag
   1    -70.0234413 -0.700234E+02  0.475E-02    2.49       0.0  T
   2    -70.0234416 -0.331826E-06  0.280E-02    2.49       1.0  T
   3    -70.0234409  0.653272E-06  0.395E-03    2.49       3.7  T
   4    -70.0234417 -0.798428E-06  0.927E-04    2.49      15.6  T
   5    -70.0234418 -0.156550E-07  0.457E-04    2.49      31.6  T
     SCC iter.                  ...        0 min,  0.012 sec
     gradient                   ...        0 min,  0.056 sec
 * total energy  :   -69.0395354 Eh     change       -0.3839499E-04 Eh
   gradient norm :     0.0023478 Eh/α   predicted    -0.2465763E-04 ( -35.78%)
   displ. norm   :     0.1629910 α      lambda       -0.6628003E-04
   maximum displ.:     0.0993506 α      in ANC's #6, #5, #3, ...

........................................................................
.............................. CYCLE   10 ..............................
........................................................................

 iter      E             dE          RMSdq      gap      omega  full diag
   1    -70.0235687 -0.700236E+02  0.629E-02    2.49       0.0  T
   2    -70.0235692 -0.564897E-06  0.371E-02    2.49       1.0  T
   3    -70.0235682  0.105627E-05  0.480E-03    2.49       3.0  T
   4    -70.0235694 -0.127144E-05  0.115E-03    2.49      12.5  T
   5    -70.0235695 -0.316955E-07  0.531E-04    2.49      27.2  T
   6    -70.0235695 -0.184291E-08  0.194E-04    2.49      74.4  T
     SCC iter.                  ...        0 min,  0.014 sec
     gradient                   ...        0 min,  0.029 sec
 * total energy  :   -69.0395896 Eh     change       -0.5413336E-04 Eh
   gradient norm :     0.0020440 Eh/α   predicted    -0.3402191E-04 ( -37.15%)
   displ. norm   :     0.2457080 α      lambda       -0.9066783E-04
   maximum displ.:     0.1497792 α      in ANC's #6, #3, #1, ...

........................................................................
.............................. CYCLE   11 ..............................
........................................................................

 iter      E             dE          RMSdq      gap      omega  full diag
   1    -70.0230879 -0.700231E+02  0.963E-02    2.49       0.0  T
   2    -70.0230890 -0.113404E-05  0.567E-02    2.49       1.0  T
   3    -70.0230867  0.233371E-05  0.710E-03    2.49       2.0  T
   4    -70.0230895 -0.278791E-05  0.162E-03    2.49       8.9  T
   5    -70.0230896 -0.635325E-07  0.744E-04    2.49      19.4  T
   6    -70.0230896 -0.312924E-08  0.266E-04    2.49      54.3  T
     SCC iter.                  ...        0 min,  0.014 sec
     gradient                   ...        0 min,  0.029 sec
 * total energy  :   -69.0396628 Eh     change       -0.7322709E-04 Eh
   gradient norm :     0.0030087 Eh/α   predicted    -0.4807609E-04 ( -34.35%)
   displ. norm   :     0.3072267 α      lambda       -0.1096988E-03
   maximum displ.:     0.1848539 α      in ANC's #6, #3, #1, ...

........................................................................
.............................. CYCLE   12 ..............................
........................................................................

 iter      E             dE          RMSdq      gap      omega  full diag
   1    -70.0224606 -0.700225E+02  0.118E-01    2.49       0.0  T
   2    -70.0224621 -0.147340E-05  0.697E-02    2.49       1.0  T
   3    -70.0224588  0.335864E-05  0.866E-03    2.49       1.7  T
   4    -70.0224628 -0.401691E-05  0.181E-03    2.49       8.0  T
   5    -70.0224628 -0.683114E-07  0.872E-04    2.49      16.5  T
   6    -70.0224628 -0.466895E-08  0.309E-04    2.49      46.7  T
     SCC iter.                  ...        0 min,  0.041 sec
     gradient                   ...        0 min,  0.029 sec
 * total energy  :   -69.0397504 Eh     change       -0.8764311E-04 Eh
   gradient norm :     0.0044435 Eh/α   predicted    -0.6002813E-04 ( -31.51%)
   displ. norm   :     0.3648180 α      lambda       -0.1420213E-03
   maximum displ.:     0.2129059 α      in ANC's #6, #3, #1, ...

........................................................................
.............................. CYCLE   13 ..............................
........................................................................

 iter      E             dE          RMSdq      gap      omega  full diag
   1    -70.0220341 -0.700220E+02  0.135E-01    2.49       0.0  T
   2    -70.0220358 -0.168807E-05  0.794E-02    2.49       1.0  T
   3    -70.0220317  0.411777E-05  0.986E-03    2.49       1.5  T
   4    -70.0220367 -0.497802E-05  0.193E-03    2.49       7.5  T
   5    -70.0220367 -0.544981E-07  0.978E-04    2.49      14.8  T
   6    -70.0220367 -0.790688E-08  0.336E-04    2.49      42.9  T
     SCC iter.                  ...        0 min,  0.014 sec
     gradient                   ...        0 min,  0.057 sec
 * total energy  :   -69.0398599 Eh     change       -0.1094440E-03 Eh
   gradient norm :     0.0051209 Eh/α   predicted    -0.8046539E-04 ( -26.48%)
   displ. norm   :     0.3329373 α      lambda       -0.1549305E-03
   maximum displ.:     0.1803458 α      in ANC's #6, #3, #1, ...

........................................................................
.............................. CYCLE   14 ..............................
........................................................................

 iter      E             dE          RMSdq      gap      omega  full diag
   1    -70.0227735 -0.700228E+02  0.117E-01    2.50       0.0  T
   2    -70.0227748 -0.124141E-05  0.685E-02    2.49       1.0  T
   3    -70.0227720  0.279249E-05  0.850E-03    2.50       1.7  T
   4    -70.0227754 -0.346293E-05  0.167E-03    2.49       8.7  T
   5    -70.0227754 -0.215000E-07  0.864E-04    2.50      16.7  T
   6    -70.0227755 -0.124433E-07  0.288E-04    2.50      50.2  T
     SCC iter.                  ...        0 min,  0.014 sec
     gradient                   ...        0 min,  0.029 sec
 * total energy  :   -69.0399737 Eh     change       -0.1138642E-03 Eh
   gradient norm :     0.0038190 Eh/α   predicted    -0.8605253E-04 ( -24.43%)
   displ. norm   :     0.4661532 α      lambda       -0.1518850E-03
   maximum displ.:     0.2757971 α      in ANC's #6, #3, #1, ...

........................................................................
.............................. CYCLE   15 ..............................
........................................................................

 iter      E             dE          RMSdq      gap      omega  full diag
   1    -70.0187985 -0.700188E+02  0.186E-01    2.50       0.0  T
   2    -70.0188012 -0.274628E-05  0.109E-01    2.50       1.0  T
   3    -70.0187944  0.679759E-05  0.133E-02    2.50       1.1  T
   4    -70.0188028 -0.836344E-05  0.252E-03    2.50       5.7  T
   5    -70.0188029 -0.581867E-07  0.139E-03    2.50      10.4  T
   6    -70.0188029 -0.276230E-07  0.429E-04    2.50      33.7  T
   7    -70.0188029 -0.408922E-08  0.169E-04    2.50      85.4  T
     SCC iter.                  ...        0 min,  0.016 sec
     gradient                   ...        0 min,  0.029 sec
 * total energy  :   -69.0399866 Eh     change       -0.1284679E-04 Eh
   gradient norm :     0.0087568 Eh/α   predicted    -0.9244645E-04 ( 619.61%)
   displ. norm   :     0.1157810 α      lambda       -0.2750265E-03
   maximum displ.:     0.0650707 α      in ANC's #5, #9, #2, ...

........................................................................
.............................. CYCLE   16 ..............................
........................................................................

 iter      E             dE          RMSdq      gap      omega  full diag
   1    -70.0251532 -0.700252E+02  0.444E-02    2.50       0.0  T
   2    -70.0251540 -0.793664E-06  0.262E-02    2.50       1.0  T
   3    -70.0251533  0.676608E-06  0.418E-03    2.50       3.4  T
   4    -70.0251542 -0.867254E-06  0.144E-03    2.50      10.0  T
   5    -70.0251543 -0.537026E-07  0.642E-04    2.50      22.5  T
   6    -70.0251543 -0.338368E-08  0.253E-04    2.50      57.2  T
     SCC iter.                  ...        0 min,  0.014 sec
     gradient                   ...        0 min,  0.050 sec
 * total energy  :   -69.0400872 Eh     change       -0.1006613E-03 Eh
   gradient norm :     0.0043330 Eh/α   predicted    -0.1393596E-03 (  38.44%)
   displ. norm   :     0.1119328 α      lambda       -0.6302619E-04
   maximum displ.:     0.0644719 α      in ANC's #6, #1, #3, ...

........................................................................
.............................. CYCLE   17 ..............................
........................................................................

 iter      E             dE          RMSdq      gap      omega  full diag
   1    -70.0233904 -0.700234E+02  0.466E-02    2.50       0.0  T
   2    -70.0233907 -0.321376E-06  0.275E-02    2.50       1.0  T
   3    -70.0233904  0.342129E-06  0.276E-03    2.50       5.2  T
   4    -70.0233908 -0.416803E-06  0.852E-04    2.50      16.9  T
   5    -70.0233908 -0.237360E-07  0.339E-04    2.50      42.6  T
     SCC iter.                  ...        0 min,  0.012 sec
     gradient                   ...        0 min,  0.077 sec
 * total energy  :   -69.0401281 Eh     change       -0.4081629E-04 Eh
   gradient norm :     0.0032748 Eh/α   predicted    -0.3191183E-04 ( -21.82%)
   displ. norm   :     0.1907593 α      lambda       -0.8298673E-04
   maximum displ.:     0.1049197 α      in ANC's #6, #1, #3, ...

........................................................................
.............................. CYCLE   18 ..............................
........................................................................

 iter      E             dE          RMSdq      gap      omega  full diag
   1    -70.0217987 -0.700218E+02  0.767E-02    2.50       0.0  T
   2    -70.0217994 -0.700441E-06  0.451E-02    2.50       1.0  T
   3    -70.0217984  0.918097E-06  0.459E-03    2.50       3.1  T
   4    -70.0217996 -0.115964E-05  0.130E-03    2.50      11.1  T
   5    -70.0217996 -0.411734E-07  0.598E-04    2.50      24.1  T
   6    -70.0217996 -0.274655E-08  0.206E-04    2.50      70.1  T
     SCC iter.                  ...        0 min,  0.070 sec
     gradient                   ...        0 min,  0.029 sec
 * total energy  :   -69.0401704 Eh     change       -0.4233477E-04 Eh
   gradient norm :     0.0044943 Eh/α   predicted    -0.4300826E-04 (   1.59%)
   displ. norm   :     0.1270434 α      lambda       -0.5903639E-04
   maximum displ.:     0.0609404 α      in ANC's #2, #6, #1, ...

........................................................................
.............................. CYCLE   19 ..............................
........................................................................

 iter      E             dE          RMSdq      gap      omega  full diag
   1    -70.0221157 -0.700221E+02  0.457E-02    2.50       0.0  T
   2    -70.0221159 -0.245393E-06  0.269E-02    2.50       1.0  T
   3    -70.0221157  0.266496E-06  0.264E-03    2.50       5.5  T
   4    -70.0221160 -0.351365E-06  0.768E-04    2.50      18.8  T
   5    -70.0221160 -0.118018E-07  0.359E-04    2.50      40.2  T
     SCC iter.                  ...        0 min,  0.063 sec
     gradient                   ...        0 min,  0.029 sec
 * total energy  :   -69.0402180 Eh     change       -0.4755811E-04 Eh
   gradient norm :     0.0034574 Eh/α   predicted    -0.2999562E-04 ( -36.93%)
   displ. norm   :     0.2393450 α      lambda       -0.9803606E-04
   maximum displ.:     0.1296509 α      in ANC's #2, #1, #6, ...

........................................................................
.............................. CYCLE   20 ..............................
........................................................................

 iter      E             dE          RMSdq      gap      omega  full diag
   1    -70.0237994 -0.700238E+02  0.797E-02    2.50       0.0  T
   2    -70.0238002 -0.819094E-06  0.469E-02    2.50       1.0  T
   3    -70.0237996  0.581601E-06  0.430E-03    2.50       3.4  T
   4    -70.0238005 -0.873677E-06  0.141E-03    2.50      10.2  T
   5    -70.0238005 -0.282457E-07  0.692E-04    2.50      20.9  T
   6    -70.0238005 -0.774619E-08  0.210E-04    2.50      68.7  T
     SCC iter.                  ...        0 min,  0.062 sec
     gradient                   ...        0 min,  0.029 sec
 * total energy  :   -69.0402792 Eh     change       -0.6123546E-04 Eh
   gradient norm :     0.0016842 Eh/α   predicted    -0.5182711E-04 ( -15.36%)
   displ. norm   :     0.5272703 α      lambda       -0.5349622E-04
   maximum displ.:     0.2755194 α      in ANC's #6, #1, #2, ...
 * RMSD in coord.:     0.5013772 α      energy gain  -0.1536758E-01 Eh

generating ANC from exact Hessian ...
Using Lindh-Hessian (1995)
 Shifting diagonal of input Hessian by    9.7772033406871434E-003
 Lowest  eigenvalues of input Hessian
    0.000000    0.000000    0.000000    0.000000    0.000000    0.000000
    0.010000    0.010134    0.010533    0.011181    0.011794    0.012821
    0.013362    0.014299    0.014571    0.015286    0.016441    0.017566
 Highest eigenvalues
    1.870970    1.934834    1.960856    2.047447    2.092553    2.204118


........................................................................
.............................. CYCLE   21 ..............................
........................................................................

 iter      E             dE          RMSdq      gap      omega  full diag
   1    -70.0191793 -0.700192E+02  0.202E-01    2.51       0.0  T
   2    -70.0191833 -0.396193E-05  0.118E-01    2.51       1.0  T
   3    -70.0191776  0.564704E-05  0.123E-02    2.51       1.2  T
   4    -70.0191850 -0.741361E-05  0.303E-03    2.51       4.8  T
   5    -70.0191851 -0.103091E-06  0.156E-03    2.51       9.3  T
   6    -70.0191852 -0.410414E-07  0.464E-04    2.51      31.1  T
   7    -70.0191852 -0.538665E-08  0.176E-04    2.51      82.0  T
     SCC iter.                  ...        0 min,  0.068 sec
     gradient                   ...        0 min,  0.029 sec
 * total energy  :   -69.0402477 Eh     change        0.3145323E-04 Eh
   gradient norm :     0.0077950 Eh/α   predicted     0.0000000E+00 (-100.00%)
   displ. norm   :     0.0381092 α      lambda       -0.1303109E-03
   maximum displ.:     0.0148519 α      in ANC's #3, #2, #16, ...

........................................................................
.............................. CYCLE   22 ..............................
........................................................................

 iter      E             dE          RMSdq      gap      omega  full diag
   1    -70.0229545 -0.700230E+02  0.169E-02    2.51       0.0  T
   2    -70.0229546 -0.123255E-06  0.101E-02    2.51       1.4  T
   3    -70.0229544  0.169678E-06  0.224E-03    2.51       6.4  T
   4    -70.0229547 -0.209195E-06  0.589E-04    2.51      24.5  T
   5    -70.0229547 -0.810425E-08  0.286E-04    2.51      50.4  T
     SCC iter.                  ...        0 min,  0.012 sec
     gradient                   ...        0 min,  0.074 sec
 * total energy  :   -69.0403264 Eh     change       -0.7865304E-04 Eh
   gradient norm :     0.0015969 Eh/α   predicted    -0.6550670E-04 ( -16.71%)
   displ. norm   :     0.0558991 α      lambda       -0.2549188E-04
   maximum displ.:     0.0297800 α      in ANC's #3, #2, #16, ...

........................................................................
.............................. CYCLE   23 ..............................
........................................................................

 iter      E             dE          RMSdq      gap      omega  full diag
   1    -70.0248106 -0.700248E+02  0.170E-02    2.50       0.0  T
   2    -70.0248107 -0.949109E-07  0.101E-02    2.50       1.4  T
   3    -70.0248106  0.156146E-06  0.213E-03    2.50       6.8  T
   4    -70.0248108 -0.188738E-06  0.464E-04    2.50      31.1  T
   5    -70.0248108 -0.445328E-08  0.252E-04    2.50      57.4  T
     SCC iter.                  ...        0 min,  0.012 sec
     gradient                   ...        0 min,  0.080 sec
 * total energy  :   -69.0403405 Eh     change       -0.1411217E-04 Eh
   gradient norm :     0.0022319 Eh/α   predicted    -0.1279170E-04 (  -9.36%)
   displ. norm   :     0.0348715 α      lambda       -0.1675859E-04
   maximum displ.:     0.0194461 α      in ANC's #3, #2, #16, ...

........................................................................
.............................. CYCLE   24 ..............................
........................................................................

 iter      E             dE          RMSdq      gap      omega  full diag
   1    -70.0246445 -0.700246E+02  0.108E-02    2.50       0.0  T
   2    -70.0246445 -0.222083E-07  0.640E-03    2.50       2.3  T
   3    -70.0246445  0.327343E-08  0.543E-04    2.50      26.6  T
   4    -70.0246446 -0.105019E-07  0.228E-04    2.50      63.2  T
     SCC iter.                  ...        0 min,  0.009 sec
     gradient                   ...        0 min,  0.073 sec
 * total energy  :   -69.0403530 Eh     change       -0.1250465E-04 Eh
   gradient norm :     0.0016916 Eh/α   predicted    -0.8433068E-05 ( -32.56%)
   displ. norm   :     0.0919803 α      lambda       -0.1965652E-04
   maximum displ.:     0.0541771 α      in ANC's #3, #2, #16, ...

........................................................................
.............................. CYCLE   25 ..............................
........................................................................

 iter      E             dE          RMSdq      gap      omega  full diag
   1    -70.0232597 -0.700233E+02  0.263E-02    2.51       0.0  T
   2    -70.0232598 -0.946594E-07  0.155E-02    2.51       1.0  T
   3    -70.0232598  0.337639E-07  0.132E-03    2.51      10.9  T
   4    -70.0232599 -0.667302E-07  0.506E-04    2.51      28.5  T
   5    -70.0232599 -0.306947E-08  0.267E-04    2.51      54.0  T
     SCC iter.                  ...        0 min,  0.012 sec
     gradient                   ...        0 min,  0.086 sec
 * total energy  :   -69.0403687 Eh     change       -0.1573512E-04 Eh
   gradient norm :     0.0013434 Eh/α   predicted    -0.9867027E-05 ( -37.29%)
   displ. norm   :     0.0483501 α      lambda       -0.6465163E-05
   maximum displ.:     0.0301454 α      in ANC's #3, #2, #4, ...

........................................................................
.............................. CYCLE   26 ..............................
........................................................................

 iter      E             dE          RMSdq      gap      omega  full diag
   1    -70.0233342 -0.700233E+02  0.144E-02    2.51       0.0  T
   2    -70.0233342 -0.196989E-07  0.845E-03    2.51       1.7  T
   3    -70.0233342  0.431447E-07  0.102E-03    2.51      14.1  T
   4    -70.0233342 -0.534217E-07  0.216E-04    2.51      67.0  T
   5    -70.0233342 -0.522888E-09  0.106E-04    2.51     136.7  T
     SCC iter.                  ...        0 min,  0.012 sec
     gradient                   ...        0 min,  0.077 sec
 * total energy  :   -69.0403771 Eh     change       -0.8330867E-05 Eh
   gradient norm :     0.0008745 Eh/α   predicted    -0.3236157E-05 ( -61.15%)
   displ. norm   :     0.1099429 α      lambda       -0.1318799E-04
   maximum displ.:     0.0649399 α      in ANC's #3, #2, #4, ...

........................................................................
.............................. CYCLE   27 ..............................
........................................................................

 iter      E             dE          RMSdq      gap      omega  full diag
   1    -70.0236806 -0.700237E+02  0.351E-02    2.51       0.0  T
   2    -70.0236807 -0.103590E-06  0.206E-02    2.51       1.0  T
   3    -70.0236804  0.310223E-06  0.273E-03    2.50       5.3  T
   4    -70.0236807 -0.370096E-06  0.464E-04    2.51      31.1  T
   5    -70.0236807 -0.248376E-08  0.229E-04    2.51      63.0  T
     SCC iter.                  ...        0 min,  0.012 sec
     gradient                   ...        0 min,  0.080 sec
 * total energy  :   -69.0403930 Eh     change       -0.1592094E-04 Eh
   gradient norm :     0.0006451 Eh/α   predicted    -0.6630195E-05 ( -58.36%)
   displ. norm   :     0.1905956 α      lambda       -0.1713312E-04
   maximum displ.:     0.1088542 α      in ANC's #3, #2, #4, ...

........................................................................
.............................. CYCLE   28 ..............................
........................................................................

 iter      E             dE          RMSdq      gap      omega  full diag
   1    -70.0236202 -0.700236E+02  0.611E-02    2.50       0.0  T
   2    -70.0236204 -0.273702E-06  0.359E-02    2.50       1.0  T
   3    -70.0236199  0.572593E-06  0.386E-03    2.50       3.7  T
   4    -70.0236206 -0.718470E-06  0.751E-04    2.50      19.2  T
   5    -70.0236206 -0.647589E-08  0.366E-04    2.50      39.4  T
     SCC iter.                  ...        0 min,  0.012 sec
     gradient                   ...        0 min,  0.080 sec
 * total energy  :   -69.0404135 Eh     change       -0.2051375E-04 Eh
   gradient norm :     0.0009697 Eh/α   predicted    -0.8706710E-05 ( -57.56%)
   displ. norm   :     0.2830164 α      lambda       -0.2100956E-04
   maximum displ.:     0.1575235 α      in ANC's #3, #2, #4, ...

........................................................................
.............................. CYCLE   29 ..............................
........................................................................

 iter      E             dE          RMSdq      gap      omega  full diag
   1    -70.0231496 -0.700231E+02  0.902E-02    2.50       0.0  T
   2    -70.0231502 -0.571815E-06  0.529E-02    2.50       1.0  T
   3    -70.0231492  0.932175E-06  0.511E-03    2.50       2.8  T
   4    -70.0231505 -0.121436E-05  0.110E-03    2.50      13.1  T
   5    -70.0231505 -0.158151E-07  0.549E-04    2.50      26.3  T
   6    -70.0231505 -0.178105E-08  0.186E-04    2.50      77.5  T
     SCC iter.                  ...        0 min,  0.067 sec
     gradient                   ...        0 min,  0.029 sec
 * total energy  :   -69.0404358 Eh     change       -0.2226005E-04 Eh
   gradient norm :     0.0011939 Eh/α   predicted    -0.1088116E-04 ( -51.12%)
   displ. norm   :     0.2211730 α      lambda       -0.1621137E-04
   maximum displ.:     0.1242897 α      in ANC's #2, #3, #4, ...

........................................................................
.............................. CYCLE   30 ..............................
........................................................................

 iter      E             dE          RMSdq      gap      omega  full diag
   1    -70.0232904 -0.700233E+02  0.657E-02    2.50       0.0  T
   2    -70.0232907 -0.364528E-06  0.385E-02    2.50       1.0  T
   3    -70.0232904  0.344192E-06  0.330E-03    2.50       4.4  T
   4    -70.0232909 -0.497669E-06  0.907E-04    2.50      15.9  T
   5    -70.0232909 -0.111326E-07  0.470E-04    2.50      30.7  T
     SCC iter.                  ...        0 min,  0.057 sec
     gradient                   ...        0 min,  0.029 sec
 * total energy  :   -69.0404535 Eh     change       -0.1773092E-04 Eh
   gradient norm :     0.0007758 Eh/α   predicted    -0.8282984E-05 ( -53.29%)
   displ. norm   :     0.1558804 α      lambda       -0.1230120E-04
   maximum displ.:     0.0882482 α      in ANC's #2, #4, #3, ...

........................................................................
.............................. CYCLE   31 ..............................
........................................................................

 iter      E             dE          RMSdq      gap      omega  full diag
   1    -70.0238239 -0.700238E+02  0.420E-02    2.50       0.0  T
   2    -70.0238242 -0.237756E-06  0.247E-02    2.50       1.0  T
   3    -70.0238239  0.273128E-06  0.278E-03    2.50       5.2  T
   4    -70.0238243 -0.372762E-06  0.699E-04    2.50      20.6  T
   5    -70.0238243 -0.368645E-08  0.398E-04    2.50      36.3  T
     SCC iter.                  ...        0 min,  0.063 sec
     gradient                   ...        0 min,  0.029 sec
 * total energy  :   -69.0404669 Eh     change       -0.1344213E-04 Eh
   gradient norm :     0.0005325 Eh/α   predicted    -0.6217305E-05 ( -53.75%)
   displ. norm   :     0.1648498 α      lambda       -0.8455536E-05
   maximum displ.:     0.0930932 α      in ANC's #2, #4, #3, ...

........................................................................
.............................. CYCLE   32 ..............................
........................................................................

 iter      E             dE          RMSdq      gap      omega  full diag
   1    -70.0235658 -0.700236E+02  0.447E-02    2.50       0.0  T
   2    -70.0235661 -0.265768E-06  0.263E-02    2.50       1.0  T
   3    -70.0235658  0.300694E-06  0.293E-03    2.50       4.9  T
   4    -70.0235662 -0.408712E-06  0.766E-04    2.50      18.8  T
   5    -70.0235662 -0.563038E-08  0.428E-04    2.50      33.7  T
     SCC iter.                  ...        0 min,  0.063 sec
     gradient                   ...        0 min,  0.029 sec
 * total energy  :   -69.0404756 Eh     change       -0.8695256E-05 Eh
   gradient norm :     0.0008156 Eh/α   predicted    -0.4280568E-05 ( -50.77%)
   displ. norm   :     0.0890303 α      lambda       -0.5218367E-05
   maximum displ.:     0.0476425 α      in ANC's #4, #2, #5, ...

........................................................................
.............................. CYCLE   33 ..............................
........................................................................

 iter      E             dE          RMSdq      gap      omega  full diag
   1    -70.0239692 -0.700240E+02  0.188E-02    2.50       0.0  T
   2    -70.0239693 -0.112726E-06  0.111E-02    2.50       1.3  T
   3    -70.0239691  0.140699E-06  0.199E-03    2.50       7.3  T
   4    -70.0239693 -0.184746E-06  0.508E-04    2.50      28.4  T
   5    -70.0239693 -0.256097E-08  0.284E-04    2.50      50.8  T
     SCC iter.                  ...        0 min,  0.063 sec
     gradient                   ...        0 min,  0.029 sec
 * total energy  :   -69.0404806 Eh     change       -0.4919212E-05 Eh
   gradient norm :     0.0006444 Eh/α   predicted    -0.2619855E-05 ( -46.74%)
   displ. norm   :     0.0810739 α      lambda       -0.3566111E-05
   maximum displ.:     0.0440968 α      in ANC's #2, #4, #5, ...

   *** GEOMETRY OPTIMIZATION CONVERGED AFTER 33 ITERATIONS ***

------------------------------------------------------------------------
 total energy gain   :        -0.0155689 Eh       -9.7697 kcal/mol
 total RMSD          :         0.5496982 a0        0.2909 Å
 total power (kW/mol):        -1.2386747 (step)  -13.1937 (real)
------------------------------------------------------------------------

 ANCopt (total)                0 d,  0 h,  0 min,  3.098 sec
 optimizer setup                ...        0 min,  0.000 sec (  0.003%)
 model hessian                  ...        0 min,  0.158 sec (  5.111%)
 ANC generation                 ...        0 min,  0.004 sec (  0.123%)
 coordinate transformation      ...        0 min,  0.000 sec (  0.009%)
 single point calculation       ...        0 min,  2.926 sec ( 94.427%)
 optimization log               ...        0 min,  0.006 sec (  0.190%)
 hessian update                 ...        0 min,  0.000 sec (  0.016%)
 rational function              ...        0 min,  0.003 sec (  0.087%)

================
 final structure:
================
48
 xtb: 6.7.1 (edcfbbe)
O           -1.94130509458432        0.22374606844883        0.41860352452247
C           -0.65635096536052       -0.29083672977308        0.12342940314503
C            0.03494788670416       -0.72926435070347        1.42418006623372
N           -0.15372495655046        0.31211660330310        2.44047080101184
C            0.21205435186959       -0.23299358517828        3.73950635590588
C            1.66126483097221       -0.76459910999385        3.72129262781833
C            0.65940931876746        1.48933194613349        2.17187933394860
C            2.17280333135319        1.16626953113051        2.22449432525302
C            2.93785505034827        1.66040593915097        1.02926291211325
C            2.72155060001629        2.79953072928627        0.39842670592508
C            2.29369395341618       -0.35690586068600        2.38644566461789
C            1.53192270762816       -1.04065585288237        1.24668814152780
C           -0.80082355876163       -1.38318489265721       -0.91888183261639
C           -0.51655511340828       -2.70408137679020       -0.67803975407921
C           -0.64207556767362       -3.64328731522825       -1.71489099356729
N           -1.01384113465803       -3.34580062864854       -2.92640435116052
C           -1.32496593031268       -2.06476059135753       -3.19642458261855
C           -1.25257363130009       -1.03143694591107       -2.22099881476786
C           -1.63189251883483        0.27671032160301       -2.58245504831783
C           -2.05246100588984        0.55481735995652       -3.86000513327911
O           -2.44963528645333        1.77795349193682       -4.30390786663216
C           -2.47417446111425        2.84670195884268       -3.38923341098165
C           -2.09510812468547       -0.47158360801359       -4.83232934367778
C           -1.74485612720978       -1.74532654721180       -4.50693588122067
H           -1.89957295011288        0.55503140755895        1.32847619513767
H           -0.04271818950195        0.50648656294747       -0.33794236608791
H           -0.50519209668503       -1.60142617528997        1.80865773099572
H            0.09419029512597        0.56356041666915        4.47756476030555
H           -0.49673667280862       -1.02664280655287        3.98891028117329
H            2.23645342454404       -0.34954462760101        4.55013276764083
H            1.67807972117661       -1.85175091287377        3.81427293173554
H            0.39352423045611        2.24501872262214        2.91548521079192
H            0.38724610148895        1.88061471307134        1.19161349108769
H            2.61378116368380        1.63759047240613        3.11237459624352
H            3.74558258094014        1.01730367303788        0.70298137315293
H            1.94665678419190        3.48622134803876        0.69606307944394
H            3.32256802649845        3.10231968872078       -0.44200608935863
H            3.34634206732038       -0.65387384925871        2.36466766651057
H            1.88660570886708       -0.66366343871748        0.28512659010232
H            1.71523507143872       -2.11532744902803        1.27053060301790
H           -0.18943391936111       -3.05129554359727        0.28766492526211
H           -0.41454897718982       -4.68583511537306       -1.53014866967865
H           -1.62297807308982        1.04091089993131       -1.82516742873186
H           -2.85083934719141        3.70332422055303       -3.94608405723848
H           -3.14065643041204        2.63744926180325       -2.54681798757034
H           -1.47184236900410        3.07309448202104       -3.01099351356039
H           -2.42272236708226       -0.20848394641611       -5.82593448429491
H           -1.78418233758665       -2.54454855943792       -5.22990045517716

 Bond Distances (Angstroems)
 ---------------------------
O1-C2=1.4153         O1-H25=0.9692        C2-O1=1.4153         C2-C3=1.5369         C2-C13=1.5167        C2-H26=1.1069        
C3-C2=1.5369         C3-N4=1.4673         C3-C12=1.5393        C3-H27=1.0956        N4-C3=1.4673         N4-C5=1.4555         
N4-C7=1.4557         C5-N4=1.4555         C5-C6=1.5437         C5-H28=1.0923        C5-H29=1.0929        C6-C5=1.5437         
C6-C11=1.5323        C6-H30=1.0909        C6-H31=1.0913        C7-N4=1.4557         C7-C8=1.5484         C7-H32=1.0930        
C7-H33=1.0900        C8-C7=1.5484         C8-C9=1.5027         C8-C11=1.5365        C8-H34=1.0977        C9-C8=1.5027         
C9-C10=1.3200        C9-H35=1.0828        C10-C9=1.3200        C10-H36=1.0773       C10-H37=1.0767       C11-C6=1.5323        
C11-C8=1.5365        C11-C12=1.5319       C11-H38=1.0940       C12-C3=1.5393        C12-C11=1.5319       C12-H39=1.0920       
C12-H40=1.0905       C13-C2=1.5167        C13-C14=1.3724       C13-C18=1.4224       C14-C13=1.3724       C14-C15=1.4046       
C14-H41=1.0771       C15-C14=1.4046       C15-N16=1.3017       C15-H42=1.0830       N16-C15=1.3017       N16-C17=1.3456       
C17-N16=1.3456       C17-C18=1.4228       C17-C24=1.4127       C18-C13=1.4224       C18-C17=1.4228       C18-C19=1.4092       
C19-C18=1.4092       C19-C20=1.3734       C19-H43=1.0759       C20-C19=1.3734       C20-O21=1.3605       C20-C23=1.4145       
O21-C20=1.3605       O21-C22=1.4069       C22-O21=1.4069       C22-H44=1.0889       C22-H45=1.0944       C22-H46=1.0950       
C23-C20=1.4145       C23-C24=1.3605       C23-H47=1.0788       C24-C17=1.4127       C24-C23=1.3605       C24-H48=1.0784       
H25-O1=0.9692        H26-C2=1.1069        H27-C3=1.0956        H28-C5=1.0923        H29-C5=1.0929        H30-C6=1.0909        
H31-C6=1.0913        H32-C7=1.0930        H33-C7=1.0900        H34-C8=1.0977        H35-C9=1.0828        H36-C10=1.0773       
H37-C10=1.0767       H38-C11=1.0940       H39-C12=1.0920       H40-C12=1.0905       H41-C14=1.0771       H42-C15=1.0830       
H43-C19=1.0759       H44-C22=1.0889       H45-C22=1.0944       H46-C22=1.0950       H47-C23=1.0788       H48-C24=1.0784       
 C  H  Rav=1.0885 sigma=0.0080  Rmin=1.0759  Rmax=1.1069    23
 C  C  Rav=1.4580 sigma=0.0746  Rmin=1.3200  Rmax=1.5484    19
 N  C  Rav=1.4052 sigma=0.0681  Rmin=1.3017  Rmax=1.4673     5
 O  H  Rav=0.9692 sigma=0.0000  Rmin=0.9692  Rmax=0.9692     1
 O  C  Rav=1.3942 sigma=0.0241  Rmin=1.3605  Rmax=1.4153     3

 selected bond angles (degree)
 --------------------
H25-O1-C2=106.32               C3-C2-O1=109.61                C13-C2-O1=108.58               C13-C2-C3=114.77               
H26-C2-O1=109.17               H26-C2-C3=107.99               H26-C2-C13=106.57              N4-C3-C2=109.02                
C12-C3-C2=113.43               C12-C3-N4=110.40               H27-C3-C2=107.60               H27-C3-N4=104.98               
H27-C3-C12=111.03              C5-N4-C3=108.67                C7-N4-C3=111.98                C7-N4-C5=109.10                
C6-C5-N4=110.75                H28-C5-N4=107.63               H28-C5-C6=111.12               H29-C5-N4=108.22               
H29-C5-C6=111.19               H29-C5-H28=107.78              C11-C6-C5=107.82               H30-C6-C5=110.79               
H30-C6-C11=110.06              H31-C6-C5=110.89               H31-C6-C11=109.45              H31-C6-H30=107.83              
C8-C7-N4=111.77                H32-C7-N4=107.32               H32-C7-C8=111.03               H33-C7-N4=108.47               
H33-C7-C8=110.46               H33-C7-H32=107.63              C9-C8-C7=113.70                C11-C8-C7=106.70               
C11-C8-C9=111.70               H34-C8-C7=109.30               H34-C8-C9=107.32               H34-C8-C11=107.99              
C10-C9-C8=125.48               H35-C9-C8=115.10               H35-C9-C10=119.39              H36-C10-C9=122.41              
H37-C10-C9=121.62              H37-C10-H36=115.97             

 selected dihedral angles (degree)
 ---------------------------------
C3-C2-O1-H25= 26.27           C13-C2-O1-H25=152.36          H26-C2-O1-H25=268.17          N4-C3-C2-O1=314.90            
N4-C3-C2-C13=192.42           N4-C3-C2-H26= 73.73           C12-C3-C2-O1=191.46           C12-C3-C2-C13= 68.98          
C12-C3-C2-H26=310.29          H27-C3-C2-O1= 68.24           H27-C3-C2-C13=305.76          H27-C3-C2-H26=187.07          
C5-N4-C3-C2=166.51            C5-N4-C3-C12=291.73           C5-N4-C3-H27= 51.46           C7-N4-C3-C2=287.09            
C7-N4-C3-C12= 52.31           C7-N4-C3-H27=172.04           C6-C5-N4-C3= 56.68            C6-C5-N4-C7=294.33            
H28-C5-N4-C3=178.33           H28-C5-N4-C7= 55.98           H29-C5-N4-C3=294.56           H29-C5-N4-C7=172.21           
C11-C6-C5-N4=  7.84           C11-C6-C5-H28=248.27          C11-C6-C5-H29=128.21          H30-C6-C5-N4=128.34           
H30-C6-C5-H28=  8.77          H30-C6-C5-H29=248.71          H31-C6-C5-N4=248.04           H31-C6-C5-H28=128.47          
H31-C6-C5-H29=  8.41          C8-C7-N4-C3=296.86            C8-C7-N4-C5= 57.19            H32-C7-N4-C3=174.90           
H32-C7-N4-C5=295.23           H33-C7-N4-C3= 58.88           H33-C7-N4-C5=179.21           C9-C8-C7-N4=130.12            
C9-C8-C7-H32=249.93           C9-C8-C7-H33=  9.25           C11-C8-C7-N4=  6.53           C11-C8-C7-H32=126.33          
C11-C8-C7-H33=245.66          H34-C8-C7-N4=250.00           H34-C8-C7-H32=  9.80          H34-C8-C7-H33=129.13          
C10-C9-C8-C7= 37.72           C10-C9-C8-C11=158.54          C10-C9-C8-H34=276.72          H35-C9-C8-C7=215.83           
H35-C9-C8-C11=336.66          H35-C9-C8-H34= 94.83          H36-C10-C9-C8=359.48          H36-C10-C9-H35=181.44         
H37-C10-C9-C8=178.72          H37-C10-C9-H35=  0.68         
           -------------------------------------------------
          |                Final Singlepoint                |
           -------------------------------------------------

          ...................................................
          :                      SETUP                      :
          :.................................................:
          :  # basis functions                 120          :
          :  # atomic orbitals                 120          :
          :  # shells                           72          :
          :  # electrons                       126          :
          :  max. iterations                   250          :
          :  Hamiltonian                  GFN2-xTB          :
          :  restarted?                      false          :
          :  GBSA solvation                  false          :
          :  PC potential                    false          :
          :  electronic temp.          300.0000000     K    :
          :  accuracy                    1.0000000          :
          :  -> integral cutoff          0.2500000E+02      :
          :  -> integral neglect         0.1000000E-07      :
          :  -> SCF convergence          0.1000000E-05 Eh   :
          :  -> wf. convergence          0.1000000E-03 e    :
          :  Broyden damping             0.4000000          :
          :  net charge                          0          :
          :  unpaired electrons                  0          :
          ...................................................

 iter      E             dE          RMSdq      gap      omega  full diag
   1    -70.0239693 -0.700240E+02  0.102E-04    2.50       0.0  T
   2    -70.0239693 -0.788702E-10  0.702E-05    2.50     205.5  T
   3    -70.0239693 -0.130854E-09  0.396E-05    2.50     364.5  T

   *** convergence criteria satisfied after 3 iterations ***

         #    Occupation            Energy/Eh            Energy/eV
      -------------------------------------------------------------
         1        2.0000           -0.7149159             -19.4539
       ...           ...                  ...                  ...
        57        2.0000           -0.4190853             -11.4039
        58        2.0000           -0.4084356             -11.1141
        59        2.0000           -0.4048900             -11.0176
        60        2.0000           -0.3947957             -10.7429
        61        2.0000           -0.3742186             -10.1830
        62        2.0000           -0.3657604              -9.9528
        63        2.0000           -0.3578251              -9.7369 (HOMO)
        64                         -0.2658559              -7.2343 (LUMO)
        65                         -0.2269627              -6.1760
        66                         -0.2112881              -5.7494
        67                         -0.1936499              -5.2695
        68                         -0.1463004              -3.9810
       ...                                ...                  ...
       120                          0.7056602              19.2020
      -------------------------------------------------------------
                  HL-Gap            0.0919692 Eh            2.5026 eV
             Fermi-level           -0.3118405 Eh           -8.4856 eV

 SCC (total)                   0 d,  0 h,  0 min,  0.085 sec
 SCC setup                      ...        0 min,  0.000 sec (  0.420%)
 Dispersion                     ...        0 min,  0.000 sec (  0.451%)
 classical contributions        ...        0 min,  0.000 sec (  0.208%)
 integral evaluation            ...        0 min,  0.009 sec ( 10.283%)
 iterations                     ...        0 min,  0.007 sec (  8.468%)
 molecular gradient             ...        0 min,  0.068 sec ( 79.958%)
 printout                       ...        0 min,  0.000 sec (  0.202%)

         :::::::::::::::::::::::::::::::::::::::::::::::::::::
         ::                     SUMMARY                     ::
         :::::::::::::::::::::::::::::::::::::::::::::::::::::
         :: total energy             -69.040480555674 Eh    ::
         :: gradient norm              0.000644057447 Eh/a0 ::
         :: HOMO-LUMO gap              2.502608784091 eV    ::
         ::.................................................::
         :: SCC energy               -70.023109955317 Eh    ::
         :: -> isotropic ES            0.055182853899 Eh    ::
         :: -> anisotropic ES          0.007064844821 Eh    ::
         :: -> anisotropic XC          0.036248561168 Eh    ::
         :: -> dispersion             -0.054164755322 Eh    ::
         :: repulsion energy           0.982629399643 Eh    ::
         :: add. restraining           0.000000000000 Eh    ::
         :: total charge              -0.000000000000 e     ::
         :::::::::::::::::::::::::::::::::::::::::::::::::::::

           -------------------------------------------------
          |                Property Printout                |
           -------------------------------------------------

    * Orbital Energies and Occupations

         #    Occupation            Energy/Eh            Energy/eV
      -------------------------------------------------------------
         1        2.0000           -0.7149159             -19.4539
       ...           ...                  ...                  ...
        51        2.0000           -0.4375419             -11.9061
        52        2.0000           -0.4364313             -11.8759
        53        2.0000           -0.4357734             -11.8580
        54        2.0000           -0.4336432             -11.8000
        55        2.0000           -0.4295791             -11.6894
        56        2.0000           -0.4263242             -11.6009
        57        2.0000           -0.4190853             -11.4039
        58        2.0000           -0.4084356             -11.1141
        59        2.0000           -0.4048900             -11.0176
        60        2.0000           -0.3947957             -10.7429
        61        2.0000           -0.3742186             -10.1830
        62        2.0000           -0.3657604              -9.9528
        63        2.0000           -0.3578251              -9.7369 (HOMO)
        64                         -0.2658559              -7.2343 (LUMO)
        65                         -0.2269627              -6.1760
        66                         -0.2112881              -5.7494
        67                         -0.1936499              -5.2695
        68                         -0.1463004              -3.9810
        69                         -0.0618452              -1.6829
        70                         -0.0011955              -0.0325
        71                          0.0245227               0.6673
        72                          0.0317142               0.8630
        73                          0.0350324               0.9533
        74                          0.0514372               1.3997
       ...                                ...                  ...
       120                          0.7056602              19.2020
      -------------------------------------------------------------
                  HL-Gap            0.0919692 Eh            2.5026 eV
             Fermi-level           -0.3118405 Eh           -8.4856 eV

     #   Z          covCN         q      C6AA      α(0)
     1   8 O        1.655    -0.451    21.874     6.314
     2   6 C        3.730     0.110    18.864     6.200
     3   6 C        3.820     0.031    20.033     6.370
     4   7 N        2.730    -0.200    25.331     7.475
     5   6 C        3.781     0.010    20.436     6.440
     6   6 C        3.807    -0.065    21.732     6.636
     7   6 C        3.772     0.007    20.492     6.451
     8   6 C        3.860    -0.027    21.021     6.520
     9   6 C        2.887    -0.032    28.796     8.798
    10   6 C        2.836    -0.096    30.409     9.037
    11   6 C        3.866    -0.007    20.667     6.465
    12   6 C        3.809    -0.064    21.713     6.633
    13   6 C        2.969     0.013    27.726     8.637
    14   6 C        2.914    -0.052    29.284     8.874
    15   6 C        2.907     0.059    26.680     8.470
    16   7 N        1.841    -0.231    26.897     7.686
    17   6 C        2.979     0.082    26.174     8.392
    18   6 C        2.987     0.002    27.966     8.675
    19   6 C        2.914    -0.076    29.889     8.965
    20   6 C        2.864     0.144    24.867     8.174
    21   8 O        1.706    -0.265    18.399     5.791
    22   6 C        3.645     0.036    20.302     6.476
    23   6 C        2.916    -0.048    29.184     8.859
    24   6 C        2.920    -0.039    28.963     8.825
    25   1 H        0.804     0.303     0.711     1.325
    26   1 H        0.922     0.017     2.783     2.609
    27   1 H        0.924     0.037     2.487     2.466
    28   1 H        0.924     0.033     2.541     2.493
    29   1 H        0.924     0.032     2.564     2.504
    30   1 H        0.924     0.028     2.611     2.527
    31   1 H        0.924     0.030     2.592     2.517
    32   1 H        0.924     0.031     2.571     2.508
    33   1 H        0.925     0.042     2.423     2.434
    34   1 H        0.924     0.038     2.481     2.463
    35   1 H        0.925     0.032     2.557     2.500
    36   1 H        0.926     0.035     2.519     2.482
    37   1 H        0.926     0.037     2.495     2.470
    38   1 H        0.924     0.023     2.691     2.565
    39   1 H        0.924     0.030     2.587     2.515
    40   1 H        0.924     0.028     2.608     2.526
    41   1 H        0.926     0.031     2.569     2.506
    42   1 H        0.925     0.035     2.514     2.479
    43   1 H        0.926     0.055     2.261     2.351
    44   1 H        0.925     0.062     2.178     2.308
    45   1 H        0.924     0.046     2.366     2.405
    46   1 H        0.924     0.040     2.455     2.450
    47   1 H        0.926     0.054     2.267     2.355
    48   1 H        0.926     0.060     2.198     2.319

 Mol. C6AA /au·bohr⁶  :      24093.377630
 Mol. C8AA /au·bohr⁸  :     561708.071204
 Mol. α(0) /au        :        239.239431


Wiberg/Mayer (AO) data.
largest (>0.10) Wiberg bond orders for each atom

 ---------------------------------------------------------------------------
     #   Z sym  total        # sym  WBO       # sym  WBO       # sym  WBO
 ---------------------------------------------------------------------------
     1   8 O    1.951 --     2 C    0.987    25 H    0.872
     2   6 C    3.960 --     1 O    0.987    13 C    0.982     3 C    0.976
                            26 H    0.941
     3   6 C    3.983 --     4 N    0.986    12 C    0.983     2 C    0.976
                            27 H    0.961
     4   7 N    3.139 --     7 C    1.004     5 C    1.002     3 C    0.986
     5   6 C    3.986 --     4 N    1.002     6 C    0.989    28 H    0.976
                            29 H    0.975
     6   6 C    3.997 --    11 C    0.998     5 C    0.989    30 H    0.980
                            31 H    0.980
     7   6 C    3.986 --     4 N    1.004    32 H    0.975     8 C    0.970
                            33 H    0.966
     8   6 C    3.996 --     9 C    1.014    11 C    0.984     7 C    0.970
                            34 H    0.950
     9   6 C    3.990 --    10 C    1.978     8 C    1.014    35 H    0.964
    10   6 C    3.992 --     9 C    1.978    37 H    0.977    36 H    0.975
    11   6 C    3.996 --     6 C    0.998    12 C    0.997     8 C    0.984
                            38 H    0.968
    12   6 C    3.997 --    11 C    0.997     3 C    0.983    40 H    0.977
                            39 H    0.974
    13   6 C    3.986 --    14 C    1.530    18 C    1.256     2 C    0.982
                            16 N    0.102
    14   6 C    3.991 --    13 C    1.530    15 C    1.310    41 H    0.963
    15   6 C    3.974 --    16 N    1.545    14 C    1.310    42 H    0.963
    16   7 N    3.064 --    15 C    1.545    17 C    1.293    13 C    0.102
    17   6 C    3.983 --    16 N    1.293    24 C    1.252    18 C    1.238
    18   6 C    3.989 --    19 C    1.287    13 C    1.256    17 C    1.238
    19   6 C    3.985 --    20 C    1.471    18 C    1.287    43 H    0.958
                            24 C    0.105
    20   6 C    3.935 --    19 C    1.471    23 C    1.245    21 O    1.067
    21   8 O    2.231 --    20 C    1.067    22 C    0.985
    22   6 C    3.946 --    21 O    0.985    44 H    0.980    46 H    0.976
                            45 H    0.976
    23   6 C    3.989 --    24 C    1.589    20 C    1.245    47 H    0.967
    24   6 C    3.989 --    23 C    1.589    17 C    1.252    48 H    0.966
                            19 C    0.105
    25   1 H    0.907 --     1 O    0.872
    26   1 H    1.000 --     2 C    0.941
    27   1 H    0.999 --     3 C    0.961
    28   1 H    0.999 --     5 C    0.976
    29   1 H    0.999 --     5 C    0.975
    30   1 H    0.999 --     6 C    0.980
    31   1 H    0.999 --     6 C    0.980
    32   1 H    0.999 --     7 C    0.975
    33   1 H    0.998 --     7 C    0.966
    34   1 H    0.999 --     8 C    0.950
    35   1 H    0.999 --     9 C    0.964
    36   1 H    0.999 --    10 C    0.975
    37   1 H    0.998 --    10 C    0.977
    38   1 H    0.999 --    11 C    0.968
    39   1 H    0.999 --    12 C    0.974
    40   1 H    0.999 --    12 C    0.977
    41   1 H    0.999 --    14 C    0.963
    42   1 H    0.998 --    15 C    0.963
    43   1 H    0.997 --    19 C    0.958
    44   1 H    0.996 --    22 C    0.980
    45   1 H    0.997 --    22 C    0.976
    46   1 H    0.998 --    22 C    0.976
    47   1 H    0.996 --    23 C    0.967
    48   1 H    0.995 --    24 C    0.966
 ---------------------------------------------------------------------------

Topologies differ in total number of bonds
Writing topology from bond orders to xtbtopo.mol

molecular dipole:
                 x           y           z       tot (Debye)
 q only:        0.490       0.697       0.894
   full:        0.988       0.972       1.573       5.329
molecular quadrupole (traceless):
                xx          xy          yy          xz          yz          zz
 q only:       -3.558      -5.084       2.323      -0.553      -5.027       1.235
  q+dip:       -5.006      -6.997       4.412      -0.417     -11.215       0.594
   full:       -1.577      -5.999       2.486      -1.481     -10.738      -0.909

           -------------------------------------------------
          |                Geometry Summary                 |
           -------------------------------------------------

      molecular mass/u    :      324.4175123
   center of mass at/Å    :       -0.2824630      -0.2211928      -0.5367202
  moments of inertia/u·Å² :        0.1288876E+04   0.3299095E+04   0.3932453E+04
rotational constants/cm⁻¹ :        0.1307933E-01   0.5109774E-02   0.4286798E-02

 * 47 selected distances

     #   Z          #   Z                                           value/Å
     1   8 O        2   6 C                                       1.4152847
     2   6 C        3   6 C                                       1.5369013
     3   6 C        4   7 N                                       1.4672829
     4   7 N        5   6 C                                       1.4554839
     4   7 N        7   6 C                                       1.4557352
     9   6 C       10   6 C                                       1.3199801
     6   6 C       11   6 C                                       1.5323176
     8   6 C       11   6 C                                       1.5365242
     3   6 C       12   6 C                                       1.5392862 (max)
    11   6 C       12   6 C                                       1.5319455
    13   6 C       14   6 C                                       1.3724363
    14   6 C       15   6 C                                       1.4046081
    15   6 C       16   7 N                                       1.3017192
    16   7 N       17   6 C                                       1.3456498
    13   6 C       18   6 C                                       1.4224323
    17   6 C       18   6 C                                       1.4228332
    18   6 C       19   6 C                                       1.4091782
    19   6 C       20   6 C                                       1.3734467
    20   6 C       21   8 O                                       1.3604629
    21   8 O       22   6 C                                       1.4069311
    20   6 C       23   6 C                                       1.4144725
    17   6 C       24   6 C                                       1.4127229
    23   6 C       24   6 C                                       1.3605068
     1   8 O       25   1 H                                       0.9692059 (min)
     2   6 C       26   1 H                                       1.1068576
     3   6 C       27   1 H                                       1.0955550
     5   6 C       28   1 H                                       1.0923006
     5   6 C       29   1 H                                       1.0929164
     6   6 C       30   1 H                                       1.0909117
     6   6 C       31   1 H                                       1.0912504
     7   6 C       32   1 H                                       1.0930267
     7   6 C       33   1 H                                       1.0899983
     8   6 C       34   1 H                                       1.0976960
     9   6 C       35   1 H                                       1.0828038
    10   6 C       36   1 H                                       1.0773078
    10   6 C       37   1 H                                       1.0766757
    11   6 C       38   1 H                                       1.0939527
    12   6 C       39   1 H                                       1.0920275
    12   6 C       40   1 H                                       1.0904546
    14   6 C       41   1 H                                       1.0771034
    15   6 C       42   1 H                                       1.0829609
    19   6 C       43   1 H                                       1.0759028
    22   6 C       44   1 H                                       1.0889265
    22   6 C       45   1 H                                       1.0943715
    22   6 C       46   1 H                                       1.0949835
    23   6 C       47   1 H                                       1.0787974
    24   6 C       48   1 H                                       1.0784157

 * 5 distinct bonds (by element types)

   Z      Z             #   av. dist./Å        max./Å        min./Å
   1 H    6 C          23     1.0884868     1.1068576     1.0759028
   6 C    6 C          15     1.4393061     1.5392862     1.3199801
   6 C    7 N           5     1.4051742     1.4672829     1.3017192
   1 H    8 O           1     0.9692059     0.9692059     0.9692059
   6 C    8 O           3     1.3942262     1.4152847     1.3604629


optimized geometry written to: xtbopt.xyz


           -------------------------------------------------
          | TOTAL ENERGY              -69.040480555674 Eh   |
          | GRADIENT NORM               0.000644057447 Eh/α |
[...]
     DOI: 10.1039/c7sc00601b
   * J. Koopman and S. Grimme, ACS Omega 2019, 4, 12, 15120-15133.
     DOI: 10.1021/acsomega.9b02011
   
   for metadynamics refer to:
   * S. Grimme, J. Chem. Theory Comput., 2019, 155, 2847-2862
     DOI: 10.1021/acs.jctc.9b00143
   
   for SPH calculations refer to:
   * S. Spicher and S. Grimme, J. Chem. Theory Comput., 2021, 17, 1701-1714
     DOI: 10.1021/acs.jctc.0c01306
   
   for ONIOM refer to:
   * C. Plett, A. Katbashev, S. Ehlert, S. Grimme, M. Bursch,
     Phys. Chem. Chem. Phys., 2023, 25, 17860-17868. DOI: 10.1039/D3CP02178E
   
   for DIPRO refer to:
   * J. Kohn, N. Gildemeister, S. Grimme, D. Fazzi, A. Hansen,
     J. Chem. Phys., 2023, just accepted.
   
   for PTB refer to:
   * S. Grimme, M. Mueller, A. Hansen, J. Chem. Phys., 2023, 158, 124111.
     DOI: 10.1063/5.0137838
   
   with help from (in alphabetical order)
   P. Atkinson, C. Bannwarth, F. Bohle, G. Brandenburg, E. Caldeweyher
   M. Checinski, S. Dohm, S. Ehlert, S. Ehrlich, I. Gerasimov, C. Hölzer
   A. Katbashev, J. Kohn, J. Koopman, C. Lavigne, S. Lehtola, F. März, M. Müller,
   F. Musil, H. Neugebauer, J. Pisarek, C. Plett, P. Pracht, F. Pultar,
   J. Seibert, P. Shushkov, S. Spicher, M. Stahn, M. Steiner, T. Strunk,
   J. Stückrath, T. Rose, and J. Unsleber
   
 * started run on 2025/05/15 at 16:33:10.048     
   ID    Z sym.   atoms
    1    8 O      1, 21
    2    6 C      2, 3, 5-15, 17-20, 22-24
    3    7 N      4, 16
    4    1 H      25-48

           -------------------------------------------------
          |                Calculation Setup                |
           -------------------------------------------------

          program call               : xtb /rds/general/user/hgt20/home/callum/QDESCP/Quinine_rdkit_conf_13/Quinine_rdkit_conf_13.xyz --acc 1 --gfn 2 --chrg 0 --uhf 2 --etemp 300 --input /rds/general/user/hgt20/home/callum/QDESCP/Quinine_rdkit_conf_13/Quinine_rdkit_conf_13_xtb.inp -P 1
          hostname                   : login-c
          coordinate file            : /rds/general/user/hgt20/home/callum/QDESCP/Quinine_rdkit_conf_13/Quinine_rdkit_conf_13.xyz
          omp threads                :                     1


           -------------------------------------------------
          |                 G F N 2 - x T B                 |
           -------------------------------------------------

        Reference                      10.1021/acs.jctc.8b01176
      * Hamiltonian:
        H0-scaling (s, p, d)           1.850000    2.230000    2.230000
        zeta-weighting                 0.500000
      * Dispersion:
        s8                             2.700000
        a1                             0.520000
        a2                             5.000000
        s9                             5.000000
      * Repulsion:
        kExp                           1.500000    1.000000
        rExp                           1.000000
      * Coulomb:
        alpha                          2.000000
        third order                    shell-resolved
        anisotropic                    true
        a3                             3.000000
        a5                             4.000000
        cn-shift                       1.200000
        cn-exp                         4.000000
        max-rad                        5.000000


          ...................................................
          :                      SETUP                      :
          :.................................................:
          :  # basis functions                 120          :
          :  # atomic orbitals                 120          :
          :  # shells                           72          :
          :  # electrons                       126          :
          :  max. iterations                   250          :
          :  Hamiltonian                  GFN2-xTB          :
          :  restarted?                      false          :
          :  GBSA solvation                  false          :
          :  PC potential                    false          :
          :  electronic temp.          300.0000000     K    :
          :  accuracy                    1.0000000          :
          :  -> integral cutoff          0.2500000E+02      :
          :  -> integral neglect         0.1000000E-07      :
          :  -> SCF convergence          0.1000000E-05 Eh   :
          :  -> wf. convergence          0.1000000E-03 e    :
          :  Broyden damping             0.4000000          :
          :  net charge                          0          :
          :  unpaired electrons                  2          :
          ...................................................

 iter      E             dE          RMSdq      gap      omega  full diag
   1    -69.6284404 -0.696284E+02  0.364E+00    0.95       0.0  T
   2    -69.4332688  0.195172E+00  0.308E+00    0.82       1.0  T
   3    -69.4398850 -0.661626E-02  0.282E+00    1.18       1.0  T
   4    -69.8719157 -0.432031E+00  0.146E+00    0.76       1.0  T
   5    -69.8046552  0.672605E-01  0.129E+00    0.89       1.0  T
   6    -69.7720453  0.326099E-01  0.114E+00    0.98       1.0  T
   7    -69.8980858 -0.126040E+00  0.648E-01    1.01       1.0  T
   8    -69.9096264 -0.115407E-01  0.441E-01    0.99       1.0  T
   9    -69.8959555  0.136710E-01  0.613E-01    0.99       1.0  T
  10    -69.9155253 -0.195698E-01  0.241E-01    0.98       1.0  T
  11    -69.9164682 -0.942925E-03  0.198E-01    0.97       1.0  T
  12    -69.9165946 -0.126349E-03  0.183E-01    0.97       1.0  T
  13    -69.9178161 -0.122149E-02  0.115E-01    0.97       1.0  T
  14    -69.9067376  0.110785E-01  0.329E-01    0.97       1.0  T
  15    -69.9181233 -0.113857E-01  0.875E-02    0.97       1.0  T
  16    -69.9185425 -0.419217E-03  0.507E-02    0.97       1.0  T
  17    -69.9187642 -0.221736E-03  0.562E-03    0.97       2.6  T
  18    -69.9187605  0.370638E-05  0.763E-03    0.97       1.9  T
  19    -69.9187641 -0.361021E-05  0.377E-03    0.97       3.8  T
  20    -69.9187654 -0.124080E-05  0.151E-03    0.97       9.6  T
  21    -69.9187655 -0.121258E-06  0.116E-03    0.97      12.5  T
  22    -69.9187654  0.119620E-06  0.149E-03    0.97       9.7  T
  23    -69.9187656 -0.219129E-06  0.438E-04    0.97      32.9  T
  24    -69.9187656 -0.126963E-07  0.258E-04    0.97      56.0  T

   *** convergence criteria satisfied after 24 iterations ***

         #    Occupation            Energy/Eh            Energy/eV
      -------------------------------------------------------------
         1        2.0000           -0.7157838             -19.4775
       ...           ...                  ...                  ...
        58        2.0000           -0.4106282             -11.1738
        59        2.0000           -0.4024335             -10.9508
        60        2.0000           -0.3835549             -10.4371
        61        1.9725           -0.3714509             -10.1077
        62        1.6580           -0.3686857             -10.0324
        63        1.3695           -0.3675565             -10.0017
        64        1.0000           -0.2547827              -6.9330 (HOMO)
        65                         -0.2191817              -5.9642 (LUMO)
        66                         -0.2133847              -5.8065
        67                         -0.1854097              -5.0453
        68                         -0.1357181              -3.6931
        69                         -0.0549338              -1.4948
       ...                                ...                  ...
       120                          0.7126299              19.3916
      -------------------------------------------------------------
                  HL-Gap            0.0356010 Eh            0.9688 eV
             Fermi-level           -0.3025237 Eh           -8.2321 eV

 transition dipole moment (au) for excitation:          63          64
     X       Y       Z   
  -0.0620  -0.0125  -0.5997  total (au/Debye):    0.603   1.533
 dE (eV)             :    3.069
 oscillator strength :  0.38669E-01

 SCC (total)                   0 d,  0 h,  0 min,  0.135 sec
 SCC setup                      ...        0 min,  0.000 sec (  0.304%)
 Dispersion                     ...        0 min,  0.001 sec (  0.476%)
 classical contributions        ...        0 min,  0.000 sec (  0.136%)
 integral evaluation            ...        0 min,  0.009 sec (  6.798%)
 iterations                     ...        0 min,  0.059 sec ( 43.468%)
 molecular gradient             ...        0 min,  0.058 sec ( 42.894%)
 printout                       ...        0 min,  0.008 sec (  5.920%)

         :::::::::::::::::::::::::::::::::::::::::::::::::::::
         ::                     SUMMARY                     ::
         :::::::::::::::::::::::::::::::::::::::::::::::::::::
         :: total energy             -68.935276820102 Eh    ::
         :: gradient norm              0.100592646334 Eh/a0 ::
         :: HOMO-LUMO gap              0.968751327219 eV    ::
         ::.................................................::
         :: SCC energy               -69.917906219746 Eh    ::
         :: -> isotropic ES            0.052537017973 Eh    ::
         :: -> anisotropic ES          0.008402434261 Eh    ::
         :: -> anisotropic XC          0.030088112139 Eh    ::
         :: -> dispersion             -0.054125054420 Eh    ::
         :: repulsion energy           0.982629399643 Eh    ::
         :: add. restraining           0.000000000000 Eh    ::
         :: total charge               0.000000000203 e     ::
         :::::::::::::::::::::::::::::::::::::::::::::::::::::

           -------------------------------------------------
          |                Property Printout                |
           -------------------------------------------------

    * Orbital Energies and Occupations

         #    Occupation            Energy/Eh            Energy/eV
      -------------------------------------------------------------
         1        2.0000           -0.7157838             -19.4775
       ...           ...                  ...                  ...
        52        2.0000           -0.4317833             -11.7494
        53        2.0000           -0.4311072             -11.7310
        54        2.0000           -0.4307182             -11.7204
        55        2.0000           -0.4274650             -11.6319
        56        2.0000           -0.4221621             -11.4876
        57        2.0000           -0.4139327             -11.2637
        58        2.0000           -0.4106282             -11.1738
        59        2.0000           -0.4024335             -10.9508
        60        2.0000           -0.3835549             -10.4371
        61        1.9725           -0.3714509             -10.1077
        62        1.6580           -0.3686857             -10.0324
        63        1.3695           -0.3675565             -10.0017
        64        1.0000           -0.2547827              -6.9330 (HOMO)
        65                         -0.2191817              -5.9642 (LUMO)
        66                         -0.2133847              -5.8065
        67                         -0.1854097              -5.0453
        68                         -0.1357181              -3.6931
        69                         -0.0549338              -1.4948
        70                         -0.0027039              -0.0736
        71                          0.0227142               0.6181
        72                          0.0286269               0.7790
        73                          0.0354580               0.9649
        74                          0.0516905               1.4066
        75                          0.0617222               1.6795
       ...                                ...                  ...
       120                          0.7126299              19.3916
      -------------------------------------------------------------
                  HL-Gap            0.0356010 Eh            0.9688 eV
             Fermi-level           -0.3025237 Eh           -8.2321 eV

     #   Z          covCN         q      C6AA      α(0)
     1   8 O        1.655    -0.449    21.819     6.306
     2   6 C        3.730     0.116    18.776     6.186
     3   6 C        3.820     0.031    20.043     6.371
     4   7 N        2.730    -0.185    25.014     7.428
     5   6 C        3.781     0.008    20.459     6.444
     6   6 C        3.807    -0.064    21.731     6.636
     7   6 C        3.772     0.006    20.512     6.454
     8   6 C        3.860    -0.026    21.005     6.518
     9   6 C        2.887    -0.032    28.795     8.798
    10   6 C        2.836    -0.096    30.395     9.035
    11   6 C        3.866    -0.009    20.688     6.468
    12   6 C        3.809    -0.064    21.723     6.635
    13   6 C        2.969    -0.031    28.758     8.796
    14   6 C        2.914    -0.060    29.482     8.904
    15   6 C        2.907     0.038    27.159     8.545
    16   7 N        1.841    -0.184    25.797     7.527
    17   6 C        2.979     0.086    26.085     8.378
    18   6 C        2.987     0.013    27.723     8.637
    19   6 C        2.914    -0.077    29.927     8.971
    20   6 C        2.864     0.143    24.891     8.178
    21   8 O        1.706    -0.251    18.162     5.754
    22   6 C        3.645     0.035    20.323     6.479
    23   6 C        2.916    -0.068    29.691     8.935
    24   6 C        2.920    -0.057    29.426     8.896
    25   1 H        0.804     0.301     0.719     1.332
    26   1 H        0.922     0.013     2.841     2.636
    27   1 H        0.924     0.040     2.444     2.445
    28   1 H        0.924     0.035     2.513     2.479
    29   1 H        0.924     0.035     2.520     2.483
    30   1 H        0.924     0.030     2.586     2.515
    31   1 H        0.924     0.032     2.555     2.499
    32   1 H        0.924     0.033     2.545     2.495
    33   1 H        0.925     0.045     2.379     2.412
    34   1 H        0.924     0.039     2.463     2.454
    35   1 H        0.925     0.034     2.531     2.488
    36   1 H        0.926     0.035     2.512     2.479
    37   1 H        0.926     0.038     2.473     2.459
    38   1 H        0.924     0.026     2.650     2.546
    39   1 H        0.924     0.035     2.523     2.484
    40   1 H        0.924     0.032     2.555     2.500
    41   1 H        0.926     0.029     2.602     2.523
    42   1 H        0.925     0.038     2.477     2.461
    43   1 H        0.926     0.058     2.226     2.333
    44   1 H        0.925     0.063     2.164     2.300
    45   1 H        0.924     0.051     2.308     2.376
    46   1 H        0.924     0.044     2.398     2.422
    47   1 H        0.926     0.045     2.389     2.417
    48   1 H        0.926     0.049     2.336     2.390

 Mol. C6AA /au·bohr⁶  :      24079.244960
 Mol. C8AA /au·bohr⁸  :     561802.929336
 Mol. α(0) /au        :        239.203128


Wiberg/Mayer (AO) data.
largest (>0.10) Wiberg bond orders for each atom

 ---------------------------------------------------------------------------
     #   Z sym  total        # sym  WBO       # sym  WBO       # sym  WBO
 ---------------------------------------------------------------------------
     1   8 O    1.954 --     2 C    0.984    25 H    0.872
     2   6 C    3.940 --     1 O    0.984     3 C    0.977    13 C    0.964
                            26 H    0.938
     3   6 C    3.978 --     4 N    0.982    12 C    0.981     2 C    0.977
                            27 H    0.960
     4   7 N    3.129 --     7 C    1.005     5 C    1.002     3 C    0.982
     5   6 C    3.983 --     4 N    1.002     6 C    0.986    28 H    0.975
                            29 H    0.975
     6   6 C    3.991 --    11 C    0.998     5 C    0.986    30 H    0.980
                            31 H    0.979
     7   6 C    3.981 --     4 N    1.005    32 H    0.975     8 C    0.966
                            33 H    0.965
     8   6 C    3.988 --     9 C    1.013    11 C    0.984     7 C    0.966
                            34 H    0.950
     9   6 C    3.990 --    10 C    1.978     8 C    1.013    35 H    0.963
    10   6 C    3.991 --     9 C    1.978    37 H    0.976    36 H    0.974
    11   6 C    3.995 --     6 C    0.998    12 C    0.998     8 C    0.984
                            38 H    0.966
    12   6 C    3.991 --    11 C    0.998     3 C    0.981    40 H    0.976
                            39 H    0.973
    13   6 C    3.848 --    14 C    1.358    18 C    1.227     2 C    0.964
    14   6 C    3.931 --    15 C    1.406    13 C    1.358    41 H    0.957
    15   6 C    3.901 --    14 C    1.406    16 N    1.358    42 H    0.951
    16   7 N    2.966 --    15 C    1.358    17 C    1.280
    17   6 C    3.909 --    16 N    1.280    24 C    1.261    18 C    1.192
    18   6 C    3.941 --    19 C    1.315    13 C    1.227    17 C    1.192
    19   6 C    3.816 --    18 C    1.315    20 C    1.292    43 H    0.949
    20   6 C    3.849 --    23 C    1.319    19 C    1.292    21 O    1.079
    21   8 O    2.206 --    20 C    1.079    22 C    0.985
    22   6 C    3.943 --    21 O    0.985    44 H    0.980    46 H    0.974
                            45 H    0.973
    23   6 C    3.972 --    24 C    1.454    20 C    1.319    47 H    0.966
    24   6 C    3.899 --    23 C    1.454    17 C    1.261    48 H    0.963
    25   1 H    0.908 --     1 O    0.872
    26   1 H    0.996 --     2 C    0.938
    27   1 H    0.998 --     3 C    0.960
    28   1 H    0.998 --     5 C    0.975
    29   1 H    0.998 --     5 C    0.975
    30   1 H    0.999 --     6 C    0.980
    31   1 H    0.998 --     6 C    0.979
    32   1 H    0.998 --     7 C    0.975
    33   1 H    0.997 --     7 C    0.965
    34   1 H    0.998 --     8 C    0.950
    35   1 H    0.998 --     9 C    0.963
    36   1 H    0.999 --    10 C    0.974
    37   1 H    0.998 --    10 C    0.976
    38   1 H    0.997 --    11 C    0.966
    39   1 H    0.999 --    12 C    0.973
    40   1 H    0.998 --    12 C    0.976
    41   1 H    0.993 --    14 C    0.957
    42   1 H    0.986 --    15 C    0.951
    43   1 H    0.989 --    19 C    0.949
    44   1 H    0.996 --    22 C    0.980
    45   1 H    0.992 --    22 C    0.973
    46   1 H    0.993 --    22 C    0.974
    47   1 H    0.995 --    23 C    0.966
    48   1 H    0.991 --    24 C    0.963
 ---------------------------------------------------------------------------

Topologies differ in total number of bonds
Writing topology from bond orders to xtbtopo.mol

molecular dipole:
                 x           y           z       tot (Debye)
 q only:        0.659       0.891       1.302
   full:        1.124       1.059       1.868       6.161
molecular quadrupole (traceless):
                xx          xy          yy          xz          yz          zz
 q only:       -2.874      -5.976       3.958      -1.591      -6.252      -1.085
  q+dip:       -5.646      -7.399       7.081      -1.456      -9.745      -1.435
   full:       -2.790      -6.594       5.416      -2.235      -9.320      -2.626


           -------------------------------------------------
          | TOTAL ENERGY              -68.935276820102 Eh   |
          | GRADIENT NORM               0.100592646334 Eh/α |
          | HOMO-LUMO GAP               0.968751327219 eV   |
           -------------------------------------------------

------------------------------------------------------------------------
 * finished run on 2025/05/15 at 16:33:10.227     
------------------------------------------------------------------------
 total:
 * wall-time:     0 d,  0 h,  0 min,  0.178 sec
 *  cpu-time:     0 d,  0 h,  0 min,  0.122 sec
 * ratio c/w:     0.682 speedup
 SCF:
 * wall-time:     0 d,  0 h,  0 min,  0.135 sec
 *  cpu-time:     0 d,  0 h,  0 min,  0.108 sec
 * ratio c/w:     0.797 speedup


