----- Optimization -----
      -----------------------------------------------------------      
     |                   =====================                   |     
     |                           x T B                           |     
     |                   =====================                   |     
     |                         S. Grimme                         |     
     |          Mulliken Center for Theoretical Chemistry        |     
     |                    University of Bonn                     |     
      -----------------------------------------------------------      

   * xtb version 6.7.1 (edcfbbe) compiled by 'conda@3ef47c1a292c' on 2024-11-25

   xtb is free software: you can redistribute it and/or modify it under
   the terms of the GNU Lesser General Public License as published by
   the Free Software Foundation, either version 3 of the License, or
   (at your option) any later version.
   
   xtb is distributed in the hope that it will be useful,
   but WITHOUT ANY WARRANTY; without even the implied warranty of
   MERCHANTABILITY or FITNESS FOR A PARTICULAR PURPOSE.  See the
   GNU Lesser General Public License for more details.
   
   Cite this work as:
   * C. Bannwarth, E. Caldeweyher, S. Ehlert, A. Hansen, P. Pracht,
     J. Seibert, S. Spicher, S. Grimme, WIREs Comput. Mol. Sci., 2020, 11,
     e01493. DOI: 10.1002/wcms.1493
   
   for GFN2-xTB:
   * C. Bannwarth, S. Ehlert and S. Grimme., J. Chem. Theory Comput., 2019,
     15, 1652-1671. DOI: 10.1021/acs.jctc.8b01176
   for GFN1-xTB:
   * S. Grimme, C. Bannwarth, P. Shushkov, J. Chem. Theory Comput., 2017,
     13, 1989-2009. DOI: 10.1021/acs.jctc.7b00118
   for GFN0-xTB:
   * P. Pracht, E. Caldeweyher, S. Ehlert, S. Grimme, ChemRxiv, 2019, preprint.
     DOI: 10.26434/chemrxiv.8326202.v1
   for GFN-FF:
   * S. Spicher and S. Grimme, Angew. Chem. Int. Ed., 2020, 59, 15665-15673.
     DOI: 10.1002/anie.202004239
   
   for ALPB and GBSA implicit solvation:
   * S. Ehlert, M. Stahn, S. Spicher, S. Grimme, J. Chem. Theory Comput.,
     2021, 17, 4250-4261. DOI: 10.1021/acs.jctc.1c00471
   
   for ddCOSMO and CPCM-X implicit solvation:
   * M. Stahn, S. Ehlert, S. Grimme, J. Phys. Chem. A,
     2023, XX, XXXX-XXXX. DOI: 10.1021/acs.jpca.3c04382
   
   for DFT-D4:
   * E. Caldeweyher, C. Bannwarth and S. Grimme, J. Chem. Phys., 2017,
     147, 034112. DOI: 10.1063/1.4993215
   * E. Caldeweyher, S. Ehlert, A. Hansen, H. Neugebauer, S. Spicher,
     C. Bannwarth and S. Grimme, J. Chem. Phys., 2019, 150, 154122.
     DOI: 10.1063/1.5090222
   * E. Caldeweyher, J.-M. Mewes, S. Ehlert and S. Grimme, Phys. Chem. Chem. Phys.
     2020, 22, 8499-8512. DOI: 10.1039/D0CP00502A
   
   for sTDA-xTB:
   * S. Grimme and C. Bannwarth, J. Chem. Phys., 2016, 145, 054103.
     DOI: 10.1063/1.4959605
   
   in the mass-spec context:
   * V. Asgeirsson, C. Bauer and S. Grimme, Chem. Sci., 2017, 8, 4879.
     DOI: 10.1039/c7sc00601b
   * J. Koopman and S. Grimme, ACS Omega 2019, 4, 12, 15120-15133.
     DOI: 10.1021/acsomega.9b02011
   
   for metadynamics refer to:
   * S. Grimme, J. Chem. Theory Comput., 2019, 155, 2847-2862
     DOI: 10.1021/acs.jctc.9b00143
   
   for SPH calculations refer to:
   * S. Spicher and S. Grimme, J. Chem. Theory Comput., 2021, 17, 1701-1714
     DOI: 10.1021/acs.jctc.0c01306
   
   for ONIOM refer to:
   * C. Plett, A. Katbashev, S. Ehlert, S. Grimme, M. Bursch,
     Phys. Chem. Chem. Phys., 2023, 25, 17860-17868. DOI: 10.1039/D3CP02178E
   
   for DIPRO refer to:
   * J. Kohn, N. Gildemeister, S. Grimme, D. Fazzi, A. Hansen,
     J. Chem. Phys., 2023, just accepted.
   
   for PTB refer to:
   * S. Grimme, M. Mueller, A. Hansen, J. Chem. Phys., 2023, 158, 124111.
     DOI: 10.1063/5.0137838
   
   with help from (in alphabetical order)
   P. Atkinson, C. Bannwarth, F. Bohle, G. Brandenburg, E. Caldeweyher
   M. Checinski, S. Dohm, S. Ehlert, S. Ehrlich, I. Gerasimov, C. Hölzer
   A. Katbashev, J. Kohn, J. Koopman, C. Lavigne, S. Lehtola, F. März, M. Müller,
   F. Musil, H. Neugebauer, J. Pisarek, C. Plett, P. Pracht, F. Pultar,
   J. Seibert, P. Shushkov, S. Spicher, M. Stahn, M. Steiner, T. Strunk,
   J. Stückrath, T. Rose, and J. Unsleber
   
 * started run on 2025/05/15 at 16:18:41.560     
   ID    Z sym.   atoms
    1    6 C      1, 3, 5, 6, 8-11, 13, 16
    2    7 N      2, 4, 12, 14, 15, 17
    3   16 S      7
    4    1 H      18-33

           -------------------------------------------------
          |                Calculation Setup                |
           -------------------------------------------------

          program call               : xtb /rds/general/user/hgt20/home/callum/QDESCP/Cimetadine_rdkit_conf_7/Cimetadine_rdkit_conf_7.xyz --opt normal --acc 1 --gfn 2 --chrg 0 --uhf 0 -P 1
          hostname                   : login-c
          coordinate file            : /rds/general/user/hgt20/home/callum/QDESCP/Cimetadine_rdkit_conf_7/Cimetadine_rdkit_conf_7.xyz
          omp threads                :                     1


           -------------------------------------------------
          |                 G F N 2 - x T B                 |
           -------------------------------------------------

        Reference                      10.1021/acs.jctc.8b01176
      * Hamiltonian:
        H0-scaling (s, p, d)           1.850000    2.230000    2.230000
        zeta-weighting                 0.500000
      * Dispersion:
        s8                             2.700000
        a1                             0.520000
        a2                             5.000000
        s9                             5.000000
      * Repulsion:
        kExp                           1.500000    1.000000
        rExp                           1.000000
      * Coulomb:
        alpha                          2.000000
        third order                    shell-resolved
        anisotropic                    true
        a3                             3.000000
        a5                             4.000000
        cn-shift                       1.200000
        cn-exp                         4.000000
        max-rad                        5.000000


          ...................................................
          :                      SETUP                      :
          :.................................................:
          :  # basis functions                  90          :
          :  # atomic orbitals                  89          :
          :  # shells                           51          :
          :  # electrons                        92          :
          :  max. iterations                   250          :
          :  Hamiltonian                  GFN2-xTB          :
          :  restarted?                      false          :
          :  GBSA solvation                  false          :
          :  PC potential                    false          :
          :  electronic temp.          300.0000000     K    :
          :  accuracy                    1.0000000          :
          :  -> integral cutoff          0.2500000E+02      :
          :  -> integral neglect         0.1000000E-07      :
          :  -> SCF convergence          0.1000000E-05 Eh   :
          :  -> wf. convergence          0.1000000E-03 e    :
          :  Broyden damping             0.4000000          :
          :  net charge                          0          :
          :  unpaired electrons                  0          :
          ...................................................

 iter      E             dE          RMSdq      gap      omega  full diag
   1    -50.8965723 -0.508966E+02  0.445E+00    3.84       0.0  T
   2    -50.9904719 -0.938996E-01  0.278E+00    4.00       1.0  T
   3    -50.9853731  0.509878E-02  0.158E+00    3.78       1.0  T
   4    -51.0062890 -0.209159E-01  0.737E-01    3.61       1.0  T
   5    -51.0175569 -0.112678E-01  0.209E-01    3.54       1.0  T
   6    -51.0175611 -0.427485E-05  0.127E-01    3.60       1.0  T
   7    -51.0177955 -0.234314E-03  0.345E-02    3.61       1.0  T
   8    -51.0178030 -0.756212E-05  0.162E-02    3.62       1.1  T
   9    -51.0178040 -0.953316E-06  0.687E-03    3.62       2.5  T
  10    -51.0178043 -0.342035E-06  0.276E-03    3.61       6.3  T
  11    -51.0178044 -0.849938E-07  0.128E-03    3.62      13.6  T
  12    -51.0178044 -0.654315E-08  0.487E-04    3.62      35.7  T
  13    -51.0178044 -0.698449E-09  0.154E-04    3.62     113.0  T

   *** convergence criteria satisfied after 13 iterations ***

         #    Occupation            Energy/Eh            Energy/eV
      -------------------------------------------------------------
         1        2.0000           -0.7121566             -19.3788
       ...           ...                  ...                  ...
        40        2.0000           -0.4042332             -10.9997
        41        2.0000           -0.3958857             -10.7726
        42        2.0000           -0.3918750             -10.6635
        43        2.0000           -0.3878271             -10.5533
        44        2.0000           -0.3834976             -10.4355
        45        2.0000           -0.3738099             -10.1719
        46        2.0000           -0.3626098              -9.8671 (HOMO)
        47                         -0.2297530              -6.2519 (LUMO)
        48                         -0.2197173              -5.9788
        49                         -0.2118181              -5.7639
        50                         -0.1790844              -4.8731
        51                         -0.1548453              -4.2136
       ...                                ...                  ...
        89                          1.1654271              31.7129
      -------------------------------------------------------------
                  HL-Gap            0.1328568 Eh            3.6152 eV
             Fermi-level           -0.2961814 Eh           -8.0595 eV

 SCC (total)                   0 d,  0 h,  0 min,  0.039 sec
 SCC setup                      ...        0 min,  0.000 sec (  0.796%)
 Dispersion                     ...        0 min,  0.000 sec (  0.708%)
 classical contributions        ...        0 min,  0.000 sec (  0.269%)
 integral evaluation            ...        0 min,  0.005 sec ( 13.596%)
 iterations                     ...        0 min,  0.019 sec ( 47.575%)
 molecular gradient             ...        0 min,  0.014 sec ( 36.716%)
 printout                       ...        0 min,  0.000 sec (  0.326%)

         :::::::::::::::::::::::::::::::::::::::::::::::::::::
         ::                     SUMMARY                     ::
         :::::::::::::::::::::::::::::::::::::::::::::::::::::
         :: total energy             -50.342731418104 Eh    ::
         :: gradient norm              0.061636436003 Eh/a0 ::
         :: HOMO-LUMO gap              3.615218621696 eV    ::
         ::.................................................::
         :: SCC energy               -51.017550149335 Eh    ::
         :: -> isotropic ES            0.056604327388 Eh    ::
         :: -> anisotropic ES          0.010912494734 Eh    ::
         :: -> anisotropic XC          0.045015022295 Eh    ::
         :: -> dispersion             -0.032148934914 Eh    ::
         :: repulsion energy           0.674818731231 Eh    ::
         :: add. restraining           0.000000000000 Eh    ::
         :: total charge              -0.000000000000 e     ::
         :::::::::::::::::::::::::::::::::::::::::::::::::::::

      ----------------------------------------------------------- 
     |                   =====================                   |
     |                        A N C O P T                        |
     |                   =====================                   |
     |               Approximate Normal Coordinate               |
     |                Rational Function Optimizer                |
      ----------------------------------------------------------- 
      ----------------------------------------------------------- 
     |                   =====================                   |
     |                        A N C O P T                        |
     |                   =====================                   |
     |               Approximate Normal Coordinate               |
     |                Rational Function Optimizer                |
      ----------------------------------------------------------- 

          ...................................................
          :                      SETUP                      :
          :.................................................:
          :   optimization level            normal          :
          :   max. optcycles                   200          :
          :   ANC micro-cycles                  20          :
          :   degrees of freedom                93          :
          :.................................................:
          :   RF solver                   davidson          :
          :   write xtbopt.log                true          :
          :   linear?                        false          :
          :   energy convergence         0.5000000E-05 Eh   :
          :   grad. convergence          0.1000000E-02 Eh/α :
          :   maxmium RF displ.          1.0000000          :
          :   Hlow (freq-cutoff)         0.1000000E-01      :
          :   Hmax (freq-cutoff)         5.0000000          :
          :   S6 in model hess.         20.0000000          :
          ...................................................

generating ANC from exact Hessian ...
Using Lindh-Hessian (1995)
 Shifting diagonal of input Hessian by    9.8457974694499076E-003
 Lowest  eigenvalues of input Hessian
    0.000000    0.000000    0.000000    0.000000    0.000000    0.000000
    0.010000    0.010157    0.010314    0.010720    0.011185    0.012359
    0.012765    0.014386    0.016489    0.017119    0.018997    0.020388
 Highest eigenvalues
    1.873601    2.028532    2.029285    2.123743    2.268904    2.736667


........................................................................
.............................. CYCLE    1 ..............................
........................................................................

 iter      E             dE          RMSdq      gap      omega  full diag
   1    -51.0178044 -0.510178E+02  0.815E-05    3.62       0.0  T
   2    -51.0178044 -0.235900E-10  0.494E-05    3.62     352.6  T
   3    -51.0178044 -0.246558E-11  0.327E-05    3.62     531.7  T
     SCC iter.                  ...        0 min,  0.005 sec
     gradient                   ...        0 min,  0.014 sec
 * total energy  :   -50.3427314 Eh     change       -0.1181917E-09 Eh
   gradient norm :     0.0616361 Eh/α   predicted     0.0000000E+00 (-100.00%)
   displ. norm   :     0.3645696 α      lambda       -0.1077145E-01
   maximum displ.:     0.1510296 α      in ANC's #6, #13, #16, ...

........................................................................
.............................. CYCLE    2 ..............................
........................................................................

 iter      E             dE          RMSdq      gap      omega  full diag
   1    -51.0409540 -0.510410E+02  0.464E-01    3.61       0.0  T
   2    -51.0411349 -0.180928E-03  0.264E-01    3.63       1.0  T
   3    -51.0408027  0.332244E-03  0.120E-01    3.64       1.0  T
   4    -51.0412046 -0.401909E-03  0.243E-02    3.64       1.0  T
   5    -51.0412173 -0.127535E-04  0.770E-03    3.64       2.3  T
   6    -51.0412177 -0.354219E-06  0.382E-03    3.64       4.6  T
   7    -51.0412178 -0.150415E-06  0.127E-03    3.64      13.7  T
   8    -51.0412179 -0.214075E-07  0.523E-04    3.64      33.3  T
   9    -51.0412179 -0.139400E-08  0.227E-04    3.64      76.8  T
     SCC iter.                  ...        0 min,  0.012 sec
     gradient                   ...        0 min,  0.014 sec
 * total energy  :   -50.3484654 Eh     change       -0.5734003E-02 Eh
   gradient norm :     0.0423307 Eh/α   predicted    -0.6102320E-02 (   6.42%)
   displ. norm   :     0.5336018 α      lambda       -0.1178288E-01
   maximum displ.:     0.2189604 α      in ANC's #6, #16, #9, ...

........................................................................
.............................. CYCLE    3 ..............................
........................................................................

 iter      E             dE          RMSdq      gap      omega  full diag
   1    -51.0880727 -0.510881E+02  0.633E-01    3.69       0.0  T
   2    -51.0883251 -0.252380E-03  0.361E-01    3.69       1.0  T
   3    -51.0875166  0.808448E-03  0.210E-01    3.72       1.0  T
   4    -51.0886038 -0.108715E-02  0.179E-02    3.70       1.0  T
   5    -51.0886063 -0.249220E-05  0.962E-03    3.71       1.8  T
   6    -51.0886065 -0.180479E-06  0.400E-03    3.70       4.4  T
   7    -51.0886068 -0.282200E-06  0.114E-03    3.70      15.3  T
   8    -51.0886068 -0.108882E-07  0.596E-04    3.70      29.2  T
   9    -51.0886068 -0.137981E-08  0.233E-04    3.70      74.7  T
     SCC iter.                  ...        0 min,  0.013 sec
     gradient                   ...        0 min,  0.061 sec
 * total energy  :   -50.3486148 Eh     change       -0.1493654E-03 Eh
   gradient norm :     0.0785035 Eh/α   predicted    -0.7568941E-02 (4967.40%)
   displ. norm   :     0.1987839 α      lambda       -0.6286826E-02
   maximum displ.:     0.0857540 α      in ANC's #20, #13, #16, ...

........................................................................
.............................. CYCLE    4 ..............................
........................................................................

 iter      E             dE          RMSdq      gap      omega  full diag
   1    -51.0668731 -0.510669E+02  0.189E-01    3.72       0.0  T
   2    -51.0669153 -0.422359E-04  0.115E-01    3.72       1.0  T
   3    -51.0668337  0.816166E-04  0.780E-02    3.72       1.0  T
   4    -51.0669684 -0.134693E-03  0.926E-03    3.73       1.9  T
   5    -51.0669697 -0.134459E-05  0.501E-03    3.72       3.5  T
   6    -51.0669700 -0.239594E-06  0.211E-03    3.72       8.3  T
   7    -51.0669700 -0.148086E-07  0.800E-04    3.72      21.8  T
   8    -51.0669700 -0.121071E-07  0.275E-04    3.72      63.2  T
     SCC iter.                  ...        0 min,  0.011 sec
     gradient                   ...        0 min,  0.014 sec
 * total energy  :   -50.3527708 Eh     change       -0.4155996E-02 Eh
   gradient norm :     0.0185899 Eh/α   predicted    -0.3267612E-02 ( -21.38%)
   displ. norm   :     0.2964891 α      lambda       -0.2593621E-02
   maximum displ.:     0.1623581 α      in ANC's #6, #13, #16, ...

........................................................................
.............................. CYCLE    5 ..............................
........................................................................

 iter      E             dE          RMSdq      gap      omega  full diag
   1    -51.0560243 -0.510560E+02  0.305E-01    3.76       0.0  T
   2    -51.0561046 -0.802748E-04  0.171E-01    3.76       1.0  T
   3    -51.0560741  0.304566E-04  0.413E-02    3.77       1.0  T
   4    -51.0561202 -0.461315E-04  0.129E-02    3.77       1.4  T
   5    -51.0561238 -0.357694E-05  0.517E-03    3.77       3.4  T
   6    -51.0561241 -0.264345E-06  0.225E-03    3.77       7.8  T
   7    -51.0561241 -0.332154E-07  0.803E-04    3.77      21.7  T
   8    -51.0561241 -0.945371E-08  0.389E-04    3.77      44.8  T
     SCC iter.                  ...        0 min,  0.011 sec
     gradient                   ...        0 min,  0.014 sec
 * total energy  :   -50.3540716 Eh     change       -0.1300814E-02 Eh
   gradient norm :     0.0226493 Eh/α   predicted    -0.1410804E-02 (   8.46%)
   displ. norm   :     0.1848776 α      lambda       -0.8409265E-03
   maximum displ.:     0.0818733 α      in ANC's #16, #9, #13, ...

........................................................................
.............................. CYCLE    6 ..............................
........................................................................

 iter      E             dE          RMSdq      gap      omega  full diag
   1    -51.0591193 -0.510591E+02  0.940E-02    3.78       0.0  T
   2    -51.0591315 -0.122388E-04  0.534E-02    3.78       1.0  T
   3    -51.0591141  0.174013E-04  0.341E-02    3.79       1.0  T
   4    -51.0591390 -0.248978E-04  0.626E-03    3.79       2.8  T
   5    -51.0591398 -0.797593E-06  0.197E-03    3.79       8.8  T
   6    -51.0591398 -0.147564E-07  0.943E-04    3.79      18.5  T
   7    -51.0591398 -0.643026E-08  0.287E-04    3.79      60.6  T
     SCC iter.                  ...        0 min,  0.009 sec
     gradient                   ...        0 min,  0.014 sec
 * total energy  :   -50.3547447 Eh     change       -0.6730945E-03 Eh
   gradient norm :     0.0183895 Eh/α   predicted    -0.4348377E-03 ( -35.40%)
   displ. norm   :     0.3319563 α      lambda       -0.1050199E-02
   maximum displ.:     0.1449872 α      in ANC's #9, #13, #16, ...

........................................................................
.............................. CYCLE    7 ..............................
........................................................................

 iter      E             dE          RMSdq      gap      omega  full diag
   1    -51.0650943 -0.510651E+02  0.143E-01    3.82       0.0  T
   2    -51.0651222 -0.279332E-04  0.814E-02    3.82       1.0  T
   3    -51.0650868  0.354492E-04  0.478E-02    3.83       1.0  T
   4    -51.0651351 -0.483267E-04  0.100E-02    3.82       1.7  T
   5    -51.0651372 -0.212389E-05  0.297E-03    3.82       5.9  T
   6    -51.0651373 -0.395694E-07  0.137E-03    3.82      12.7  T
   7    -51.0651373 -0.138858E-07  0.382E-04    3.82      45.6  T
   8    -51.0651373 -0.231722E-09  0.180E-04    3.82      96.7  T
     SCC iter.                  ...        0 min,  0.011 sec
     gradient                   ...        0 min,  0.014 sec
 * total energy  :   -50.3554307 Eh     change       -0.6859823E-03 Eh
   gradient norm :     0.0090161 Eh/α   predicted    -0.5829676E-03 ( -15.02%)
   displ. norm   :     0.2053920 α      lambda       -0.3053764E-03
   maximum displ.:     0.0818830 α      in ANC's #6, #9, #5, ...

........................................................................
.............................. CYCLE    8 ..............................
........................................................................

 iter      E             dE          RMSdq      gap      omega  full diag
   1    -51.0672898 -0.510673E+02  0.102E-01    3.83       0.0  T
   2    -51.0672961 -0.627832E-05  0.570E-02    3.83       1.0  T
   3    -51.0672957  0.329619E-06  0.896E-03    3.83       1.9  T
   4    -51.0672973 -0.155770E-05  0.396E-03    3.83       4.4  T
   5    -51.0672975 -0.256432E-06  0.163E-03    3.83      10.7  T
   6    -51.0672976 -0.242707E-07  0.692E-04    3.83      25.2  T
   7    -51.0672976 -0.580898E-08  0.218E-04    3.83      79.8  T
     SCC iter.                  ...        0 min,  0.040 sec
     gradient                   ...        0 min,  0.015 sec
 * total energy  :   -50.3556420 Eh     change       -0.2112841E-03 Eh
   gradient norm :     0.0073084 Eh/α   predicted    -0.1591394E-03 ( -24.68%)
   displ. norm   :     0.1720063 α      lambda       -0.1903078E-03
   maximum displ.:     0.0838120 α      in ANC's #6, #9, #5, ...

........................................................................
.............................. CYCLE    9 ..............................
........................................................................

 iter      E             dE          RMSdq      gap      omega  full diag
   1    -51.0712975 -0.510713E+02  0.737E-02    3.84       0.0  T
   2    -51.0712992 -0.169826E-05  0.416E-02    3.84       1.0  T
   3    -51.0712995 -0.263369E-06  0.419E-03    3.84       4.2  T
   4    -51.0712997 -0.191928E-06  0.266E-03    3.84       6.5  T
   5    -51.0712998 -0.109592E-06  0.872E-04    3.84      20.0  T
   6    -51.0712998 -0.641438E-08  0.272E-04    3.84      64.1  T
     SCC iter.                  ...        0 min,  0.008 sec
     gradient                   ...        0 min,  0.014 sec
 * total energy  :   -50.3557592 Eh     change       -0.1172484E-03 Eh
   gradient norm :     0.0058466 Eh/α   predicted    -0.9797679E-04 ( -16.44%)
   displ. norm   :     0.1874140 α      lambda       -0.1270148E-03
   maximum displ.:     0.1024899 α      in ANC's #6, #9, #5, ...

........................................................................
.............................. CYCLE   10 ..............................
........................................................................

 iter      E             dE          RMSdq      gap      omega  full diag
   1    -51.0693174 -0.510693E+02  0.920E-02    3.85       0.0  T
   2    -51.0693212 -0.387334E-05  0.515E-02    3.85       1.0  T
   3    -51.0693191  0.211141E-05  0.114E-02    3.84       1.5  T
   4    -51.0693223 -0.320502E-05  0.313E-03    3.85       5.6  T
   5    -51.0693225 -0.176815E-06  0.127E-03    3.85      13.7  T
   6    -51.0693225 -0.564432E-08  0.376E-04    3.85      46.4  T
   7    -51.0693225 -0.145712E-08  0.169E-04    3.85     103.0  T
     SCC iter.                  ...        0 min,  0.010 sec
     gradient                   ...        0 min,  0.048 sec
 * total energy  :   -50.3558278 Eh     change       -0.6857955E-04 Eh
   gradient norm :     0.0047649 Eh/α   predicted    -0.6574006E-04 (  -4.14%)
   displ. norm   :     0.1079929 α      lambda       -0.8606575E-04
   maximum displ.:     0.0462104 α      in ANC's #6, #3, #5, ...

........................................................................
.............................. CYCLE   11 ..............................
........................................................................

 iter      E             dE          RMSdq      gap      omega  full diag
   1    -51.0705319 -0.510705E+02  0.295E-02    3.85       0.0  T
   2    -51.0705328 -0.933093E-06  0.172E-02    3.85       1.0  T
   3    -51.0705317  0.114703E-05  0.762E-03    3.85       2.3  T
   4    -51.0705331 -0.137313E-05  0.179E-03    3.85       9.7  T
   5    -51.0705331 -0.642732E-07  0.671E-04    3.85      25.9  T
   6    -51.0705331 -0.421051E-08  0.264E-04    3.85      66.0  T
     SCC iter.                  ...        0 min,  0.009 sec
     gradient                   ...        0 min,  0.014 sec
 * total energy  :   -50.3558931 Eh     change       -0.6527937E-04 Eh
   gradient norm :     0.0032183 Eh/α   predicted    -0.4353563E-04 ( -33.31%)
   displ. norm   :     0.1757681 α      lambda       -0.9773397E-04
   maximum displ.:     0.0725317 α      in ANC's #6, #3, #2, ...

........................................................................
.............................. CYCLE   12 ..............................
........................................................................

 iter      E             dE          RMSdq      gap      omega  full diag
   1    -51.0702361 -0.510702E+02  0.416E-02    3.85       0.0  T
   2    -51.0702374 -0.131607E-05  0.241E-02    3.85       1.0  T
   3    -51.0702361  0.125808E-05  0.800E-03    3.85       2.2  T
   4    -51.0702376 -0.147594E-05  0.242E-03    3.85       7.2  T
   5    -51.0702377 -0.116299E-06  0.826E-04    3.85      21.1  T
   6    -51.0702377 -0.388640E-08  0.321E-04    3.85      54.2  T
     SCC iter.                  ...        0 min,  0.009 sec
     gradient                   ...        0 min,  0.014 sec
 * total energy  :   -50.3559544 Eh     change       -0.6129578E-04 Eh
   gradient norm :     0.0049814 Eh/α   predicted    -0.5038267E-04 ( -17.80%)
   displ. norm   :     0.0873543 α      lambda       -0.4378982E-04
   maximum displ.:     0.0432944 α      in ANC's #3, #2, #13, ...

........................................................................
.............................. CYCLE   13 ..............................
........................................................................

 iter      E             dE          RMSdq      gap      omega  full diag
   1    -51.0701610 -0.510702E+02  0.259E-02    3.85       0.0  T
   2    -51.0701614 -0.329009E-06  0.148E-02    3.85       1.2  T
   3    -51.0701609  0.445427E-06  0.459E-03    3.85       3.8  T
   4    -51.0701615 -0.557271E-06  0.125E-03    3.85      14.0  T
   5    -51.0701615 -0.210526E-07  0.447E-04    3.85      39.0  T
   6    -51.0701615 -0.219295E-09  0.155E-04    3.85     112.6  T
     SCC iter.                  ...        0 min,  0.029 sec
     gradient                   ...        0 min,  0.014 sec
 * total energy  :   -50.3559831 Eh     change       -0.2874063E-04 Eh
   gradient norm :     0.0030419 Eh/α   predicted    -0.2206364E-04 ( -23.23%)
   displ. norm   :     0.1159791 α      lambda       -0.3992974E-04
   maximum displ.:     0.0598970 α      in ANC's #2, #3, #9, ...

........................................................................
.............................. CYCLE   14 ..............................
........................................................................

 iter      E             dE          RMSdq      gap      omega  full diag
   1    -51.0692759 -0.510693E+02  0.313E-02    3.85       0.0  T
   2    -51.0692764 -0.466007E-06  0.177E-02    3.85       1.0  T
   3    -51.0692764 -0.338166E-07  0.252E-03    3.85       6.9  T
   4    -51.0692765 -0.743715E-07  0.121E-03    3.85      14.4  T
   5    -51.0692765 -0.135818E-07  0.602E-04    3.85      28.9  T
   6    -51.0692765 -0.510749E-08  0.211E-04    3.85      82.5  T
     SCC iter.                  ...        0 min,  0.008 sec
     gradient                   ...        0 min,  0.015 sec
 * total energy  :   -50.3560128 Eh     change       -0.2967716E-04 Eh
   gradient norm :     0.0024822 Eh/α   predicted    -0.2023435E-04 ( -31.82%)
   displ. norm   :     0.1185571 α      lambda       -0.4737690E-04
   maximum displ.:     0.0684119 α      in ANC's #2, #3, #9, ...

........................................................................
.............................. CYCLE   15 ..............................
........................................................................

 iter      E             dE          RMSdq      gap      omega  full diag
   1    -51.0689895 -0.510690E+02  0.456E-02    3.85       0.0  T
   2    -51.0689904 -0.904031E-06  0.255E-02    3.85       1.0  T
   3    -51.0689902  0.197378E-06  0.471E-03    3.85       3.7  T
   4    -51.0689907 -0.494088E-06  0.159E-03    3.85      10.9  T
   5    -51.0689907 -0.258985E-07  0.789E-04    3.85      22.1  T
   6    -51.0689908 -0.849603E-08  0.231E-04    3.85      75.4  T
     SCC iter.                  ...        0 min,  0.009 sec
     gradient                   ...        0 min,  0.042 sec
 * total energy  :   -50.3560464 Eh     change       -0.3364771E-04 Eh
   gradient norm :     0.0028973 Eh/α   predicted    -0.2402222E-04 ( -28.61%)
   displ. norm   :     0.1392113 α      lambda       -0.3863434E-04
   maximum displ.:     0.0813194 α      in ANC's #2, #3, #9, ...

........................................................................
.............................. CYCLE   16 ..............................
........................................................................

 iter      E             dE          RMSdq      gap      omega  full diag
   1    -51.0684838 -0.510685E+02  0.397E-02    3.85       0.0  T
   2    -51.0684844 -0.566808E-06  0.223E-02    3.85       1.0  T
   3    -51.0684844 -0.644783E-07  0.289E-03    3.85       6.0  T
   4    -51.0684846 -0.127545E-06  0.139E-03    3.85      12.6  T
   5    -51.0684846 -0.146977E-07  0.526E-04    3.85      33.1  T
   6    -51.0684846 -0.497616E-08  0.211E-04    3.85      82.5  T
     SCC iter.                  ...        0 min,  0.009 sec
     gradient                   ...        0 min,  0.015 sec
 * total energy  :   -50.3560750 Eh     change       -0.2862151E-04 Eh
   gradient norm :     0.0035222 Eh/α   predicted    -0.1969502E-04 ( -31.19%)
   displ. norm   :     0.1671422 α      lambda       -0.5208068E-04
   maximum displ.:     0.1052257 α      in ANC's #2, #3, #9, ...

........................................................................
.............................. CYCLE   17 ..............................
........................................................................

 iter      E             dE          RMSdq      gap      omega  full diag
   1    -51.0688687 -0.510689E+02  0.525E-02    3.85       0.0  T
   2    -51.0688699 -0.120189E-05  0.294E-02    3.85       1.0  T
   3    -51.0688699 -0.571071E-07  0.399E-03    3.85       4.4  T
   4    -51.0688702 -0.266811E-06  0.197E-03    3.85       8.8  T
   5    -51.0688702 -0.452560E-07  0.778E-04    3.85      22.4  T
   6    -51.0688702 -0.613510E-08  0.326E-04    3.85      53.3  T
     SCC iter.                  ...        0 min,  0.010 sec
     gradient                   ...        0 min,  0.054 sec
 * total energy  :   -50.3561122 Eh     change       -0.3712794E-04 Eh
   gradient norm :     0.0030915 Eh/α   predicted    -0.2676981E-04 ( -27.90%)
   displ. norm   :     0.2299362 α      lambda       -0.5709921E-04
   maximum displ.:     0.1423696 α      in ANC's #2, #3, #6, ...

........................................................................
.............................. CYCLE   18 ..............................
........................................................................

 iter      E             dE          RMSdq      gap      omega  full diag
   1    -51.0682575 -0.510683E+02  0.579E-02    3.85       0.0  T
   2    -51.0682590 -0.148745E-05  0.329E-02    3.85       1.0  T
   3    -51.0682586  0.358398E-06  0.600E-03    3.85       2.9  T
   4    -51.0682593 -0.719292E-06  0.269E-03    3.85       6.5  T
   5    -51.0682594 -0.844732E-07  0.111E-03    3.85      15.7  T
   6    -51.0682594 -0.171106E-07  0.375E-04    3.85      46.4  T
   7    -51.0682594 -0.125292E-08  0.190E-04    3.85      91.5  T
     SCC iter.                  ...        0 min,  0.010 sec
     gradient                   ...        0 min,  0.014 sec
 * total energy  :   -50.3561509 Eh     change       -0.3873864E-04 Eh
   gradient norm :     0.0038085 Eh/α   predicted    -0.3006068E-04 ( -22.40%)
   displ. norm   :     0.2269170 α      lambda       -0.8756011E-04
   maximum displ.:     0.1416737 α      in ANC's #2, #3, #6, ...

........................................................................
.............................. CYCLE   19 ..............................
........................................................................

 iter      E             dE          RMSdq      gap      omega  full diag
   1    -51.0695462 -0.510695E+02  0.620E-02    3.86       0.0  T
   2    -51.0695485 -0.230111E-05  0.351E-02    3.86       1.0  T
   3    -51.0695482  0.323244E-06  0.651E-03    3.86       2.7  T
   4    -51.0695489 -0.685957E-06  0.307E-03    3.86       5.7  T
   5    -51.0695491 -0.152741E-06  0.127E-03    3.86      13.7  T
   6    -51.0695491 -0.147647E-07  0.441E-04    3.86      39.5  T
   7    -51.0695491 -0.192196E-08  0.221E-04    3.86      78.7  T
     SCC iter.                  ...        0 min,  0.010 sec
     gradient                   ...        0 min,  0.014 sec
 * total energy  :   -50.3562054 Eh     change       -0.5446861E-04 Eh
   gradient norm :     0.0037840 Eh/α   predicted    -0.4603563E-04 ( -15.48%)
   displ. norm   :     0.2290809 α      lambda        0.1366885E-04
   maximum displ.:     0.1430266 α      in ANC's #2, #3, #6, ...

........................................................................
.............................. CYCLE   20 ..............................
........................................................................

 iter      E             dE          RMSdq      gap      omega  full diag
   1    -51.0699254 -0.510699E+02  0.623E-02    3.86       0.0  T
   2    -51.0699279 -0.250111E-05  0.355E-02    3.86       1.0  T
   3    -51.0699259  0.192992E-05  0.102E-02    3.86       1.7  T
   4    -51.0699284 -0.245390E-05  0.345E-03    3.86       5.0  T
   5    -51.0699286 -0.207038E-06  0.128E-03    3.86      13.6  T
   6    -51.0699286 -0.100124E-07  0.450E-04    3.86      38.7  T
   7    -51.0699286 -0.170650E-08  0.224E-04    3.86      77.9  T
     SCC iter.                  ...        0 min,  0.037 sec
     gradient                   ...        0 min,  0.015 sec
 * total energy  :   -50.3562038 Eh     change        0.1625742E-05 Eh
   gradient norm :     0.0064191 Eh/α   predicted     0.7191111E-05 ( 342.33%)
   displ. norm   :     0.1158291 α      lambda       -0.7391735E-04
   maximum displ.:     0.0632886 α      in ANC's #2, #3, #6, ...
 * RMSD in coord.:     0.4769565 α      energy gain  -0.1347234E-01 Eh

generating ANC from exact Hessian ...
Using Lindh-Hessian (1995)
 Shifting diagonal of input Hessian by    9.8493761822984228E-003
 Lowest  eigenvalues of input Hessian
    0.000000    0.000000    0.000000    0.000000    0.000000    0.000000
    0.010000    0.010129    0.010277    0.010589    0.011290    0.011738
    0.012762    0.014351    0.016074    0.017314    0.017473    0.019552
 Highest eigenvalues
    1.924495    2.073704    2.128816    2.190073    2.279525    2.875233


........................................................................
.............................. CYCLE   21 ..............................
........................................................................

 iter      E             dE          RMSdq      gap      omega  full diag
   1    -51.0679558 -0.510680E+02  0.340E-02    3.86       0.0  T
   2    -51.0679570 -0.121396E-05  0.194E-02    3.86       1.0  T
   3    -51.0679553  0.161743E-05  0.902E-03    3.86       1.9  T
   4    -51.0679573 -0.196670E-05  0.202E-03    3.86       8.6  T
   5    -51.0679574 -0.650604E-07  0.685E-04    3.86      25.4  T
   6    -51.0679574  0.323304E-09  0.273E-04    3.86      63.9  T
     SCC iter.                  ...        0 min,  0.008 sec
     gradient                   ...        0 min,  0.014 sec
 * total energy  :   -50.3562456 Eh     change       -0.4184378E-04 Eh
   gradient norm :     0.0056454 Eh/α   predicted     0.0000000E+00 (-100.00%)
   displ. norm   :     0.0868543 α      lambda       -0.1556166E-03
   maximum displ.:     0.0434470 α      in ANC's #6, #2, #4, ...

........................................................................
.............................. CYCLE   22 ..............................
........................................................................

 iter      E             dE          RMSdq      gap      omega  full diag
   1    -51.0685976 -0.510686E+02  0.134E-01    3.85       0.0  T
   2    -51.0686056 -0.800206E-05  0.744E-02    3.85       1.0  T
   3    -51.0686083 -0.261738E-05  0.439E-03    3.86       4.0  T
   4    -51.0686085 -0.223180E-06  0.242E-03    3.85       7.2  T
   5    -51.0686085 -0.455859E-07  0.116E-03    3.85      15.1  T
   6    -51.0686085 -0.196727E-07  0.313E-04    3.85      55.6  T
   7    -51.0686085 -0.215074E-08  0.105E-04    3.85     165.4  T
     SCC iter.                  ...        0 min,  0.010 sec
     gradient                   ...        0 min,  0.029 sec
 * total energy  :   -50.3561726 Eh     change        0.7305067E-04 Eh
   gradient norm :     0.0072095 Eh/α   predicted    -0.7843476E-04 (-207.37%)
   displ. norm   :     0.0642118 α      lambda       -0.2812046E-03
   maximum displ.:     0.0419397 α      in ANC's #6, #4, #3, ...

........................................................................
.............................. CYCLE   23 ..............................
........................................................................

 iter      E             dE          RMSdq      gap      omega  full diag
   1    -51.0709632 -0.510710E+02  0.956E-02    3.86       0.0  T
   2    -51.0709675 -0.424871E-05  0.531E-02    3.86       1.0  T
   3    -51.0709663  0.119548E-05  0.102E-02    3.86       1.7  T
   4    -51.0709691 -0.282163E-05  0.232E-03    3.86       7.5  T
   5    -51.0709692 -0.814732E-07  0.887E-04    3.86      19.6  T
   6    -51.0709692 -0.132239E-08  0.232E-04    3.86      75.0  T
     SCC iter.                  ...        0 min,  0.008 sec
     gradient                   ...        0 min,  0.014 sec
 * total energy  :   -50.3563149 Eh     change       -0.1423489E-03 Eh
   gradient norm :     0.0033921 Eh/α   predicted    -0.1411825E-03 (  -0.82%)
   displ. norm   :     0.0286769 α      lambda       -0.2015556E-04
   maximum displ.:     0.0131737 α      in ANC's #7, #5, #6, ...

........................................................................
.............................. CYCLE   24 ..............................
........................................................................

 iter      E             dE          RMSdq      gap      omega  full diag
   1    -51.0701022 -0.510701E+02  0.113E-02    3.86       0.0  T
   2    -51.0701024 -0.225215E-06  0.628E-03    3.86       2.8  T
   3    -51.0701025 -0.773449E-08  0.129E-03    3.86      13.5  T
   4    -51.0701025 -0.843266E-08  0.478E-04    3.86      36.5  T
   5    -51.0701025 -0.359721E-08  0.233E-04    3.86      74.7  T
     SCC iter.                  ...        0 min,  0.007 sec
     gradient                   ...        0 min,  0.014 sec
 * total energy  :   -50.3563307 Eh     change       -0.1576198E-04 Eh
   gradient norm :     0.0013422 Eh/α   predicted    -0.1008678E-04 ( -36.01%)
   displ. norm   :     0.1436955 α      lambda       -0.4014326E-04
   maximum displ.:     0.0681539 α      in ANC's #7, #5, #9, ...

........................................................................
.............................. CYCLE   25 ..............................
........................................................................

 iter      E             dE          RMSdq      gap      omega  full diag
   1    -51.0687755 -0.510688E+02  0.506E-02    3.85       0.0  T
   2    -51.0687782 -0.265053E-05  0.285E-02    3.85       1.0  T
   3    -51.0687781  0.358853E-07  0.508E-03    3.85       3.4  T
   4    -51.0687784 -0.270195E-06  0.245E-03    3.85       7.1  T
   5    -51.0687785 -0.131015E-06  0.952E-04    3.85      18.3  T
   6    -51.0687785 -0.568133E-08  0.333E-04    3.85      52.3  T
     SCC iter.                  ...        0 min,  0.008 sec
     gradient                   ...        0 min,  0.014 sec
 * total energy  :   -50.3563632 Eh     change       -0.3249506E-04 Eh
   gradient norm :     0.0042784 Eh/α   predicted    -0.2026057E-04 ( -37.65%)
   displ. norm   :     0.0505253 α      lambda       -0.1707530E-04
   maximum displ.:     0.0218641 α      in ANC's #9, #7, #2, ...

........................................................................
.............................. CYCLE   26 ..............................
........................................................................

 iter      E             dE          RMSdq      gap      omega  full diag
   1    -51.0692208 -0.510692E+02  0.160E-02    3.85       0.0  T
   2    -51.0692210 -0.133218E-06  0.911E-03    3.85       1.9  T
   3    -51.0692210  0.104079E-07  0.135E-03    3.85      12.9  T
   4    -51.0692210 -0.360339E-07  0.658E-04    3.85      26.5  T
   5    -51.0692210 -0.851788E-08  0.257E-04    3.85      67.8  T
     SCC iter.                  ...        0 min,  0.007 sec
     gradient                   ...        0 min,  0.014 sec
 * total energy  :   -50.3563782 Eh     change       -0.1506328E-04 Eh
   gradient norm :     0.0029911 Eh/α   predicted    -0.8561546E-05 ( -43.16%)
   displ. norm   :     0.2103278 α      lambda       -0.5877540E-04
   maximum displ.:     0.0917046 α      in ANC's #9, #2, #7, ...

........................................................................
.............................. CYCLE   27 ..............................
........................................................................

 iter      E             dE          RMSdq      gap      omega  full diag
   1    -51.0698677 -0.510699E+02  0.573E-02    3.86       0.0  T
   2    -51.0698692 -0.146790E-05  0.328E-02    3.86       1.0  T
   3    -51.0698692 -0.286348E-07  0.413E-03    3.86       4.2  T
   4    -51.0698695 -0.318731E-06  0.188E-03    3.86       9.3  T
   5    -51.0698696 -0.475855E-07  0.859E-04    3.86      20.3  T
   6    -51.0698696 -0.297209E-08  0.263E-04    3.86      66.2  T
     SCC iter.                  ...        0 min,  0.008 sec
     gradient                   ...        0 min,  0.014 sec
 * total energy  :   -50.3564174 Eh     change       -0.3914476E-04 Eh
   gradient norm :     0.0024600 Eh/α   predicted    -0.3069222E-04 ( -21.59%)
   displ. norm   :     0.1479257 α      lambda       -0.2909643E-04
   maximum displ.:     0.0688867 α      in ANC's #2, #9, #6, ...

........................................................................
.............................. CYCLE   28 ..............................
........................................................................

 iter      E             dE          RMSdq      gap      omega  full diag
   1    -51.0700190 -0.510700E+02  0.354E-02    3.86       0.0  T
   2    -51.0700195 -0.477477E-06  0.204E-02    3.86       1.0  T
   3    -51.0700193  0.259221E-06  0.403E-03    3.86       4.3  T
   4    -51.0700197 -0.391616E-06  0.138E-03    3.86      12.6  T
   5    -51.0700197 -0.281785E-07  0.595E-04    3.86      29.2  T
   6    -51.0700197 -0.898510E-09  0.244E-04    3.86      71.3  T
     SCC iter.                  ...        0 min,  0.008 sec
     gradient                   ...        0 min,  0.014 sec
 * total energy  :   -50.3564405 Eh     change       -0.2311828E-04 Eh
   gradient norm :     0.0033128 Eh/α   predicted    -0.1486835E-04 ( -35.69%)
   displ. norm   :     0.2335584 α      lambda       -0.5191767E-04
   maximum displ.:     0.1183814 α      in ANC's #2, #9, #6, ...

........................................................................
.............................. CYCLE   29 ..............................
........................................................................

 iter      E             dE          RMSdq      gap      omega  full diag
   1    -51.0699642 -0.510700E+02  0.504E-02    3.86       0.0  T
   2    -51.0699650 -0.875802E-06  0.292E-02    3.86       1.0  T
   3    -51.0699640  0.105323E-05  0.724E-03    3.86       2.4  T
   4    -51.0699653 -0.136202E-05  0.199E-03    3.86       8.8  T
   5    -51.0699654 -0.448142E-07  0.908E-04    3.86      19.2  T
   6    -51.0699654 -0.354282E-08  0.366E-04    3.86      47.6  T
     SCC iter.                  ...        0 min,  0.008 sec
     gradient                   ...        0 min,  0.014 sec
 * total energy  :   -50.3564800 Eh     change       -0.3952235E-04 Eh
   gradient norm :     0.0038462 Eh/α   predicted    -0.2737540E-04 ( -30.73%)
   displ. norm   :     0.2603928 α      lambda       -0.5805590E-04
   maximum displ.:     0.1434591 α      in ANC's #2, #6, #9, ...

........................................................................
.............................. CYCLE   30 ..............................
........................................................................

 iter      E             dE          RMSdq      gap      omega  full diag
   1    -51.0694191 -0.510694E+02  0.529E-02    3.86       0.0  T
   2    -51.0694200 -0.944742E-06  0.306E-02    3.86       1.0  T
   3    -51.0694193  0.733787E-06  0.650E-03    3.86       2.7  T
   4    -51.0694203 -0.100397E-05  0.229E-03    3.86       7.6  T
   5    -51.0694204 -0.637785E-07  0.101E-03    3.86      17.2  T
   6    -51.0694204 -0.623508E-08  0.375E-04    3.86      46.4  T
   7    -51.0694204 -0.230865E-08  0.169E-04    3.86     103.1  T
     SCC iter.                  ...        0 min,  0.010 sec
     gradient                   ...        0 min,  0.014 sec
 * total energy  :   -50.3565246 Eh     change       -0.4456288E-04 Eh
   gradient norm :     0.0036158 Eh/α   predicted    -0.3099668E-04 ( -30.44%)
   displ. norm   :     0.2574915 α      lambda       -0.7262648E-04
   maximum displ.:     0.1579735 α      in ANC's #2, #6, #4, ...

........................................................................
.............................. CYCLE   31 ..............................
........................................................................

 iter      E             dE          RMSdq      gap      omega  full diag
   1    -51.0697169 -0.510697E+02  0.535E-02    3.86       0.0  T
   2    -51.0697184 -0.153294E-05  0.306E-02    3.86       1.0  T
   3    -51.0697183  0.691760E-07  0.487E-03    3.86       3.6  T
   4    -51.0697186 -0.300579E-06  0.235E-03    3.86       7.4  T
   5    -51.0697187 -0.716440E-07  0.111E-03    3.86      15.7  T
   6    -51.0697187 -0.865857E-08  0.381E-04    3.86      45.7  T
   7    -51.0697187 -0.222616E-08  0.194E-04    3.86      89.9  T
     SCC iter.                  ...        0 min,  0.009 sec
     gradient                   ...        0 min,  0.014 sec
 * total energy  :   -50.3565706 Eh     change       -0.4602086E-04 Eh
   gradient norm :     0.0030043 Eh/α   predicted    -0.3872583E-04 ( -15.85%)
   displ. norm   :     0.6355375 α      lambda       -0.1156632E-03
   maximum displ.:     0.3672839 α      in ANC's #2, #6, #9, ...

........................................................................
.............................. CYCLE   32 ..............................
........................................................................

 iter      E             dE          RMSdq      gap      omega  full diag
   1    -51.0605381 -0.510605E+02  0.137E-01    3.84       0.0  T
   2    -51.0605478 -0.969956E-05  0.785E-02    3.84       1.0  T
   3    -51.0605478  0.686359E-07  0.118E-02    3.84       1.5  T
   4    -51.0605497 -0.194984E-05  0.561E-03    3.84       3.1  T
   5    -51.0605500 -0.326496E-06  0.259E-03    3.84       6.7  T
   6    -51.0605501 -0.419751E-07  0.825E-04    3.84      21.1  T
   7    -51.0605501 -0.111519E-07  0.391E-04    3.84      44.5  T
     SCC iter.                  ...        0 min,  0.012 sec
     gradient                   ...        0 min,  0.014 sec
 * total energy  :   -50.3563011 Eh     change        0.2694544E-03 Eh
   gradient norm :     0.0156020 Eh/α   predicted    -0.8119060E-04 (-130.13%)
   displ. norm   :     0.3259945 α      lambda       -0.7879550E-03
   maximum displ.:     0.1603073 α      in ANC's #2, #9, #6, ...

........................................................................
.............................. CYCLE   33 ..............................
........................................................................

 iter      E             dE          RMSdq      gap      omega  full diag
   1    -51.0690377 -0.510690E+02  0.800E-02    3.85       0.0  T
   2    -51.0690434 -0.578700E-05  0.459E-02    3.85       1.0  T
   3    -51.0690422  0.122949E-05  0.110E-02    3.85       1.6  T
   4    -51.0690440 -0.179748E-05  0.499E-03    3.85       3.5  T
   5    -51.0690445 -0.467824E-06  0.192E-03    3.85       9.1  T
   6    -51.0690445 -0.512567E-08  0.795E-04    3.85      21.9  T
   7    -51.0690445 -0.123132E-07  0.253E-04    3.85      68.9  T
     SCC iter.                  ...        0 min,  0.010 sec
     gradient                   ...        0 min,  0.014 sec
 * total energy  :   -50.3566295 Eh     change       -0.3283919E-03 Eh
   gradient norm :     0.0033176 Eh/α   predicted    -0.4358620E-03 (  32.73%)
   displ. norm   :     0.0552656 α      lambda       -0.2182388E-04
   maximum displ.:     0.0359325 α      in ANC's #2, #1, #6, ...

........................................................................
.............................. CYCLE   34 ..............................
........................................................................

 iter      E             dE          RMSdq      gap      omega  full diag
   1    -51.0694671 -0.510695E+02  0.116E-02    3.85       0.0  T
   2    -51.0694671 -0.650173E-07  0.684E-03    3.85       2.5  T
   3    -51.0694668  0.316678E-06  0.370E-03    3.85       4.7  T
   4    -51.0694672 -0.375355E-06  0.445E-04    3.85      39.2  T
   5    -51.0694672 -0.134447E-08  0.213E-04    3.85      81.8  T
     SCC iter.                  ...        0 min,  0.007 sec
     gradient                   ...        0 min,  0.041 sec
 * total energy  :   -50.3566490 Eh     change       -0.1943302E-04 Eh
   gradient norm :     0.0021920 Eh/α   predicted    -0.1094859E-04 ( -43.66%)
   displ. norm   :     0.3195040 α      lambda       -0.8591870E-04
   maximum displ.:     0.2199182 α      in ANC's #2, #1, #6, ...

........................................................................
.............................. CYCLE   35 ..............................
........................................................................

 iter      E             dE          RMSdq      gap      omega  full diag
   1    -51.0692911 -0.510693E+02  0.707E-02    3.84       0.0  T
   2    -51.0692930 -0.190029E-05  0.408E-02    3.84       1.0  T
   3    -51.0692915  0.149297E-05  0.899E-03    3.84       1.9  T
   4    -51.0692937 -0.217774E-05  0.263E-03    3.84       6.6  T
   5    -51.0692937 -0.698023E-07  0.117E-03    3.84      14.9  T
   6    -51.0692937 -0.440667E-08  0.443E-04    3.84      39.3  T
   7    -51.0692937 -0.381463E-08  0.149E-04    3.84     116.5  T
     SCC iter.                  ...        0 min,  0.010 sec
     gradient                   ...        0 min,  0.014 sec
 * total energy  :   -50.3567013 Eh     change       -0.5233360E-04 Eh
   gradient norm :     0.0032309 Eh/α   predicted    -0.4734549E-04 (  -9.53%)
   displ. norm   :     0.1546486 α      lambda       -0.2781079E-04
   maximum displ.:     0.1112826 α      in ANC's #2, #1, #6, ...

........................................................................
.............................. CYCLE   36 ..............................
........................................................................

 iter      E             dE          RMSdq      gap      omega  full diag
   1    -51.0693971 -0.510694E+02  0.337E-02    3.84       0.0  T
   2    -51.0693975 -0.420012E-06  0.194E-02    3.84       1.0  T
   3    -51.0693974  0.948153E-07  0.309E-03    3.84       5.6  T
   4    -51.0693976 -0.238993E-06  0.114E-03    3.84      15.3  T
   5    -51.0693976 -0.106148E-07  0.508E-04    3.84      34.3  T
   6    -51.0693976 -0.961172E-09  0.227E-04    3.84      76.7  T
     SCC iter.                  ...        0 min,  0.008 sec
     gradient                   ...        0 min,  0.014 sec
 * total energy  :   -50.3567256 Eh     change       -0.2432230E-04 Eh
   gradient norm :     0.0034514 Eh/α   predicted    -0.1423902E-04 ( -41.46%)
   displ. norm   :     0.3861968 α      lambda       -0.9180386E-04
   maximum displ.:     0.2841613 α      in ANC's #2, #1, #4, ...

........................................................................
.............................. CYCLE   37 ..............................
........................................................................

 iter      E             dE          RMSdq      gap      omega  full diag
   1    -51.0695262 -0.510695E+02  0.888E-02    3.84       0.0  T
   2    -51.0695293 -0.307660E-05  0.509E-02    3.85       1.0  T
   3    -51.0695254  0.387174E-05  0.137E-02    3.84       1.3  T
   4    -51.0695307 -0.530079E-05  0.293E-03    3.84       5.9  T
   5    -51.0695308 -0.440300E-07  0.150E-03    3.84      11.6  T
   6    -51.0695308 -0.830070E-08  0.634E-04    3.84      27.5  T
   7    -51.0695308 -0.896245E-08  0.164E-04    3.84     105.8  T
     SCC iter.                  ...        0 min,  0.037 sec
     gradient                   ...        0 min,  0.015 sec
 * total energy  :   -50.3567967 Eh     change       -0.7108475E-04 Eh
   gradient norm :     0.0026542 Eh/α   predicted    -0.5274949E-04 ( -25.79%)
   displ. norm   :     0.5288195 α      lambda       -0.8920584E-04
   maximum displ.:     0.3834316 α      in ANC's #2, #1, #4, ...

........................................................................
.............................. CYCLE   38 ..............................
........................................................................

 iter      E             dE          RMSdq      gap      omega  full diag
   1    -51.0663206 -0.510663E+02  0.117E-01    3.84       0.0  T
   2    -51.0663260 -0.541931E-05  0.674E-02    3.84       1.0  T
   3    -51.0663200  0.593555E-05  0.171E-02    3.84       1.0  T
   4    -51.0663283 -0.826590E-05  0.401E-03    3.84       4.3  T
   5    -51.0663284 -0.110850E-06  0.208E-03    3.84       8.4  T
   6    -51.0663284 -0.116960E-07  0.889E-04    3.84      19.6  T
   7    -51.0663284 -0.184397E-07  0.219E-04    3.84      79.6  T
     SCC iter.                  ...        0 min,  0.010 sec
     gradient                   ...        0 min,  0.015 sec
 * total energy  :   -50.3568432 Eh     change       -0.4652400E-04 Eh
   gradient norm :     0.0055924 Eh/α   predicted    -0.5707702E-04 (  22.68%)
   displ. norm   :     0.2379429 α      lambda       -0.1348630E-03
   maximum displ.:     0.1648158 α      in ANC's #2, #1, #7, ...

........................................................................
.............................. CYCLE   39 ..............................
........................................................................

 iter      E             dE          RMSdq      gap      omega  full diag
   1    -51.0699821 -0.510700E+02  0.600E-02    3.86       0.0  T
   2    -51.0699844 -0.233524E-05  0.338E-02    3.85       1.0  T
   3    -51.0699837  0.763121E-06  0.775E-03    3.85       2.2  T
   4    -51.0699850 -0.129663E-05  0.266E-03    3.85       6.5  T
   5    -51.0699851 -0.114534E-06  0.128E-03    3.85      13.6  T
   6    -51.0699851 -0.638627E-08  0.543E-04    3.85      32.1  T
   7    -51.0699851 -0.545364E-08  0.147E-04    3.85     118.4  T
     SCC iter.                  ...        0 min,  0.044 sec
     gradient                   ...        0 min,  0.014 sec
 * total energy  :   -50.3569062 Eh     change       -0.6296043E-04 Eh
   gradient norm :     0.0036436 Eh/α   predicted    -0.7125079E-04 (  13.17%)
   displ. norm   :     0.3412361 α      lambda       -0.5673544E-04
   maximum displ.:     0.2463545 α      in ANC's #2, #1, #4, ...

........................................................................
.............................. CYCLE   40 ..............................
........................................................................

 iter      E             dE          RMSdq      gap      omega  full diag
   1    -51.0676400 -0.510676E+02  0.770E-02    3.85       0.0  T
   2    -51.0676423 -0.233667E-05  0.440E-02    3.85       1.0  T
   3    -51.0676421  0.263966E-06  0.655E-03    3.85       2.7  T
   4    -51.0676431 -0.103743E-05  0.251E-03    3.85       6.9  T
   5    -51.0676431 -0.565836E-07  0.112E-03    3.85      15.6  T
   6    -51.0676431 -0.174802E-08  0.399E-04    3.85      43.7  T
   7    -51.0676431 -0.374308E-08  0.142E-04    3.85     122.7  T
     SCC iter.                  ...        0 min,  0.010 sec
     gradient                   ...        0 min,  0.014 sec
 * total energy  :   -50.3569438 Eh     change       -0.3757525E-04 Eh
   gradient norm :     0.0045533 Eh/α   predicted    -0.3167630E-04 ( -15.70%)
   displ. norm   :     0.1689468 α      lambda       -0.5641778E-04
   maximum displ.:     0.1137913 α      in ANC's #2, #1, #3, ...

........................................................................
.............................. CYCLE   41 ..............................
........................................................................

 iter      E             dE          RMSdq      gap      omega  full diag
   1    -51.0691397 -0.510691E+02  0.359E-02    3.85       0.0  T
   2    -51.0691405 -0.814781E-06  0.211E-02    3.85       1.0  T
   3    -51.0691371  0.341819E-05  0.126E-02    3.85       1.4  T
   4    -51.0691413 -0.424187E-05  0.164E-03    3.85      10.6  T
   5    -51.0691413 -0.239261E-07  0.697E-04    3.85      25.0  T
   6    -51.0691413 -0.507441E-09  0.275E-04    3.85      63.3  T
     SCC iter.                  ...        0 min,  0.008 sec
     gradient                   ...        0 min,  0.040 sec
 * total energy  :   -50.3569805 Eh     change       -0.3670603E-04 Eh
   gradient norm :     0.0035512 Eh/α   predicted    -0.2901558E-04 ( -20.95%)
   displ. norm   :     0.2571942 α      lambda       -0.5192511E-04
   maximum displ.:     0.1796269 α      in ANC's #2, #1, #3, ...

........................................................................
.............................. CYCLE   42 ..............................
........................................................................

 iter      E             dE          RMSdq      gap      omega  full diag
   1    -51.0689226 -0.510689E+02  0.581E-02    3.85       0.0  T
   2    -51.0689240 -0.135664E-05  0.331E-02    3.85       1.0  T
   3    -51.0689237  0.235073E-06  0.539E-03    3.84       3.2  T
   4    -51.0689244 -0.675464E-06  0.203E-03    3.84       8.6  T
   5    -51.0689245 -0.402510E-07  0.902E-04    3.84      19.3  T
   6    -51.0689245 -0.526974E-08  0.364E-04    3.84      47.8  T
     SCC iter.                  ...        0 min,  0.008 sec
     gradient                   ...        0 min,  0.015 sec
 * total energy  :   -50.3570190 Eh     change       -0.3853183E-04 Eh
   gradient norm :     0.0039457 Eh/α   predicted    -0.2768100E-04 ( -28.16%)
   displ. norm   :     0.2647161 α      lambda       -0.6776398E-04
   maximum displ.:     0.1756370 α      in ANC's #2, #1, #3, ...
 * RMSD in coord.:     0.6783090 α      energy gain  -0.8152402E-03 Eh

generating ANC from exact Hessian ...
Using Lindh-Hessian (1995)
 Shifting diagonal of input Hessian by    9.8338582027366339E-003
 Lowest  eigenvalues of input Hessian
    0.000000    0.000000    0.000000    0.000000    0.000000    0.000000
    0.010000    0.010071    0.010273    0.010523    0.011326    0.011581
    0.012821    0.014320    0.016144    0.017388    0.018339    0.019718
 Highest eigenvalues
    1.926909    2.072924    2.149770    2.189907    2.288426    2.880805


........................................................................
.............................. CYCLE   43 ..............................
........................................................................

 iter      E             dE          RMSdq      gap      omega  full diag
   1    -51.0706784 -0.510707E+02  0.576E-02    3.84       0.0  T
   2    -51.0706803 -0.181863E-05  0.329E-02    3.84       1.0  T
   3    -51.0706773  0.291464E-05  0.117E-02    3.84       1.5  T
   4    -51.0706810 -0.362773E-05  0.256E-03    3.84       6.8  T
   5    -51.0706811 -0.856092E-07  0.118E-03    3.84      14.8  T
   6    -51.0706811 -0.797573E-08  0.467E-04    3.84      37.3  T
   7    -51.0706811 -0.288706E-08  0.164E-04    3.84     106.0  T
     SCC iter.                  ...        0 min,  0.009 sec
     gradient                   ...        0 min,  0.047 sec
 * total energy  :   -50.3570607 Eh     change       -0.4174960E-04 Eh
   gradient norm :     0.0031994 Eh/α   predicted     0.0000000E+00 (-100.00%)
   displ. norm   :     0.0317166 α      lambda       -0.2669674E-04
   maximum displ.:     0.0129849 α      in ANC's #4, #1, #7, ...

........................................................................
.............................. CYCLE   44 ..............................
........................................................................

 iter      E             dE          RMSdq      gap      omega  full diag
   1    -51.0706107 -0.510706E+02  0.293E-02    3.84       0.0  T
   2    -51.0706112 -0.434865E-06  0.163E-02    3.84       1.1  T
   3    -51.0706111  0.698715E-07  0.294E-03    3.84       5.9  T
   4    -51.0706113 -0.226643E-06  0.918E-04    3.84      19.0  T
   5    -51.0706113 -0.120543E-07  0.346E-04    3.84      50.3  T
     SCC iter.                  ...        0 min,  0.007 sec
     gradient                   ...        0 min,  0.014 sec
 * total energy  :   -50.3570763 Eh     change       -0.1552953E-04 Eh
   gradient norm :     0.0020401 Eh/α   predicted    -0.1372383E-04 ( -11.63%)
   displ. norm   :     0.0773914 α      lambda       -0.5709690E-04
   maximum displ.:     0.0400038 α      in ANC's #3, #5, #7, ...

........................................................................
.............................. CYCLE   45 ..............................
........................................................................

 iter      E             dE          RMSdq      gap      omega  full diag
   1    -51.0706301 -0.510706E+02  0.324E-02    3.85       0.0  T
   2    -51.0706309 -0.841546E-06  0.183E-02    3.85       1.0  T
   3    -51.0706304  0.543524E-06  0.555E-03    3.85       3.1  T
   4    -51.0706311 -0.711069E-06  0.195E-03    3.85       8.9  T
   5    -51.0706312 -0.718258E-07  0.655E-04    3.85      26.6  T
   6    -51.0706312 -0.133532E-09  0.282E-04    3.85      61.7  T
     SCC iter.                  ...        0 min,  0.008 sec
     gradient                   ...        0 min,  0.014 sec
 * total energy  :   -50.3570785 Eh     change       -0.2250007E-05 Eh
   gradient norm :     0.0034835 Eh/α   predicted    -0.2872006E-04 (1176.44%)
   displ. norm   :     0.0186075 α      lambda       -0.3600195E-04
   maximum displ.:     0.0084864 α      in ANC's #22, #15, #6, ...

........................................................................
.............................. CYCLE   46 ..............................
........................................................................

 iter      E             dE          RMSdq      gap      omega  full diag
   1    -51.0707771 -0.510708E+02  0.182E-02    3.85       0.0  T
   2    -51.0707773 -0.243289E-06  0.102E-02    3.85       1.7  T
   3    -51.0707772  0.168621E-06  0.305E-03    3.85       5.7  T
   4    -51.0707774 -0.235400E-06  0.856E-04    3.85      20.3  T
   5    -51.0707774 -0.146656E-07  0.295E-04    3.85      58.9  T
     SCC iter.                  ...        0 min,  0.040 sec
     gradient                   ...        0 min,  0.015 sec
 * total energy  :   -50.3571006 Eh     change       -0.2210600E-04 Eh
   gradient norm :     0.0012453 Eh/α   predicted    -0.1800763E-04 ( -18.54%)
   displ. norm   :     0.0525076 α      lambda       -0.1126778E-04
   maximum displ.:     0.0287398 α      in ANC's #3, #1, #5, ...

........................................................................
.............................. CYCLE   47 ..............................
........................................................................

 iter      E             dE          RMSdq      gap      omega  full diag
   1    -51.0707347 -0.510707E+02  0.141E-02    3.85       0.0  T
   2    -51.0707348 -0.108794E-06  0.798E-03    3.85       2.2  T
   3    -51.0707347  0.122423E-06  0.254E-03    3.85       6.9  T
   4    -51.0707349 -0.160703E-06  0.676E-04    3.85      25.8  T
   5    -51.0707349 -0.665769E-08  0.294E-04    3.85      59.1  T
     SCC iter.                  ...        0 min,  0.007 sec
     gradient                   ...        0 min,  0.014 sec
 * total energy  :   -50.3571136 Eh     change       -0.1296872E-04 Eh
   gradient norm :     0.0008379 Eh/α   predicted    -0.5641007E-05 ( -56.50%)
   displ. norm   :     0.1712415 α      lambda       -0.2431670E-04
   maximum displ.:     0.0969953 α      in ANC's #3, #1, #5, ...

........................................................................
.............................. CYCLE   48 ..............................
........................................................................

 iter      E             dE          RMSdq      gap      omega  full diag
   1    -51.0704693 -0.510705E+02  0.344E-02    3.84       0.0  T
   2    -51.0704697 -0.439587E-06  0.196E-02    3.85       1.0  T
   3    -51.0704691  0.552426E-06  0.543E-03    3.84       3.2  T
   4    -51.0704698 -0.703947E-06  0.171E-03    3.85      10.2  T
   5    -51.0704699 -0.370653E-07  0.693E-04    3.85      25.1  T
   6    -51.0704699 -0.320945E-08  0.294E-04    3.85      59.3  T
     SCC iter.                  ...        0 min,  0.008 sec
     gradient                   ...        0 min,  0.048 sec
 * total energy  :   -50.3571398 Eh     change       -0.2614919E-04 Eh
   gradient norm :     0.0020149 Eh/α   predicted    -0.1231709E-04 ( -52.90%)
   displ. norm   :     0.1077352 α      lambda       -0.1841217E-04
   maximum displ.:     0.0598270 α      in ANC's #3, #1, #5, ...

........................................................................
.............................. CYCLE   49 ..............................
........................................................................

 iter      E             dE          RMSdq      gap      omega  full diag
   1    -51.0704161 -0.510704E+02  0.197E-02    3.84       0.0  T
   2    -51.0704162 -0.129292E-06  0.113E-02    3.84       1.5  T
   3    -51.0704161  0.100991E-06  0.255E-03    3.84       6.8  T
   4    -51.0704163 -0.129194E-06  0.105E-03    3.84      16.5  T
   5    -51.0704163 -0.172408E-07  0.353E-04    3.84      49.4  T
   6    -51.0704163 -0.939913E-09  0.145E-04    3.84     120.4  T
     SCC iter.                  ...        0 min,  0.008 sec
     gradient                   ...        0 min,  0.014 sec
 * total energy  :   -50.3571554 Eh     change       -0.1561953E-04 Eh
   gradient norm :     0.0020914 Eh/α   predicted    -0.9319046E-05 ( -40.34%)
   displ. norm   :     0.1913244 α      lambda       -0.3171952E-04
   maximum displ.:     0.1042545 α      in ANC's #3, #1, #10, ...

........................................................................
.............................. CYCLE   50 ..............................
........................................................................

 iter      E             dE          RMSdq      gap      omega  full diag
   1    -51.0702540 -0.510703E+02  0.334E-02    3.84       0.0  T
   2    -51.0702544 -0.386443E-06  0.193E-02    3.84       1.0  T
   3    -51.0702543  0.998918E-07  0.335E-03    3.84       5.2  T
   4    -51.0702544 -0.155365E-06  0.171E-03    3.84      10.2  T
   5    -51.0702545 -0.494088E-07  0.578E-04    3.84      30.1  T
   6    -51.0702545 -0.291105E-08  0.252E-04    3.84      69.2  T
     SCC iter.                  ...        0 min,  0.008 sec
     gradient                   ...        0 min,  0.014 sec
 * total energy  :   -50.3571790 Eh     change       -0.2363428E-04 Eh
   gradient norm :     0.0022413 Eh/α   predicted    -0.1644102E-04 ( -30.44%)
   displ. norm   :     0.1876097 α      lambda       -0.2834820E-04
   maximum displ.:     0.1036990 α      in ANC's #3, #1, #10, ...

........................................................................
.............................. CYCLE   51 ..............................
........................................................................

 iter      E             dE          RMSdq      gap      omega  full diag
   1    -51.0701611 -0.510702E+02  0.318E-02    3.83       0.0  T
   2    -51.0701614 -0.343919E-06  0.184E-02    3.83       1.0  T
   3    -51.0701614  0.533129E-07  0.291E-03    3.83       6.0  T
   4    -51.0701615 -0.112391E-06  0.143E-03    3.83      12.2  T
   5    -51.0701615 -0.310115E-07  0.458E-04    3.83      38.0  T
   6    -51.0701615 -0.115576E-08  0.184E-04    3.83      94.8  T
     SCC iter.                  ...        0 min,  0.009 sec
     gradient                   ...        0 min,  0.015 sec
 * total energy  :   -50.3572003 Eh     change       -0.2126219E-04 Eh
   gradient norm :     0.0023980 Eh/α   predicted    -0.1467515E-04 ( -30.98%)
   displ. norm   :     0.1968516 α      lambda       -0.3653912E-04
   maximum displ.:     0.1139548 α      in ANC's #1, #3, #10, ...

........................................................................
.............................. CYCLE   52 ..............................
........................................................................

 iter      E             dE          RMSdq      gap      omega  full diag
   1    -51.0704897 -0.510705E+02  0.355E-02    3.83       0.0  T
   2    -51.0704901 -0.438093E-06  0.205E-02    3.83       1.0  T
   3    -51.0704897  0.402010E-06  0.485E-03    3.83       3.6  T
   4    -51.0704902 -0.508762E-06  0.179E-03    3.83       9.7  T
   5    -51.0704903 -0.401211E-07  0.671E-04    3.83      25.9  T
   6    -51.0704903 -0.499839E-08  0.277E-04    3.83      62.9  T
     SCC iter.                  ...        0 min,  0.009 sec
     gradient                   ...        0 min,  0.014 sec
 * total energy  :   -50.3572284 Eh     change       -0.2816345E-04 Eh
   gradient norm :     0.0021507 Eh/α   predicted    -0.1897818E-04 ( -32.61%)
   displ. norm   :     0.2923020 α      lambda       -0.4402222E-04
   maximum displ.:     0.1706175 α      in ANC's #1, #3, #12, ...

........................................................................
.............................. CYCLE   53 ..............................
........................................................................

 iter      E             dE          RMSdq      gap      omega  full diag
   1    -51.0695943 -0.510696E+02  0.547E-02    3.83       0.0  T
   2    -51.0695953 -0.924226E-06  0.315E-02    3.83       1.0  T
   3    -51.0695935  0.171999E-05  0.921E-03    3.83       1.9  T
   4    -51.0695957 -0.211621E-05  0.261E-03    3.83       6.7  T
   5    -51.0695957 -0.553386E-07  0.109E-03    3.83      15.9  T
   6    -51.0695957 -0.170895E-07  0.403E-04    3.83      43.2  T
   7    -51.0695957 -0.226072E-08  0.166E-04    3.83     105.0  T
     SCC iter.                  ...        0 min,  0.009 sec
     gradient                   ...        0 min,  0.015 sec
 * total energy  :   -50.3572581 Eh     change       -0.2967621E-04 Eh
   gradient norm :     0.0034798 Eh/α   predicted    -0.2389447E-04 ( -19.48%)
   displ. norm   :     0.2628507 α      lambda       -0.9004858E-04
   maximum displ.:     0.1600020 α      in ANC's #1, #3, #12, ...

........................................................................
.............................. CYCLE   54 ..............................
........................................................................

 iter      E             dE          RMSdq      gap      omega  full diag
   1    -51.0709907 -0.510710E+02  0.718E-02    3.83       0.0  T
   2    -51.0709928 -0.216234E-05  0.403E-02    3.83       1.0  T
   3    -51.0709879  0.496499E-05  0.154E-02    3.83       1.1  T
   4    -51.0709940 -0.609766E-05  0.312E-03    3.83       5.6  T
   5    -51.0709940 -0.601878E-07  0.140E-03    3.83      12.4  T
   6    -51.0709940 -0.176327E-07  0.581E-04    3.83      30.0  T
   7    -51.0709940 -0.592708E-08  0.203E-04    3.83      85.9  T
     SCC iter.                  ...        0 min,  0.009 sec
     gradient                   ...        0 min,  0.015 sec
 * total energy  :   -50.3573013 Eh     change       -0.4314484E-04 Eh
   gradient norm :     0.0030350 Eh/α   predicted    -0.4813599E-04 (  11.57%)
   displ. norm   :     0.3279479 α      lambda       -0.4685031E-04
   maximum displ.:     0.1951171 α      in ANC's #1, #3, #12, ...

........................................................................
.............................. CYCLE   55 ..............................
........................................................................

 iter      E             dE          RMSdq      gap      omega  full diag
   1    -51.0681378 -0.510681E+02  0.674E-02    3.83       0.0  T
   2    -51.0681402 -0.240268E-05  0.386E-02    3.83       1.0  T
   3    -51.0681372  0.299925E-05  0.125E-02    3.83       1.4  T
   4    -51.0681409 -0.368199E-05  0.367E-03    3.83       4.7  T
   5    -51.0681411 -0.181852E-06  0.151E-03    3.83      11.5  T
   6    -51.0681411 -0.939327E-08  0.682E-04    3.83      25.5  T
   7    -51.0681411 -0.953727E-08  0.232E-04    3.83      75.1  T
     SCC iter.                  ...        0 min,  0.046 sec
     gradient                   ...        0 min,  0.015 sec
 * total energy  :   -50.3572947 Eh     change        0.6542548E-05 Eh
   gradient norm :     0.0058854 Eh/α   predicted    -0.2594542E-04 (-496.56%)
   displ. norm   :     0.1735155 α      lambda       -0.8012544E-04
   maximum displ.:     0.0990999 α      in ANC's #1, #3, #12, ...

........................................................................
.............................. CYCLE   56 ..............................
........................................................................

 iter      E             dE          RMSdq      gap      omega  full diag
   1    -51.0706238 -0.510706E+02  0.379E-02    3.83       0.0  T
   2    -51.0706249 -0.110194E-05  0.215E-02    3.83       1.0  T
   3    -51.0706239  0.989680E-06  0.757E-03    3.84       2.3  T
   4    -51.0706251 -0.118808E-05  0.250E-03    3.84       7.0  T
   5    -51.0706252 -0.107097E-06  0.882E-04    3.84      19.7  T
   6    -51.0706252 -0.271393E-08  0.343E-04    3.84      50.8  T
     SCC iter.                  ...        0 min,  0.009 sec
     gradient                   ...        0 min,  0.014 sec
 * total energy  :   -50.3573308 Eh     change       -0.3607647E-04 Eh
   gradient norm :     0.0016954 Eh/α   predicted    -0.4126893E-04 (  14.39%)
   displ. norm   :     0.0988514 α      lambda       -0.1298821E-04
   maximum displ.:     0.0588700 α      in ANC's #1, #3, #7, ...

........................................................................
.............................. CYCLE   57 ..............................
........................................................................

 iter      E             dE          RMSdq      gap      omega  full diag
   1    -51.0706367 -0.510706E+02  0.197E-02    3.84       0.0  T
   2    -51.0706369 -0.193023E-06  0.114E-02    3.84       1.5  T
   3    -51.0706367  0.167406E-06  0.305E-03    3.84       5.7  T
   4    -51.0706369 -0.220720E-06  0.868E-04    3.84      20.1  T
   5    -51.0706369 -0.946607E-08  0.408E-04    3.84      42.7  T
     SCC iter.                  ...        0 min,  0.007 sec
     gradient                   ...        0 min,  0.046 sec
 * total energy  :   -50.3573470 Eh     change       -0.1621386E-04 Eh
   gradient norm :     0.0014419 Eh/α   predicted    -0.6523605E-05 ( -59.77%)
   displ. norm   :     0.3249038 α      lambda       -0.3076149E-04
   maximum displ.:     0.1973452 α      in ANC's #1, #3, #12, ...

........................................................................
.............................. CYCLE   58 ..............................
........................................................................

 iter      E             dE          RMSdq      gap      omega  full diag
   1    -51.0695019 -0.510695E+02  0.612E-02    3.84       0.0  T
   2    -51.0695034 -0.156750E-05  0.354E-02    3.84       1.0  T
   3    -51.0695028  0.625903E-06  0.685E-03    3.84       2.5  T
   4    -51.0695038 -0.101950E-05  0.261E-03    3.84       6.7  T
   5    -51.0695039 -0.769148E-07  0.124E-03    3.84      14.0  T
   6    -51.0695039 -0.119470E-07  0.458E-04    3.84      38.0  T
   7    -51.0695039 -0.371328E-08  0.186E-04    3.84      93.8  T
     SCC iter.                  ...        0 min,  0.010 sec
[...]
   for GFN-FF:
   * S. Spicher and S. Grimme, Angew. Chem. Int. Ed., 2020, 59, 15665-15673.
     DOI: 10.1002/anie.202004239
   
   for ALPB and GBSA implicit solvation:
   * S. Ehlert, M. Stahn, S. Spicher, S. Grimme, J. Chem. Theory Comput.,
     2021, 17, 4250-4261. DOI: 10.1021/acs.jctc.1c00471
   
   for ddCOSMO and CPCM-X implicit solvation:
   * M. Stahn, S. Ehlert, S. Grimme, J. Phys. Chem. A,
     2023, XX, XXXX-XXXX. DOI: 10.1021/acs.jpca.3c04382
   
   for DFT-D4:
   * E. Caldeweyher, C. Bannwarth and S. Grimme, J. Chem. Phys., 2017,
     147, 034112. DOI: 10.1063/1.4993215
   * E. Caldeweyher, S. Ehlert, A. Hansen, H. Neugebauer, S. Spicher,
     C. Bannwarth and S. Grimme, J. Chem. Phys., 2019, 150, 154122.
     DOI: 10.1063/1.5090222
   * E. Caldeweyher, J.-M. Mewes, S. Ehlert and S. Grimme, Phys. Chem. Chem. Phys.
     2020, 22, 8499-8512. DOI: 10.1039/D0CP00502A
   
   for sTDA-xTB:
   * S. Grimme and C. Bannwarth, J. Chem. Phys., 2016, 145, 054103.
     DOI: 10.1063/1.4959605
   
   in the mass-spec context:
   * V. Asgeirsson, C. Bauer and S. Grimme, Chem. Sci., 2017, 8, 4879.
     DOI: 10.1039/c7sc00601b
   * J. Koopman and S. Grimme, ACS Omega 2019, 4, 12, 15120-15133.
     DOI: 10.1021/acsomega.9b02011
   
   for metadynamics refer to:
   * S. Grimme, J. Chem. Theory Comput., 2019, 155, 2847-2862
     DOI: 10.1021/acs.jctc.9b00143
   
   for SPH calculations refer to:
   * S. Spicher and S. Grimme, J. Chem. Theory Comput., 2021, 17, 1701-1714
     DOI: 10.1021/acs.jctc.0c01306
   
   for ONIOM refer to:
   * C. Plett, A. Katbashev, S. Ehlert, S. Grimme, M. Bursch,
     Phys. Chem. Chem. Phys., 2023, 25, 17860-17868. DOI: 10.1039/D3CP02178E
   
   for DIPRO refer to:
   * J. Kohn, N. Gildemeister, S. Grimme, D. Fazzi, A. Hansen,
     J. Chem. Phys., 2023, just accepted.
   
   for PTB refer to:
   * S. Grimme, M. Mueller, A. Hansen, J. Chem. Phys., 2023, 158, 124111.
     DOI: 10.1063/5.0137838
   
   with help from (in alphabetical order)
   P. Atkinson, C. Bannwarth, F. Bohle, G. Brandenburg, E. Caldeweyher
   M. Checinski, S. Dohm, S. Ehlert, S. Ehrlich, I. Gerasimov, C. Hölzer
   A. Katbashev, J. Kohn, J. Koopman, C. Lavigne, S. Lehtola, F. März, M. Müller,
   F. Musil, H. Neugebauer, J. Pisarek, C. Plett, P. Pracht, F. Pultar,
   J. Seibert, P. Shushkov, S. Spicher, M. Stahn, M. Steiner, T. Strunk,
   J. Stückrath, T. Rose, and J. Unsleber
   
 * started run on 2025/05/15 at 16:18:45.884     
   ID    Z sym.   atoms
    1    6 C      1, 3, 5, 6, 8-11, 13, 16
    2    7 N      2, 4, 12, 14, 15, 17
    3   16 S      7
    4    1 H      18-33

           -------------------------------------------------
          |                Calculation Setup                |
           -------------------------------------------------

          program call               : xtb /rds/general/user/hgt20/home/callum/QDESCP/Cimetadine_rdkit_conf_7/Cimetadine_rdkit_conf_7.xyz --acc 1 --gfn 2 --chrg 0 --uhf 2 --etemp 300 --input /rds/general/user/hgt20/home/callum/QDESCP/Cimetadine_rdkit_conf_7/Cimetadine_rdkit_conf_7_xtb.inp -P 1
          hostname                   : login-c
          coordinate file            : /rds/general/user/hgt20/home/callum/QDESCP/Cimetadine_rdkit_conf_7/Cimetadine_rdkit_conf_7.xyz
          omp threads                :                     1


           -------------------------------------------------
          |                 G F N 2 - x T B                 |
           -------------------------------------------------

        Reference                      10.1021/acs.jctc.8b01176
      * Hamiltonian:
        H0-scaling (s, p, d)           1.850000    2.230000    2.230000
        zeta-weighting                 0.500000
      * Dispersion:
        s8                             2.700000
        a1                             0.520000
        a2                             5.000000
        s9                             5.000000
      * Repulsion:
        kExp                           1.500000    1.000000
        rExp                           1.000000
      * Coulomb:
        alpha                          2.000000
        third order                    shell-resolved
        anisotropic                    true
        a3                             3.000000
        a5                             4.000000
        cn-shift                       1.200000
        cn-exp                         4.000000
        max-rad                        5.000000


          ...................................................
          :                      SETUP                      :
          :.................................................:
          :  # basis functions                  90          :
          :  # atomic orbitals                  89          :
          :  # shells                           51          :
          :  # electrons                        92          :
          :  max. iterations                   250          :
          :  Hamiltonian                  GFN2-xTB          :
          :  restarted?                      false          :
          :  GBSA solvation                  false          :
          :  PC potential                    false          :
          :  electronic temp.          300.0000000     K    :
          :  accuracy                    1.0000000          :
          :  -> integral cutoff          0.2500000E+02      :
          :  -> integral neglect         0.1000000E-07      :
          :  -> SCF convergence          0.1000000E-05 Eh   :
          :  -> wf. convergence          0.1000000E-03 e    :
          :  Broyden damping             0.4000000          :
          :  net charge                          0          :
          :  unpaired electrons                  2          :
          ...................................................

 iter      E             dE          RMSdq      gap      omega  full diag
   1    -50.6188119 -0.506188E+02  0.450E+00    0.48       0.0  T
   2    -50.6263319 -0.751996E-02  0.333E+00    2.24       1.0  T
   3    -50.6838922 -0.575603E-01  0.275E+00    0.49       1.0  T
   4    -50.7044198 -0.205276E-01  0.198E+00    0.86       1.0  T
   5    -50.6752240  0.291958E-01  0.221E+00    0.40       1.0  T
   6    -50.7681066 -0.928826E-01  0.171E+00    0.50       1.0  T
   7    -50.8484296 -0.803230E-01  0.236E+00    0.08       1.0  T
   8    -50.9028234 -0.543938E-01  0.216E+00    0.13       1.0  T
   9    -50.8959642  0.685922E-02  0.241E+00    0.12       1.0  T
  10    -50.8900846  0.587965E-02  0.262E+00    0.11       1.0  T
  11    -50.9007394 -0.106548E-01  0.207E+00    0.12       1.0  T
  12    -50.7660225  0.134717E+00  0.285E+00    0.11       1.0  T
  13    -50.8383871 -0.723646E-01  0.265E+00    0.08       1.0  T
  14    -50.8666537 -0.282666E-01  0.246E+00    0.09       1.0  T
  15    -50.8764687 -0.981497E-02  0.181E+00    0.09       1.0  T
  16    -50.8911025 -0.146338E-01  0.149E+00    0.09       1.0  T
  17    -50.8486734  0.424291E-01  0.149E+00    0.13       1.0  T
  18    -50.9069658 -0.582924E-01  0.590E-01    0.08       1.0  T
  19    -50.9029190  0.404681E-02  0.575E-01    0.09       1.0  T
  20    -50.9155790 -0.126600E-01  0.412E-01    0.09       1.0  T
  21    -50.8957838  0.197953E-01  0.872E-01    0.10       1.0  T
  22    -50.9162577 -0.204740E-01  0.336E-01    0.09       1.0  T
  23    -50.9115153  0.474243E-02  0.453E-01    0.09       1.0  T
  24    -50.9185805 -0.706515E-02  0.267E-01    0.08       1.0  T
  25    -50.9181889  0.391549E-03  0.182E-01    0.08       1.0  T
  26    -50.9185173 -0.328430E-03  0.128E-01    0.08       1.0  T
  27    -50.9193261 -0.808802E-03  0.910E-02    0.08       1.0  T
  28    -50.9191399  0.186193E-03  0.777E-02    0.08       1.0  T
  29    -50.9193042 -0.164249E-03  0.519E-02    0.08       1.0  T
  30    -50.9193969 -0.927175E-04  0.815E-03    0.08       2.1  T
  31    -50.9193957  0.122809E-05  0.103E-02    0.08       1.7  T
  32    -50.9193977 -0.200963E-05  0.213E-03    0.08       8.2  T
  33    -50.9193980 -0.342634E-06  0.119E-03    0.08      14.6  T
  34    -50.9193981 -0.141877E-07  0.578E-04    0.08      30.1  T
  35    -50.9193981 -0.955034E-08  0.109E-04    0.08     159.8  T

   *** convergence criteria satisfied after 35 iterations ***

         #    Occupation            Energy/Eh            Energy/eV
      -------------------------------------------------------------
         1        2.0000           -0.7221973             -19.6520
       ...           ...                  ...                  ...
        41        2.0000           -0.3967722             -10.7967
        42        2.0000           -0.3897532             -10.6057
        43        1.9995           -0.3871760             -10.5356
        44        1.9501           -0.3826759             -10.4131
        45        1.8622           -0.3816177             -10.3843
        46        1.1881           -0.3784864             -10.2991
        47        0.8240           -0.2197782              -5.9805 (HOMO)
        48        0.1760           -0.2168452              -5.9007 (LUMO)
        49        0.0000           -0.2073992              -5.6436
        50                         -0.1791404              -4.8747
        51                         -0.1475857              -4.0160
        52                         -0.1420409              -3.8651
       ...                                ...                  ...
        89                          1.2400778              33.7442
      -------------------------------------------------------------
                  HL-Gap            0.0029330 Eh            0.0798 eV
             Fermi-level           -0.2990937 Eh           -8.1388 eV

 transition dipole moment (au) for excitation:          46          47
     X       Y       Z   
   0.6188   0.4078   0.4387  total (au/Debye):    0.861   2.189
 dE (eV)             :    4.319
 oscillator strength :  0.11097E+00

 SCC (total)                   0 d,  0 h,  0 min,  0.107 sec
 SCC setup                      ...        0 min,  0.000 sec (  0.247%)
 Dispersion                     ...        0 min,  0.000 sec (  0.263%)
 classical contributions        ...        0 min,  0.000 sec (  0.094%)
 integral evaluation            ...        0 min,  0.006 sec (  5.203%)
 iterations                     ...        0 min,  0.049 sec ( 45.570%)
 molecular gradient             ...        0 min,  0.047 sec ( 43.629%)
 printout                       ...        0 min,  0.005 sec (  4.988%)

         :::::::::::::::::::::::::::::::::::::::::::::::::::::
         ::                     SUMMARY                     ::
         :::::::::::::::::::::::::::::::::::::::::::::::::::::
         :: total energy             -50.206141536693 Eh    ::
         :: gradient norm              0.112850088621 Eh/a0 ::
         :: HOMO-LUMO gap              0.079810968380 eV    ::
         ::.................................................::
         :: SCC energy               -50.919116168935 Eh    ::
         :: -> isotropic ES            0.050568262495 Eh    ::
         :: -> anisotropic ES          0.007313596499 Eh    ::
         :: -> anisotropic XC          0.037012613719 Eh    ::
         :: -> dispersion             -0.032696683002 Eh    ::
         :: repulsion energy           0.712974632242 Eh    ::
         :: add. restraining           0.000000000000 Eh    ::
         :: total charge              -0.000000000000 e     ::
         :::::::::::::::::::::::::::::::::::::::::::::::::::::

           -------------------------------------------------
          |                Property Printout                |
           -------------------------------------------------

    * Orbital Energies and Occupations

         #    Occupation            Energy/Eh            Energy/eV
      -------------------------------------------------------------
         1        2.0000           -0.7221973             -19.6520
       ...           ...                  ...                  ...
        35        2.0000           -0.4647065             -12.6453
        36        2.0000           -0.4621376             -12.5754
        37        2.0000           -0.4546951             -12.3729
        38        2.0000           -0.4456938             -12.1279
        39        2.0000           -0.4330161             -11.7830
        40        2.0000           -0.4039856             -10.9930
        41        2.0000           -0.3967722             -10.7967
        42        2.0000           -0.3897532             -10.6057
        43        1.9995           -0.3871760             -10.5356
        44        1.9501           -0.3826759             -10.4131
        45        1.8622           -0.3816177             -10.3843
        46        1.1881           -0.3784864             -10.2991
        47        0.8240           -0.2197782              -5.9805 (HOMO)
        48        0.1760           -0.2168452              -5.9007 (LUMO)
        49        0.0000           -0.2073992              -5.6436
        50                         -0.1791404              -4.8747
        51                         -0.1475857              -4.0160
        52                         -0.1420409              -3.8651
        53                         -0.0993199              -2.7026
        54                         -0.0362588              -0.9867
        55                         -0.0190138              -0.5174
        56                         -0.0098835              -0.2689
        57                          0.0046901               0.1276
        58                          0.0147362               0.4010
       ...                                ...                  ...
        89                          1.2400778              33.7442
      -------------------------------------------------------------
                  HL-Gap            0.0029330 Eh            0.0798 eV
             Fermi-level           -0.2990937 Eh           -8.1388 eV

     #   Z          covCN         q      C6AA      α(0)
     1   6 C        3.685    -0.039    21.471     6.634
     2   7 N        2.692    -0.191    25.147     7.448
     3   6 C        2.773     0.193    23.878     8.003
     4   7 N        2.708    -0.187    25.053     7.434
     5   6 C        3.772     0.010    20.433     6.441
     6   6 C        3.795    -0.027    21.066     6.536
     7  16 S        2.004    -0.173   148.397    20.503
     8   6 C        3.798    -0.029    21.102     6.541
     9   6 C        3.233     0.045    26.161     8.302
    10   6 C        3.063     0.013    27.672     8.626
    11   6 C        3.753    -0.108    22.619     6.782
    12   7 N        2.817    -0.120    23.609     7.216
    13   6 C        3.128     0.095    25.704     8.301
    14   7 N        1.914    -0.285    28.247     7.880
    15   7 N        1.842    -0.231    26.896     7.686
    16   6 C        1.851     0.166    27.155     8.418
    17   7 N        0.912    -0.331    28.514     7.723
    18   1 H        0.925     0.054     2.271     2.357
    19   1 H        0.925     0.078     2.004     2.214
    20   1 H        0.924     0.044     2.398     2.422
    21   1 H        0.860     0.161     1.328     1.805
    22   1 H        0.860     0.172     1.262     1.760
    23   1 H        0.924     0.051     2.310     2.377
    24   1 H        0.924     0.078     2.000     2.211
    25   1 H        0.925     0.063     2.163     2.300
    26   1 H        0.925     0.060     2.197     2.318
    27   1 H        0.925     0.047     2.359     2.402
    28   1 H        0.925     0.057     2.234     2.337
    29   1 H        0.925     0.054     2.267     2.354
    30   1 H        0.924     0.044     2.391     2.418
    31   1 H        0.924     0.045     2.386     2.415
    32   1 H        0.860     0.159     1.345     1.816
    33   1 H        0.926     0.034     2.531     2.488

 Mol. C6AA /au·bohr⁶  :      13071.756970
 Mol. C8AA /au·bohr⁸  :     324860.162505
 Mol. α(0) /au        :        176.467690


Wiberg/Mayer (AO) data.
largest (>0.10) Wiberg bond orders for each atom

 ---------------------------------------------------------------------------
     #   Z sym  total        # sym  WBO       # sym  WBO       # sym  WBO
 ---------------------------------------------------------------------------
     1   6 C    3.963 --     2 N    1.011    18 H    0.979    20 H    0.973
                            19 H    0.966
     2   7 N    3.293 --     3 C    1.151     1 C    1.011    21 H    0.942
     3   6 C    3.764 --    15 N    1.330     2 N    1.151     4 N    1.138
     4   7 N    3.313 --     3 C    1.138     5 C    1.011    22 H    0.930
     5   6 C    3.963 --     4 N    1.011     6 C    0.980    23 H    0.964
                            24 H    0.957
     6   6 C    3.952 --     5 C    0.980    26 H    0.967    25 H    0.966
                             7 S    0.960
     7  16 S    2.253 --     6 C    0.960     8 C    0.834
     8   6 C    3.915 --     9 C    1.063    28 H    0.965    27 H    0.965
                             7 S    0.834
     9   6 C    3.886 --    10 C    1.351    14 N    1.254     8 C    1.063
    10   6 C    3.779 --     9 C    1.351    12 N    1.157    11 C    1.036
    11   6 C    3.994 --    10 C    1.036    29 H    0.982    30 H    0.970
                            31 H    0.967
    12   7 N    3.521 --    13 C    1.215    10 C    1.157    32 H    0.945
                            14 N    0.114
    13   6 C    3.915 --    14 N    1.558    12 N    1.215    33 H    0.965
    14   7 N    3.024 --    13 C    1.558     9 C    1.254    12 N    0.114
    15   7 N    3.088 --    16 C    1.380     3 C    1.330    17 N    0.168
    16   6 C    3.874 --    17 N    2.425    15 N    1.380
    17   7 N    2.668 --    16 C    2.425    15 N    0.168
    18   1 H    0.994 --     1 C    0.979
    19   1 H    0.993 --     1 C    0.966
    20   1 H    0.991 --     1 C    0.973
    21   1 H    0.972 --     2 N    0.942
    22   1 H    0.968 --     4 N    0.930
    23   1 H    0.995 --     5 C    0.964
    24   1 H    0.993 --     5 C    0.957
    25   1 H    0.992 --     6 C    0.966
    26   1 H    0.993 --     6 C    0.967
    27   1 H    0.995 --     8 C    0.965
    28   1 H    0.991 --     8 C    0.965
    29   1 H    0.997 --    11 C    0.982
    30   1 H    0.992 --    11 C    0.970
    31   1 H    0.991 --    11 C    0.967
    32   1 H    0.975 --    12 N    0.945
    33   1 H    0.998 --    13 C    0.965
 ---------------------------------------------------------------------------

Topologies differ in total number of bonds
Writing topology from bond orders to xtbtopo.mol

molecular dipole:
                 x           y           z       tot (Debye)
 q only:        1.376       1.763       1.278
   full:        2.084       1.891       1.921       8.659
molecular quadrupole (traceless):
                xx          xy          yy          xz          yz          zz
 q only:      -12.756     -22.581       1.804       2.703      -2.375      10.952
  q+dip:      -16.416     -27.975      -0.423       5.810      -2.509      16.839
   full:      -15.710     -28.945      -0.536       5.123      -2.937      16.246


           -------------------------------------------------
          | TOTAL ENERGY              -50.206141536693 Eh   |
          | GRADIENT NORM               0.112850088621 Eh/α |
          | HOMO-LUMO GAP               0.079810968380 eV   |
           -------------------------------------------------

------------------------------------------------------------------------
 * finished run on 2025/05/15 at 16:18:46.002     
------------------------------------------------------------------------
 total:
 * wall-time:     0 d,  0 h,  0 min,  0.118 sec
 *  cpu-time:     0 d,  0 h,  0 min,  0.084 sec
 * ratio c/w:     0.714 speedup
 SCF:
 * wall-time:     0 d,  0 h,  0 min,  0.107 sec
 *  cpu-time:     0 d,  0 h,  0 min,  0.075 sec
 * ratio c/w:     0.698 speedup


