33
 energy: -50.357419092792 gnorm: 0.000975959930 xtb: 6.7.1 (edcfbbe)
C           -4.88121033058841        1.08639201356706        0.05862207039857
N           -3.43832833326142        1.06696512336667        0.01485522595905
C           -2.66077535806860       -0.05005343801250       -0.01985448569741
N           -1.33616136280265        0.15970044252370        0.24145480858669
C           -0.33938062640167       -0.80948941540711       -0.15392369078650
C            0.23348077964526       -0.49835745255725       -1.53319332892315
S            0.97421903692408        1.17280299478262       -1.57297333065741
C            2.75182713783337        0.74218997286884       -1.40460832413752
C            3.00790382319293       -0.12355628423362       -0.23442776278644
C            3.07225917061313        0.20487663724035        1.09820780207387
C            2.91839001045430        1.49638483299915        1.81253297090448
N            3.30901874513346       -0.97981597713137        1.74819964528760
C            3.37001149391050       -1.95124458385089        0.80382274690108
N            3.18753708416111       -1.47011531242283       -0.39000729425338
N           -3.03920255381367       -1.25833320746761       -0.24838846477025
C           -4.20794833051119       -1.76622312357079       -0.46430229900025
N           -5.17076862898951       -2.36795459602203       -0.67391819801132
H           -5.24234158927680        1.95172786352850       -0.49724808167476
H           -5.27495656570668        0.18279794694974       -0.40138074086064
H           -5.25169442620402        1.14284697775243        1.08741134432970
H           -2.98434458352118        1.92117369827273        0.30301147488480
H           -1.00695755459950        1.11453812912842        0.16893277239176
H            0.46029977821023       -0.80007591885199        0.59147897982189
H           -0.81533051695478       -1.79167882944766       -0.16281086266800
H            1.01413404914744       -1.20782798384256       -1.79976391360729
H           -0.55624105362251       -0.50966086297114       -2.28366355311554
H            3.26200057027089        1.70125671477982       -1.32812816948363
H            3.04807870222334        0.23065540326252       -2.31925352029185
H            2.73876492873639        2.29320331935678        1.09598493619912
H            3.81624389489346        1.73250197126281        2.38469533473687
H            2.07505754171502        1.45553442868778        2.50349675356997
H            3.42263102977516       -1.08760198343728        2.74297715826929
H            3.54388403747766       -2.98355950111027        1.02896199641640
