20
 energy: -32.782998026942 gnorm: 0.000880173806 xtb: 6.7.1 (edcfbbe)
O            2.46773435536948       -1.21336434970820       -0.64025242389388
C            2.39608042686850       -0.06214030999507       -0.27822497120771
C            3.60883042824388        0.83895459835651       -0.13470100632514
N            1.23839341233458        0.58039256593973        0.04935536022748
C           -0.07743321184232        0.09890310443194        0.03039397770267
C           -1.09801032382646        0.98078177869306        0.37272411259143
C           -2.41686657010183        0.56839835683975        0.36832457559021
C           -2.73725418268984       -0.73771489868696        0.02070661433863
O           -4.02208703413689       -1.18971175509224       -0.00095562359789
C           -1.71747840975157       -1.62171714228956       -0.31811866038319
C           -0.40068286190178       -1.21119243999928       -0.31421706761666
H            3.50924637640078        1.71086568310152       -0.77784998939581
H            4.49810909458497        0.28431872321853       -0.41965257960714
H            3.71028348925707        1.17091408607990        0.89665942158429
H            1.32054498377798        1.54733451257730        0.33213727285915
H           -0.86171940795633        2.00042925741401        0.64479874563879
H           -3.19961454168520        1.26616681244193        0.63550538755663
H           -4.62340824087160       -0.47870128369842        0.25008743981782
H           -1.97783627112215       -2.63323354742383       -0.58425076291301
H            0.38316848904872       -1.89988375220057       -0.57916982296654
