29
 energy: -55.287820891122 gnorm: 0.000426427540 xtb: 6.7.1 (edcfbbe)
O           -1.11255321422201        0.80014417475500       -2.14817798543158
C           -1.40380491375129       -0.56100717524996       -2.23736126715682
C           -1.64779574165473       -1.26369497398680       -0.87831349657951
C           -2.09909772850455       -0.29606203921481        0.23490695779743
C           -1.30091309992602       -0.75408230054357        1.46990104431192
C           -0.07893143649009       -1.44881457730975        0.83629024750540
N            1.03590229957792       -0.53200487170201        0.70266586486309
C            2.23382745139960       -0.52696617471758        1.31934706580123
N            2.95822338240005        0.47483503129869        0.89289047473378
C            2.15790995520335        1.08169035871007       -0.02061767404272
C            2.56652004863841        2.27305034119229       -0.80377304465225
N            3.77513590336332        2.73749183765207       -0.42544550998883
O            1.88467230014637        2.76030656204140       -1.67740340133792
N            0.98788066022831        0.49228280608700       -0.14914670090246
O           -0.46371228917308       -1.91462025843846       -0.41420833558147
O           -2.00417566374018       -1.66945123648129        2.25242237364268
O           -3.47364528088679       -0.37655925396051        0.52313006472758
H           -0.23207386654599        0.93470414244150       -1.75872146894124
H           -0.61201521274860       -1.11784121912874       -2.75284737375057
H           -2.31896774055165       -0.62723002038477       -2.83250887128769
H           -2.40236759442345       -2.04982567971692       -1.01364888006918
H           -1.81172374446703        0.72741945009576       -0.03542959390043
H           -0.98555399413089        0.10152700433894        2.08542326565920
H            0.25660278806275       -2.28956631132510        1.45430147035401
H            2.52870140416312       -1.24799188370546        2.05286371432249
H            4.29404675353352        2.25115229862965        0.28559947409300
H            4.17506239386195        3.52770911033518       -0.90188755099622
H           -2.94585806533487       -1.53950850116297        2.06476487262520
H           -3.96119575402390        0.05291335944995       -0.18631573582379
