98
 energy: -148.190357202792 gnorm: 0.000312010253 xtb: 6.7.1 (edcfbbe)
O           -3.88849837496785        1.84639731125725       -0.61668198663056
C           -4.52953062395293        0.90399279345778       -0.20829624271152
N           -4.36819605593963       -0.38998281288118       -0.54645719497242
C           -3.66051107656755       -0.88828342991737       -1.72267705272064
C           -4.37849358205839       -0.46254849584669       -3.01810290445952
C           -5.84203578441877       -0.78726125300257       -2.94556914160120
C           -6.29313657502616       -2.07970593466482       -3.18524572158750
C           -7.63635461525436       -2.39000883998738       -3.07100384484893
C           -8.54681837413434       -1.41156646420835       -2.70849118152229
C           -8.10775050649677       -0.12116604924915       -2.46731760342719
C           -6.76410495979015        0.18769198971573       -2.58598521653365
C           -2.16485977570480       -0.46852719838835       -1.76410228544959
C           -1.52232707708402       -0.67306079386978       -0.38278706421257
C           -0.03544189021473       -0.31339811403133       -0.36797599071429
N            0.38947126991522       -0.19221340303446        1.01171960720222
C            1.29337378544919        0.71592678038185        1.41984537669615
C            1.72898358861813        0.57833568258479        2.88565606459327
N            3.14260065826136        0.90567860799166        2.94057394025277
C            3.98937322840380       -0.06109627930821        2.44520332627852
N            5.24187861504084        0.35867771005618        2.09806634863021
C            5.55408914141728        1.75367879224396        1.87720786798763
C            6.09032856387582       -0.62371452354781        1.44211328724519
C            5.78721459965089       -0.66687826734597       -0.02509495276627
C            4.87176818501385       -1.48215730784761       -0.61511497948322
S            4.73261045754077       -1.12023383140117       -2.28959232162099
C            5.94197849709538        0.13301988526018       -2.06871541393832
C            6.42223875491055        0.95388568098946       -3.21621957781431
C            7.76922603127360        0.40331231243015       -3.69673941377520
C            6.55143932060702        2.41748967956394       -2.79575691099922
N            6.37190002392729        0.22934392953268       -0.86390549603757
O            3.66620406896643       -1.23902428784669        2.40067817592300
C            0.89804881493376        1.45890202687370        3.83486496845168
C            0.96963091380744        2.93923546898233        3.46659575582855
C           -0.55309549460903        0.98359342415595        3.84084096067463
O            1.75269541251485        1.58087472712354        0.69809285094767
C            0.86053855737896       -1.32343838439103       -1.11498637182704
C            0.76329716339996       -2.70696733275924       -0.54151851605996
C            1.49876668702120       -3.06200891506352        0.58517047068707
C            1.37965062710350       -4.32784855812793        1.13264043865679
C            0.52627937606495       -5.25806114261174        0.56432542286289
C           -0.20529224435702       -4.91655884145878       -0.56036891556364
C           -0.08683034518501       -3.65079762926580       -1.10674010929763
O           -1.96551375806158        0.81856335683361       -2.25939268821339
O           -5.51184056277855        1.01623281972920        0.71687691728842
C           -5.75267353414257        2.33049827784219        1.22209802993965
C           -4.85735341707198        2.65979718190639        2.36882879143797
C           -3.54947514397934        3.04719854966111        2.33693116541672
N           -2.98078869456088        3.26700219707651        3.54215944472972
C           -3.80431376243340        3.06006082234848        4.50079970003507
S           -5.39161847312496        2.55701975759795        4.01432478872738
H           -5.06092081789797       -1.00868592305415       -0.15326885642571
H           -3.69187926880505       -1.97834117873044       -1.63105301149019
H           -4.23292356300410        0.60907278233840       -3.15803449458806
H           -3.90765572500361       -0.98280016251045       -3.85318262650839
H           -5.58568470526107       -2.84560662630738       -3.47065006937710
H           -7.97443503727907       -3.39722662281804       -3.26583764135753
H           -9.59538966551481       -1.65331255361202       -2.61873752821791
H           -8.81389998215611        0.64732748934143       -2.18880301487942
H           -6.42604206518080        1.19840941191907       -2.40531082395731
H           -1.67771567689051       -1.12738887373293       -2.49250020351363
H           -1.66016318161465       -1.70967918556729       -0.06853822188470
H           -2.02846707835021       -0.02389326739741        0.33502533587893
H            0.10298913526658        0.67112080057638       -0.82750274675585
H            0.17070194029063       -0.96877564021558        1.61611665186512
H            1.64193471584629       -0.46826361526470        3.19568697601887
H            3.32300398297683        1.84990771838018        2.63143220512652
H            5.54108622840535        2.30138804283817        2.82234413461325
H            4.85842176325729        2.22174000589382        1.17241765019805
H            6.55165588004745        1.81798107446436        1.44974310928025
H            7.13479258402503       -0.35290596101037        1.60552493721653
H            5.87710520648789       -1.59392635981551        1.89344117559261
H            4.28383191915504       -2.25462381769463       -0.16394668364425
H            5.69447533274686        0.86824574196503       -4.02979849598367
H            7.66930306213376       -0.63437834758986       -4.00767795504050
H            8.49828147931744        0.45705831086213       -2.89202404689377
H            8.13138990803823        0.98602742068182       -4.54016126962004
H            7.24812626612824        2.50057282945990       -1.96634736529232
H            6.91494145064129        3.01553974253808       -3.62781500686041
H            5.58775395849467        2.80823604434404       -2.47862301052195
H            1.31578314113910        1.32509878718485        4.83904820056763
H            0.74449984149942        3.08427077489187        2.41363618520372
H            1.95759110989957        3.34526309189498        3.67040033408631
H            0.24277322984328        3.49907834788171        4.04987263551984
H           -1.12601406567383        1.54998739535032        4.57016279811536
H           -1.00779994710475        1.14031653348909        2.86587007972275
H           -0.61737047524328       -0.07287380960804        4.09461023467505
H            1.88723426799225       -0.96080518119075       -1.03614790799811
H            0.58167908284826       -1.32480861707094       -2.16855291576688
H            2.17774306997503       -2.35477660038251        1.04052796207462
H            1.96166003928080       -4.58460035611007        2.00536289159324
H            0.43596130236531       -6.24638398396361        0.99088826182466
H           -0.86756661661080       -5.63935547432052       -1.01550861330792
H           -0.65405573651990       -3.39447885794744       -1.99110287029329
H           -2.47759842560542        1.43726801142867       -1.70493913499401
H           -6.79889546067872        2.33203409768607        1.53170941398377
H           -5.59352973765220        3.05401905353578        0.41383770129111
H           -2.96970983292789        3.18757621758227        1.44271042329519
H           -3.56353447373402        3.18034961442844        5.53822061498466
