----- Optimization -----
      -----------------------------------------------------------      
     |                   =====================                   |     
     |                           x T B                           |     
     |                   =====================                   |     
     |                         S. Grimme                         |     
     |          Mulliken Center for Theoretical Chemistry        |     
     |                    University of Bonn                     |     
      -----------------------------------------------------------      

   * xtb version 6.7.1 (edcfbbe) compiled by 'conda@3ef47c1a292c' on 2024-11-25

   xtb is free software: you can redistribute it and/or modify it under
   the terms of the GNU Lesser General Public License as published by
   the Free Software Foundation, either version 3 of the License, or
   (at your option) any later version.
   
   xtb is distributed in the hope that it will be useful,
   but WITHOUT ANY WARRANTY; without even the implied warranty of
   MERCHANTABILITY or FITNESS FOR A PARTICULAR PURPOSE.  See the
   GNU Lesser General Public License for more details.
   
   Cite this work as:
   * C. Bannwarth, E. Caldeweyher, S. Ehlert, A. Hansen, P. Pracht,
     J. Seibert, S. Spicher, S. Grimme, WIREs Comput. Mol. Sci., 2020, 11,
     e01493. DOI: 10.1002/wcms.1493
   
   for GFN2-xTB:
   * C. Bannwarth, S. Ehlert and S. Grimme., J. Chem. Theory Comput., 2019,
     15, 1652-1671. DOI: 10.1021/acs.jctc.8b01176
   for GFN1-xTB:
   * S. Grimme, C. Bannwarth, P. Shushkov, J. Chem. Theory Comput., 2017,
     13, 1989-2009. DOI: 10.1021/acs.jctc.7b00118
   for GFN0-xTB:
   * P. Pracht, E. Caldeweyher, S. Ehlert, S. Grimme, ChemRxiv, 2019, preprint.
     DOI: 10.26434/chemrxiv.8326202.v1
   for GFN-FF:
   * S. Spicher and S. Grimme, Angew. Chem. Int. Ed., 2020, 59, 15665-15673.
     DOI: 10.1002/anie.202004239
   
   for ALPB and GBSA implicit solvation:
   * S. Ehlert, M. Stahn, S. Spicher, S. Grimme, J. Chem. Theory Comput.,
     2021, 17, 4250-4261. DOI: 10.1021/acs.jctc.1c00471
   
   for ddCOSMO and CPCM-X implicit solvation:
   * M. Stahn, S. Ehlert, S. Grimme, J. Phys. Chem. A,
     2023, XX, XXXX-XXXX. DOI: 10.1021/acs.jpca.3c04382
   
   for DFT-D4:
   * E. Caldeweyher, C. Bannwarth and S. Grimme, J. Chem. Phys., 2017,
     147, 034112. DOI: 10.1063/1.4993215
   * E. Caldeweyher, S. Ehlert, A. Hansen, H. Neugebauer, S. Spicher,
     C. Bannwarth and S. Grimme, J. Chem. Phys., 2019, 150, 154122.
     DOI: 10.1063/1.5090222
   * E. Caldeweyher, J.-M. Mewes, S. Ehlert and S. Grimme, Phys. Chem. Chem. Phys.
     2020, 22, 8499-8512. DOI: 10.1039/D0CP00502A
   
   for sTDA-xTB:
   * S. Grimme and C. Bannwarth, J. Chem. Phys., 2016, 145, 054103.
     DOI: 10.1063/1.4959605
   
   in the mass-spec context:
   * V. Asgeirsson, C. Bauer and S. Grimme, Chem. Sci., 2017, 8, 4879.
     DOI: 10.1039/c7sc00601b
   * J. Koopman and S. Grimme, ACS Omega 2019, 4, 12, 15120-15133.
     DOI: 10.1021/acsomega.9b02011
   
   for metadynamics refer to:
   * S. Grimme, J. Chem. Theory Comput., 2019, 155, 2847-2862
     DOI: 10.1021/acs.jctc.9b00143
   
   for SPH calculations refer to:
   * S. Spicher and S. Grimme, J. Chem. Theory Comput., 2021, 17, 1701-1714
     DOI: 10.1021/acs.jctc.0c01306
   
   for ONIOM refer to:
   * C. Plett, A. Katbashev, S. Ehlert, S. Grimme, M. Bursch,
     Phys. Chem. Chem. Phys., 2023, 25, 17860-17868. DOI: 10.1039/D3CP02178E
   
   for DIPRO refer to:
   * J. Kohn, N. Gildemeister, S. Grimme, D. Fazzi, A. Hansen,
     J. Chem. Phys., 2023, just accepted.
   
   for PTB refer to:
   * S. Grimme, M. Mueller, A. Hansen, J. Chem. Phys., 2023, 158, 124111.
     DOI: 10.1063/5.0137838
   
   with help from (in alphabetical order)
   P. Atkinson, C. Bannwarth, F. Bohle, G. Brandenburg, E. Caldeweyher
   M. Checinski, S. Dohm, S. Ehlert, S. Ehrlich, I. Gerasimov, C. Hölzer
   A. Katbashev, J. Kohn, J. Koopman, C. Lavigne, S. Lehtola, F. März, M. Müller,
   F. Musil, H. Neugebauer, J. Pisarek, C. Plett, P. Pracht, F. Pultar,
   J. Seibert, P. Shushkov, S. Spicher, M. Stahn, M. Steiner, T. Strunk,
   J. Stückrath, T. Rose, and J. Unsleber
   
 * started run on 2025/05/15 at 16:34:30.841     
   ID    Z sym.   atoms
    1    8 O      1, 31, 35, 43, 44
    2    6 C      2, 4-14, 16, 17, 19, 21-24, 26-29, 32-34, 36-42, 45-47, 49
    3    7 N      3, 15, 18, 20, 30, 48
    4   16 S      25, 50
    5    1 H      51-98

           -------------------------------------------------
          |                Calculation Setup                |
           -------------------------------------------------

          program call               : xtb /rds/general/user/hgt20/home/callum/QDESCP/Ritonavir_rdkit_conf_12/Ritonavir_rdkit_conf_12.xyz --opt normal --acc 1 --gfn 2 --chrg 0 --uhf 0 -P 1
          hostname                   : login-c
          coordinate file            : /rds/general/user/hgt20/home/callum/QDESCP/Ritonavir_rdkit_conf_12/Ritonavir_rdkit_conf_12.xyz
          omp threads                :                     1


           -------------------------------------------------
          |                 G F N 2 - x T B                 |
           -------------------------------------------------

        Reference                      10.1021/acs.jctc.8b01176
      * Hamiltonian:
        H0-scaling (s, p, d)           1.850000    2.230000    2.230000
        zeta-weighting                 0.500000
      * Dispersion:
        s8                             2.700000
        a1                             0.520000
        a2                             5.000000
        s9                             5.000000
      * Repulsion:
        kExp                           1.500000    1.000000
        rExp                           1.000000
      * Coulomb:
        alpha                          2.000000
        third order                    shell-resolved
        anisotropic                    true
        a3                             3.000000
        a5                             4.000000
        cn-shift                       1.200000
        cn-exp                         4.000000
        max-rad                        5.000000


          ...................................................
          :                      SETUP                      :
          :.................................................:
          :  # basis functions                 260          :
          :  # atomic orbitals                 258          :
          :  # shells                          150          :
          :  # electrons                       268          :
          :  max. iterations                   250          :
          :  Hamiltonian                  GFN2-xTB          :
          :  restarted?                      false          :
          :  GBSA solvation                  false          :
          :  PC potential                    false          :
          :  electronic temp.          300.0000000     K    :
          :  accuracy                    1.0000000          :
          :  -> integral cutoff          0.2500000E+02      :
          :  -> integral neglect         0.1000000E-07      :
          :  -> SCF convergence          0.1000000E-05 Eh   :
          :  -> wf. convergence          0.1000000E-03 e    :
          :  Broyden damping             0.4000000          :
          :  net charge                          0          :
          :  unpaired electrons                  0          :
          ...................................................

 iter      E             dE          RMSdq      gap      omega  full diag
   1   -149.8152898 -0.149815E+03  0.395E+00    2.85       0.0  T
   2   -150.0284051 -0.213115E+00  0.222E+00    2.93       1.0  T
   3   -150.0269120  0.149309E-02  0.988E-01    2.68       1.0  T
   4   -150.0305717 -0.365972E-02  0.427E-01    2.34       1.0  T
   5   -150.0431355 -0.125638E-01  0.131E-01    2.36       1.0  T
   6   -150.0437087 -0.573170E-03  0.593E-02    2.38       1.0  T
   7   -150.0437939 -0.852225E-04  0.273E-02    2.37       1.0  T
   8   -150.0438195 -0.256199E-04  0.111E-02    2.38       1.0  T
   9   -150.0438220 -0.243945E-05  0.434E-03    2.38       2.3  T
  10   -150.0438223 -0.327581E-06  0.171E-03    2.38       5.9  T
  11   -150.0438223 -0.675568E-07  0.851E-04    2.38      11.9  T
  12   -150.0438224 -0.209428E-07  0.421E-04    2.38      24.0  T

   *** convergence criteria satisfied after 12 iterations ***

         #    Occupation            Energy/Eh            Energy/eV
      -------------------------------------------------------------
         1        2.0000           -0.7621586             -20.7394
       ...           ...                  ...                  ...
       128        2.0000           -0.3952278             -10.7547
       129        2.0000           -0.3914511             -10.6519
       130        2.0000           -0.3860968             -10.5062
       131        2.0000           -0.3850576             -10.4779
       132        2.0000           -0.3830698             -10.4239
       133        2.0000           -0.3764783             -10.2445
       134        2.0000           -0.3661937              -9.9646 (HOMO)
       135                         -0.2788041              -7.5866 (LUMO)
       136                         -0.2477354              -6.7412
       137                         -0.2341515              -6.3716
       138                         -0.2334215              -6.3517
       139                         -0.2240964              -6.0980
       ...                                ...                  ...
       258                          0.6395821              17.4039
      -------------------------------------------------------------
                  HL-Gap            0.0873896 Eh            2.3780 eV
             Fermi-level           -0.3224989 Eh           -8.7756 eV

 SCC (total)                   0 d,  0 h,  0 min,  0.452 sec
 SCC setup                      ...        0 min,  0.001 sec (  0.331%)
 Dispersion                     ...        0 min,  0.018 sec (  4.058%)
 classical contributions        ...        0 min,  0.001 sec (  0.165%)
 integral evaluation            ...        0 min,  0.028 sec (  6.235%)
 iterations                     ...        0 min,  0.210 sec ( 46.455%)
 molecular gradient             ...        0 min,  0.192 sec ( 42.507%)
 printout                       ...        0 min,  0.001 sec (  0.247%)

         :::::::::::::::::::::::::::::::::::::::::::::::::::::
         ::                     SUMMARY                     ::
         :::::::::::::::::::::::::::::::::::::::::::::::::::::
         :: total energy            -148.165865332561 Eh    ::
         :: gradient norm              0.116285767467 Eh/a0 ::
         :: HOMO-LUMO gap              2.377993258998 eV    ::
         ::.................................................::
         :: SCC energy              -150.040523620491 Eh    ::
         :: -> isotropic ES            0.193463171708 Eh    ::
         :: -> anisotropic ES          0.011236655498 Eh    ::
         :: -> anisotropic XC          0.066090664482 Eh    ::
         :: -> dispersion             -0.114847611224 Eh    ::
         :: repulsion energy           1.874658287930 Eh    ::
         :: add. restraining           0.000000000000 Eh    ::
         :: total charge               0.000000000000 e     ::
         :::::::::::::::::::::::::::::::::::::::::::::::::::::

      ----------------------------------------------------------- 
     |                   =====================                   |
     |                        A N C O P T                        |
     |                   =====================                   |
     |               Approximate Normal Coordinate               |
     |                Rational Function Optimizer                |
      ----------------------------------------------------------- 
      ----------------------------------------------------------- 
     |                   =====================                   |
     |                        A N C O P T                        |
     |                   =====================                   |
     |               Approximate Normal Coordinate               |
     |                Rational Function Optimizer                |
      ----------------------------------------------------------- 

          ...................................................
          :                      SETUP                      :
          :.................................................:
          :   optimization level            normal          :
          :   max. optcycles                   294          :
          :   ANC micro-cycles                  20          :
          :   degrees of freedom               288          :
          :.................................................:
          :   RF solver                   davidson          :
          :   write xtbopt.log                true          :
          :   linear?                        false          :
          :   energy convergence         0.5000000E-05 Eh   :
          :   grad. convergence          0.1000000E-02 Eh/α :
          :   maxmium RF displ.          1.0000000          :
          :   Hlow (freq-cutoff)         0.1000000E-01      :
          :   Hmax (freq-cutoff)         5.0000000          :
          :   S6 in model hess.         20.0000000          :
          ...................................................

generating ANC from exact Hessian ...
Using Lindh-Hessian (1995)
 Shifting diagonal of input Hessian by    9.9774611154438472E-003
 Lowest  eigenvalues of input Hessian
    0.000000    0.000000    0.000000    0.000000    0.000000    0.000000
    0.010000    0.010013    0.010063    0.010138    0.010152    0.010263
    0.010336    0.010378    0.010403    0.010482    0.010541    0.010714
 Highest eigenvalues
    1.945767    2.026815    2.092079    2.192371    2.361450    2.472203


........................................................................
.............................. CYCLE    1 ..............................
........................................................................

 iter      E             dE          RMSdq      gap      omega  full diag
   1   -150.0438224 -0.150044E+03  0.174E-04    2.38       0.0  T
   2   -150.0438224 -0.232916E-09  0.133E-04    2.38      75.8  T
   3   -150.0438224 -0.118544E-08  0.685E-05    2.38     147.5  T
     SCC iter.                  ...        0 min,  0.059 sec
     gradient                   ...        0 min,  0.211 sec
 * total energy  :  -148.1658653 Eh     change       -0.5379093E-08 Eh
   gradient norm :     0.1162914 Eh/α   predicted     0.0000000E+00 (-100.00%)
   displ. norm   :     0.3397141 α      lambda       -0.2200660E-01
   maximum displ.:     0.0766499 α      in ANC's #75, #154, #26, ...

........................................................................
.............................. CYCLE    2 ..............................
........................................................................

 iter      E             dE          RMSdq      gap      omega  full diag
   1   -150.1387199 -0.150139E+03  0.162E-01    2.41       0.0  T
   2   -150.1389819 -0.261968E-03  0.100E-01    2.42       1.0  T
   3   -150.1389539  0.280195E-04  0.600E-02    2.43       1.0  T
   4   -150.1390719 -0.118072E-03  0.247E-02    2.44       1.0  T
   5   -150.1391052 -0.332744E-04  0.558E-03    2.44       1.8  T
   6   -150.1391057 -0.522101E-06  0.284E-03    2.43       3.6  T
   7   -150.1391060 -0.265189E-06  0.110E-03    2.43       9.1  T
   8   -150.1391060 -0.223978E-07  0.506E-04    2.43      20.0  T
   9   -150.1391060 -0.395102E-08  0.198E-04    2.43      51.0  T
     SCC iter.                  ...        0 min,  0.167 sec
     gradient                   ...        0 min,  0.188 sec
 * total energy  :  -148.1807761 Eh     change       -0.1491075E-01 Eh
   gradient norm :     0.0473382 Eh/α   predicted    -0.1228148E-01 ( -17.63%)
   displ. norm   :     0.3325752 α      lambda       -0.6095383E-02
   maximum displ.:     0.1075356 α      in ANC's #26, #27, #29, ...

........................................................................
.............................. CYCLE    3 ..............................
........................................................................

 iter      E             dE          RMSdq      gap      omega  full diag
   1   -150.1828741 -0.150183E+03  0.102E-01    2.43       0.0  T
   2   -150.1830517 -0.177627E-03  0.637E-02    2.44       1.0  T
   3   -150.1830740 -0.222132E-04  0.367E-02    2.44       1.0  T
   4   -150.1830948 -0.208265E-04  0.194E-02    2.45       1.0  T
   5   -150.1831147 -0.198660E-04  0.363E-03    2.45       2.8  T
   6   -150.1831150 -0.351908E-06  0.186E-03    2.45       5.4  T
   7   -150.1831151 -0.120668E-06  0.677E-04    2.45      14.9  T
   8   -150.1831151 -0.516050E-08  0.310E-04    2.45      32.5  T
     SCC iter.                  ...        0 min,  0.172 sec
     gradient                   ...        0 min,  0.225 sec
 * total energy  :  -148.1845142 Eh     change       -0.3738100E-02 Eh
   gradient norm :     0.0160142 Eh/α   predicted    -0.3388123E-02 (  -9.36%)
   displ. norm   :     0.2873179 α      lambda       -0.1440186E-02
   maximum displ.:     0.1015377 α      in ANC's #26, #27, #29, ...

........................................................................
.............................. CYCLE    4 ..............................
........................................................................

 iter      E             dE          RMSdq      gap      omega  full diag
   1   -150.1886359 -0.150189E+03  0.524E-02    2.43       0.0  T
   2   -150.1886713 -0.354267E-04  0.307E-02    2.44       1.0  T
   3   -150.1886693  0.202796E-05  0.162E-02    2.44       1.0  T
   4   -150.1886739 -0.456609E-05  0.790E-03    2.45       1.3  T
   5   -150.1886782 -0.438474E-05  0.150E-03    2.45       6.7  T
   6   -150.1886783 -0.682998E-07  0.797E-04    2.45      12.7  T
   7   -150.1886783 -0.223596E-07  0.288E-04    2.45      35.1  T
     SCC iter.                  ...        0 min,  0.127 sec
     gradient                   ...        0 min,  0.274 sec
 * total energy  :  -148.1855764 Eh     change       -0.1062207E-02 Eh
   gradient norm :     0.0094516 Eh/α   predicted    -0.7795549E-03 ( -26.61%)
   displ. norm   :     0.3663998 α      lambda       -0.1066105E-02
   maximum displ.:     0.1256652 α      in ANC's #7, #27, #26, ...

........................................................................
.............................. CYCLE    5 ..............................
........................................................................

 iter      E             dE          RMSdq      gap      omega  full diag
   1   -150.1883401 -0.150188E+03  0.537E-02    2.43       0.0  T
   2   -150.1883643 -0.242073E-04  0.312E-02    2.43       1.0  T
   3   -150.1883627  0.164160E-05  0.124E-02    2.44       1.0  T
   4   -150.1883658 -0.313549E-05  0.435E-03    2.44       2.3  T
   5   -150.1883673 -0.149922E-05  0.121E-03    2.44       8.3  T
   6   -150.1883673 -0.922074E-08  0.719E-04    2.44      14.1  T
   7   -150.1883673 -0.224665E-07  0.307E-04    2.44      32.9  T
     SCC iter.                  ...        0 min,  0.173 sec
     gradient                   ...        0 min,  0.215 sec
 * total energy  :  -148.1863005 Eh     change       -0.7240794E-03 Eh
   gradient norm :     0.0078167 Eh/α   predicted    -0.6046166E-03 ( -16.50%)
   displ. norm   :     0.2943683 α      lambda       -0.4735205E-03
   maximum displ.:     0.1286231 α      in ANC's #7, #18, #27, ...

........................................................................
.............................. CYCLE    6 ..............................
........................................................................

 iter      E             dE          RMSdq      gap      omega  full diag
   1   -150.1875689 -0.150188E+03  0.367E-02    2.43       0.0  T
   2   -150.1875732 -0.425037E-05  0.215E-02    2.44       1.0  T
   3   -150.1875707  0.244358E-05  0.717E-03    2.44       1.4  T
   4   -150.1875735 -0.282682E-05  0.257E-03    2.44       3.9  T
   5   -150.1875740 -0.478767E-06  0.862E-04    2.44      11.7  T
   6   -150.1875740 -0.133816E-07  0.463E-04    2.44      21.8  T
     SCC iter.                  ...        0 min,  0.104 sec
     gradient                   ...        0 min,  0.223 sec
 * total energy  :  -148.1866480 Eh     change       -0.3475470E-03 Eh
   gradient norm :     0.0075148 Eh/α   predicted    -0.2572976E-03 ( -25.97%)
   displ. norm   :     0.3247238 α      lambda       -0.4028661E-03
   maximum displ.:     0.1599718 α      in ANC's #7, #18, #22, ...

........................................................................
.............................. CYCLE    7 ..............................
........................................................................

 iter      E             dE          RMSdq      gap      omega  full diag
   1   -150.1874918 -0.150187E+03  0.384E-02    2.44       0.0  T
   2   -150.1874943 -0.245597E-05  0.225E-02    2.45       1.0  T
   3   -150.1874899  0.442696E-05  0.812E-03    2.44       1.2  T
   4   -150.1874949 -0.503703E-05  0.205E-03    2.44       4.9  T
   5   -150.1874952 -0.253220E-06  0.788E-04    2.45      12.8  T
   6   -150.1874952 -0.694504E-08  0.392E-04    2.45      25.8  T
     SCC iter.                  ...        0 min,  0.109 sec
     gradient                   ...        0 min,  0.276 sec
 * total energy  :  -148.1869585 Eh     change       -0.3105084E-03 Eh
   gradient norm :     0.0066257 Eh/α   predicted    -0.2226735E-03 ( -28.29%)
   displ. norm   :     0.3813527 α      lambda       -0.4133753E-03
   maximum displ.:     0.1992386 α      in ANC's #7, #18, #21, ...

........................................................................
.............................. CYCLE    8 ..............................
........................................................................

 iter      E             dE          RMSdq      gap      omega  full diag
   1   -150.1878232 -0.150188E+03  0.481E-02    2.45       0.0  T
   2   -150.1878267 -0.348446E-05  0.281E-02    2.45       1.0  T
   3   -150.1878223  0.437840E-05  0.804E-03    2.45       1.3  T
   4   -150.1878273 -0.494987E-05  0.252E-03    2.45       4.0  T
   5   -150.1878277 -0.413906E-06  0.893E-04    2.45      11.3  T
   6   -150.1878277 -0.798059E-08  0.462E-04    2.45      21.9  T
     SCC iter.                  ...        0 min,  0.159 sec
     gradient                   ...        0 min,  0.237 sec
 * total energy  :  -148.1872815 Eh     change       -0.3230163E-03 Eh
   gradient norm :     0.0063076 Eh/α   predicted    -0.2367472E-03 ( -26.71%)
   displ. norm   :     0.4132242 α      lambda       -0.4018391E-03
   maximum displ.:     0.2256698 α      in ANC's #7, #18, #11, ...

........................................................................
.............................. CYCLE    9 ..............................
........................................................................

 iter      E             dE          RMSdq      gap      omega  full diag
   1   -150.1886158 -0.150189E+03  0.548E-02    2.46       0.0  T
   2   -150.1886196 -0.384380E-05  0.319E-02    2.46       1.0  T
   3   -150.1886180  0.164165E-05  0.556E-03    2.46       1.8  T
   4   -150.1886202 -0.216729E-05  0.197E-03    2.46       5.1  T
   5   -150.1886204 -0.271576E-06  0.829E-04    2.46      12.2  T
   6   -150.1886204 -0.575383E-08  0.365E-04    2.46      27.7  T
     SCC iter.                  ...        0 min,  0.133 sec
     gradient                   ...        0 min,  0.280 sec
 * total energy  :  -148.1875942 Eh     change       -0.3126013E-03 Eh
   gradient norm :     0.0063743 Eh/α   predicted    -0.2352302E-03 ( -24.75%)
   displ. norm   :     0.4042222 α      lambda       -0.3443854E-03
   maximum displ.:     0.2311754 α      in ANC's #7, #11, #18, ...

........................................................................
.............................. CYCLE   10 ..............................
........................................................................

 iter      E             dE          RMSdq      gap      omega  full diag
   1   -150.1897823 -0.150190E+03  0.548E-02    2.46       0.0  T
   2   -150.1897854 -0.307237E-05  0.319E-02    2.46       1.0  T
   3   -150.1897823  0.311452E-05  0.718E-03    2.46       1.4  T
   4   -150.1897860 -0.372091E-05  0.224E-03    2.46       4.5  T
   5   -150.1897863 -0.298081E-06  0.952E-04    2.46      10.6  T
   6   -150.1897863 -0.152686E-07  0.498E-04    2.46      20.3  T
     SCC iter.                  ...        0 min,  0.126 sec
     gradient                   ...        0 min,  0.282 sec
 * total energy  :  -148.1878576 Eh     change       -0.2634715E-03 Eh
   gradient norm :     0.0056746 Eh/α   predicted    -0.2003284E-03 ( -23.97%)
   displ. norm   :     0.3760757 α      lambda       -0.2575798E-03
   maximum displ.:     0.2242439 α      in ANC's #7, #11, #18, ...

........................................................................
.............................. CYCLE   11 ..............................
........................................................................

 iter      E             dE          RMSdq      gap      omega  full diag
   1   -150.1905297 -0.150191E+03  0.470E-02    2.46       0.0  T
   2   -150.1905314 -0.176843E-05  0.276E-02    2.46       1.0  T
   3   -150.1905244  0.707042E-05  0.988E-03    2.46       1.0  T
   4   -150.1905324 -0.806554E-05  0.175E-03    2.46       5.8  T
   5   -150.1905326 -0.124348E-06  0.832E-04    2.46      12.1  T
   6   -150.1905326 -0.141449E-07  0.391E-04    2.46      25.8  T
     SCC iter.                  ...        0 min,  0.127 sec
     gradient                   ...        0 min,  0.292 sec
 * total energy  :  -148.1880566 Eh     change       -0.1989411E-03 Eh
   gradient norm :     0.0045121 Eh/α   predicted    -0.1470093E-03 ( -26.10%)
   displ. norm   :     0.3508206 α      lambda       -0.2104802E-03
   maximum displ.:     0.2144306 α      in ANC's #7, #11, #12, ...

........................................................................
.............................. CYCLE   12 ..............................
........................................................................

 iter      E             dE          RMSdq      gap      omega  full diag
   1   -150.1914461 -0.150191E+03  0.400E-02    2.46       0.0  T
   2   -150.1914475 -0.142485E-05  0.235E-02    2.46       1.0  T
   3   -150.1914412  0.626705E-05  0.915E-03    2.46       1.1  T
   4   -150.1914484 -0.713980E-05  0.154E-03    2.46       6.5  T
   5   -150.1914485 -0.101932E-06  0.695E-04    2.46      14.5  T
   6   -150.1914485 -0.670741E-08  0.332E-04    2.46      30.4  T
     SCC iter.                  ...        0 min,  0.125 sec
     gradient                   ...        0 min,  0.284 sec
 * total energy  :  -148.1882224 Eh     change       -0.1658643E-03 Eh
   gradient norm :     0.0043914 Eh/α   predicted    -0.1181933E-03 ( -28.74%)
   displ. norm   :     0.3854159 α      lambda       -0.2021666E-03
   maximum displ.:     0.2342598 α      in ANC's #7, #11, #12, ...

........................................................................
.............................. CYCLE   13 ..............................
........................................................................

 iter      E             dE          RMSdq      gap      omega  full diag
   1   -150.1906512 -0.150191E+03  0.404E-02    2.46       0.0  T
   2   -150.1906540 -0.279947E-05  0.235E-02    2.46       1.0  T
   3   -150.1906489  0.506236E-05  0.861E-03    2.46       1.2  T
   4   -150.1906545 -0.562218E-05  0.242E-03    2.46       4.2  T
   5   -150.1906549 -0.394715E-06  0.686E-04    2.46      14.7  T
   6   -150.1906549 -0.153645E-08  0.367E-04    2.46      27.5  T
     SCC iter.                  ...        0 min,  0.155 sec
     gradient                   ...        0 min,  0.221 sec
 * total energy  :  -148.1883826 Eh     change       -0.1601681E-03 Eh
   gradient norm :     0.0046936 Eh/α   predicted    -0.1161020E-03 ( -27.51%)
   displ. norm   :     0.4076443 α      lambda       -0.2306728E-03
   maximum displ.:     0.2416356 α      in ANC's #7, #22, #11, ...

........................................................................
.............................. CYCLE   14 ..............................
........................................................................

 iter      E             dE          RMSdq      gap      omega  full diag
   1   -150.1926233 -0.150193E+03  0.430E-02    2.45       0.0  T
   2   -150.1926272 -0.392204E-05  0.250E-02    2.45       1.0  T
   3   -150.1926225  0.476773E-05  0.846E-03    2.45       1.2  T
   4   -150.1926278 -0.530209E-05  0.279E-03    2.45       3.6  T
   5   -150.1926283 -0.563898E-06  0.813E-04    2.45      12.4  T
   6   -150.1926283 -0.763200E-08  0.448E-04    2.45      22.6  T
     SCC iter.                  ...        0 min,  0.116 sec
     gradient                   ...        0 min,  0.215 sec
 * total energy  :  -148.1885366 Eh     change       -0.1540326E-03 Eh
   gradient norm :     0.0057009 Eh/α   predicted    -0.1345031E-03 ( -12.68%)
   displ. norm   :     0.4482406 α      lambda       -0.2096163E-03
   maximum displ.:     0.2652898 α      in ANC's #7, #11, #12, ...

........................................................................
.............................. CYCLE   15 ..............................
........................................................................

 iter      E             dE          RMSdq      gap      omega  full diag
   1   -150.1888294 -0.150189E+03  0.473E-02    2.45       0.0  T
   2   -150.1888333 -0.391462E-05  0.274E-02    2.45       1.0  T
   3   -150.1888308  0.250668E-05  0.663E-03    2.45       1.5  T
   4   -150.1888335 -0.275271E-05  0.276E-03    2.45       3.7  T
   5   -150.1888341 -0.549313E-06  0.847E-04    2.45      11.9  T
   6   -150.1888341 -0.102594E-08  0.405E-04    2.45      24.9  T
     SCC iter.                  ...        0 min,  0.116 sec
     gradient                   ...        0 min,  0.277 sec
 * total energy  :  -148.1886532 Eh     change       -0.1165961E-03 Eh
   gradient norm :     0.0059835 Eh/α   predicted    -0.1258662E-03 (   7.95%)
   displ. norm   :     0.2091581 α      lambda       -0.1365526E-03
   maximum displ.:     0.1149681 α      in ANC's #7, #22, #11, ...

........................................................................
.............................. CYCLE   16 ..............................
........................................................................

 iter      E             dE          RMSdq      gap      omega  full diag
   1   -150.1901814 -0.150190E+03  0.240E-02    2.45       0.0  T
   2   -150.1901829 -0.149240E-05  0.139E-02    2.45       1.0  T
   3   -150.1901823  0.626479E-06  0.376E-03    2.45       2.7  T
   4   -150.1901832 -0.852402E-06  0.120E-03    2.45       8.4  T
   5   -150.1901832 -0.858849E-07  0.543E-04    2.45      18.6  T
   6   -150.1901833 -0.481498E-08  0.286E-04    2.45      35.3  T
     SCC iter.                  ...        0 min,  0.155 sec
     gradient                   ...        0 min,  0.226 sec
 * total energy  :  -148.1887536 Eh     change       -0.1004193E-03 Eh
   gradient norm :     0.0041163 Eh/α   predicted    -0.7126559E-04 ( -29.03%)
   displ. norm   :     0.2822342 α      lambda       -0.1479069E-03
   maximum displ.:     0.1478571 α      in ANC's #7, #11, #22, ...

........................................................................
.............................. CYCLE   17 ..............................
........................................................................

 iter      E             dE          RMSdq      gap      omega  full diag
   1   -150.1923351 -0.150192E+03  0.354E-02    2.46       0.0  T
   2   -150.1923372 -0.202383E-05  0.206E-02    2.46       1.0  T
   3   -150.1923351  0.207153E-05  0.588E-03    2.46       1.7  T
   4   -150.1923376 -0.255133E-05  0.183E-03    2.46       5.5  T
   5   -150.1923378 -0.190303E-06  0.795E-04    2.46      12.7  T
   6   -150.1923378 -0.735744E-08  0.429E-04    2.46      23.5  T
     SCC iter.                  ...        0 min,  0.123 sec
     gradient                   ...        0 min,  0.214 sec
 * total energy  :  -148.1888569 Eh     change       -0.1032667E-03 Eh
   gradient norm :     0.0036368 Eh/α   predicted    -0.7984653E-04 ( -22.68%)
   displ. norm   :     0.2926047 α      lambda       -0.9935970E-04
   maximum displ.:     0.1577815 α      in ANC's #7, #11, #12, ...

........................................................................
.............................. CYCLE   18 ..............................
........................................................................

 iter      E             dE          RMSdq      gap      omega  full diag
   1   -150.1919798 -0.150192E+03  0.347E-02    2.46       0.0  T
   2   -150.1919817 -0.186495E-05  0.201E-02    2.45       1.0  T
   3   -150.1919806  0.106063E-05  0.456E-03    2.45       2.2  T
   4   -150.1919820 -0.138877E-05  0.161E-03    2.45       6.3  T
   5   -150.1919822 -0.154283E-06  0.711E-04    2.45      14.2  T
   6   -150.1919822 -0.506611E-08  0.356E-04    2.45      28.4  T
     SCC iter.                  ...        0 min,  0.151 sec
     gradient                   ...        0 min,  0.214 sec
 * total energy  :  -148.1889326 Eh     change       -0.7570527E-04 Eh
   gradient norm :     0.0039137 Eh/α   predicted    -0.5393445E-04 ( -28.76%)
   displ. norm   :     0.2786380 α      lambda       -0.9874123E-04
   maximum displ.:     0.1376228 α      in ANC's #7, #11, #2, ...

........................................................................
.............................. CYCLE   19 ..............................
........................................................................

 iter      E             dE          RMSdq      gap      omega  full diag
   1   -150.1926100 -0.150193E+03  0.355E-02    2.45       0.0  T
   2   -150.1926121 -0.212040E-05  0.206E-02    2.45       1.0  T
   3   -150.1926112  0.952209E-06  0.443E-03    2.45       2.3  T
   4   -150.1926125 -0.131548E-05  0.146E-03    2.45       6.9  T
   5   -150.1926126 -0.128695E-06  0.693E-04    2.45      14.6  T
   6   -150.1926126 -0.352605E-08  0.368E-04    2.45      27.5  T
     SCC iter.                  ...        0 min,  0.110 sec
     gradient                   ...        0 min,  0.233 sec
 * total energy  :  -148.1890048 Eh     change       -0.7222384E-04 Eh
   gradient norm :     0.0034611 Eh/α   predicted    -0.5320500E-04 ( -26.33%)
   displ. norm   :     0.2620978 α      lambda       -0.6944392E-04
   maximum displ.:     0.1319721 α      in ANC's #7, #11, #2, ...

........................................................................
.............................. CYCLE   20 ..............................
........................................................................

 iter      E             dE          RMSdq      gap      omega  full diag
   1   -150.1918225 -0.150192E+03  0.320E-02    2.45       0.0  T
   2   -150.1918236 -0.113447E-05  0.187E-02    2.45       1.0  T
   3   -150.1918224  0.116446E-05  0.426E-03    2.45       2.4  T
   4   -150.1918238 -0.139054E-05  0.139E-03    2.45       7.3  T
   5   -150.1918239 -0.110921E-06  0.575E-04    2.45      17.6  T
   6   -150.1918239 -0.469606E-08  0.280E-04    2.45      36.1  T
     SCC iter.                  ...        0 min,  0.116 sec
     gradient                   ...        0 min,  0.266 sec
 * total energy  :  -148.1890559 Eh     change       -0.5109095E-04 Eh
   gradient norm :     0.0026746 Eh/α   predicted    -0.3710878E-04 ( -27.37%)
   displ. norm   :     0.1939419 α      lambda       -0.5146547E-04
   maximum displ.:     0.1026927 α      in ANC's #11, #7, #2, ...
 * RMSD in coord.:     0.5241712 α      energy gain  -0.2319060E-01 Eh

generating ANC from exact Hessian ...
Using Lindh-Hessian (1995)
 Shifting diagonal of input Hessian by    9.9793673267525897E-003
 Lowest  eigenvalues of input Hessian
    0.000000    0.000000    0.000000    0.000000    0.000000    0.000000
    0.010000    0.010011    0.010081    0.010153    0.010171    0.010284
    0.010358    0.010405    0.010459    0.010532    0.010670    0.010754
 Highest eigenvalues
    2.067133    2.079102    2.147528    2.328079    2.419242    2.527993


........................................................................
.............................. CYCLE   21 ..............................
........................................................................

 iter      E             dE          RMSdq      gap      omega  full diag
   1   -150.1927039 -0.150193E+03  0.235E-02    2.45       0.0  T
   2   -150.1927044 -0.550533E-06  0.137E-02    2.45       1.0  T
   3   -150.1927034  0.100295E-05  0.380E-03    2.45       2.7  T
   4   -150.1927046 -0.116760E-05  0.102E-03    2.45       9.9  T
   5   -150.1927047 -0.520753E-07  0.411E-04    2.45      24.6  T
   6   -150.1927047 -0.268315E-08  0.199E-04    2.45      50.6  T
     SCC iter.                  ...        0 min,  0.122 sec
     gradient                   ...        0 min,  0.212 sec
 * total energy  :  -148.1890931 Eh     change       -0.3721617E-04 Eh
   gradient norm :     0.0021847 Eh/α   predicted     0.0000000E+00 (-100.00%)
   displ. norm   :     0.0310582 α      lambda       -0.1753169E-04
   maximum displ.:     0.0134540 α      in ANC's #11, #8, #2, ...

........................................................................
.............................. CYCLE   22 ..............................
........................................................................

 iter      E             dE          RMSdq      gap      omega  full diag
   1   -150.1928764 -0.150193E+03  0.472E-03    2.45       0.0  T
   2   -150.1928765 -0.116596E-06  0.270E-03    2.45       3.7  T
   3   -150.1928765  0.156604E-07  0.906E-04    2.45      11.1  T
   4   -150.1928765 -0.216513E-07  0.354E-04    2.45      28.5  T
     SCC iter.                  ...        0 min,  0.093 sec
     gradient                   ...        0 min,  0.207 sec
 * total energy  :  -148.1891095 Eh     change       -0.1639260E-04 Eh
   gradient norm :     0.0012355 Eh/α   predicted    -0.9446252E-05 ( -42.37%)
   displ. norm   :     0.1926829 α      lambda       -0.5486910E-04
   maximum displ.:     0.0864848 α      in ANC's #11, #8, #2, ...

........................................................................
.............................. CYCLE   23 ..............................
........................................................................

 iter      E             dE          RMSdq      gap      omega  full diag
   1   -150.1928890 -0.150193E+03  0.253E-02    2.46       0.0  T
   2   -150.1928917 -0.266348E-05  0.145E-02    2.46       1.0  T
   3   -150.1928913  0.335919E-06  0.424E-03    2.46       2.4  T
   4   -150.1928919 -0.561264E-06  0.142E-03    2.46       7.1  T
   5   -150.1928920 -0.141259E-06  0.627E-04    2.46      16.1  T
   6   -150.1928920 -0.701004E-08  0.299E-04    2.46      33.8  T
     SCC iter.                  ...        0 min,  0.163 sec
     gradient                   ...        0 min,  0.219 sec
 * total energy  :  -148.1891476 Eh     change       -0.3810431E-04 Eh
   gradient norm :     0.0031226 Eh/α   predicted    -0.2788750E-04 ( -26.81%)
   displ. norm   :     0.0356035 α      lambda       -0.1440240E-04
   maximum displ.:     0.0172611 α      in ANC's #11, #2, #8, ...

........................................................................
.............................. CYCLE   24 ..............................
........................................................................

 iter      E             dE          RMSdq      gap      omega  full diag
   1   -150.1928486 -0.150193E+03  0.403E-03    2.46       0.0  T
   2   -150.1928487 -0.383277E-07  0.235E-03    2.46       4.3  T
   3   -150.1928487  0.191714E-07  0.628E-04    2.46      16.1  T
   4   -150.1928487 -0.221549E-07  0.247E-04    2.46      40.9  T
     SCC iter.                  ...        0 min,  0.086 sec
     gradient                   ...        0 min,  0.267 sec
 * total energy  :  -148.1891608 Eh     change       -0.1313146E-04 Eh
   gradient norm :     0.0023542 Eh/α   predicted    -0.7210472E-05 ( -45.09%)
   displ. norm   :     0.1705571 α      lambda       -0.5511658E-04
   maximum displ.:     0.0798249 α      in ANC's #11, #2, #8, ...

........................................................................
.............................. CYCLE   25 ..............................
........................................................................

 iter      E             dE          RMSdq      gap      omega  full diag
   1   -150.1925703 -0.150193E+03  0.179E-02    2.46       0.0  T
   2   -150.1925710 -0.663469E-06  0.104E-02    2.46       1.0  T
   3   -150.1925707  0.296255E-06  0.256E-03    2.46       3.9  T
   4   -150.1925711 -0.354316E-06  0.103E-03    2.46       9.8  T
   5   -150.1925711 -0.656770E-07  0.423E-04    2.46      23.9  T
   6   -150.1925711 -0.456993E-08  0.178E-04    2.46      56.8  T
     SCC iter.                  ...        0 min,  0.161 sec
     gradient                   ...        0 min,  0.221 sec
 * total energy  :  -148.1891980 Eh     change       -0.3727284E-04 Eh
   gradient norm :     0.0013955 Eh/α   predicted    -0.2839820E-04 ( -23.81%)
   displ. norm   :     0.2233644 α      lambda       -0.2318615E-04
   maximum displ.:     0.1034293 α      in ANC's #11, #2, #4, ...

........................................................................
.............................. CYCLE   26 ..............................
........................................................................

 iter      E             dE          RMSdq      gap      omega  full diag
   1   -150.1921516 -0.150192E+03  0.220E-02    2.46       0.0  T
   2   -150.1921521 -0.515808E-06  0.128E-02    2.46       1.0  T
   3   -150.1921518  0.302956E-06  0.237E-03    2.46       4.3  T
   4   -150.1921522 -0.414257E-06  0.918E-04    2.46      11.0  T
   5   -150.1921523 -0.350012E-07  0.411E-04    2.46      24.6  T
     SCC iter.                  ...        0 min,  0.098 sec
     gradient                   ...        0 min,  0.221 sec
 * total energy  :  -148.1892218 Eh     change       -0.2376040E-04 Eh
   gradient norm :     0.0027998 Eh/α   predicted    -0.1185024E-04 ( -50.13%)
   displ. norm   :     0.1265304 α      lambda       -0.2169260E-04
   maximum displ.:     0.0567790 α      in ANC's #11, #2, #4, ...

........................................................................
.............................. CYCLE   27 ..............................
........................................................................

 iter      E             dE          RMSdq      gap      omega  full diag
   1   -150.1922129 -0.150192E+03  0.116E-02    2.46       0.0  T
   2   -150.1922130 -0.155267E-06  0.673E-03    2.46       1.5  T
   3   -150.1922128  0.224805E-06  0.180E-03    2.46       5.6  T
   4   -150.1922131 -0.266932E-06  0.572E-04    2.46      17.7  T
   5   -150.1922131 -0.135663E-07  0.251E-04    2.46      40.3  T
     SCC iter.                  ...        0 min,  0.092 sec
     gradient                   ...        0 min,  0.210 sec
 * total energy  :  -148.1892414 Eh     change       -0.1957186E-04 Eh
   gradient norm :     0.0023259 Eh/α   predicted    -0.1102057E-04 ( -43.69%)
   displ. norm   :     0.2932758 α      lambda       -0.5267734E-04
   maximum displ.:     0.1342271 α      in ANC's #2, #11, #4, ...

........................................................................
.............................. CYCLE   28 ..............................
........................................................................

 iter      E             dE          RMSdq      gap      omega  full diag
   1   -150.1922349 -0.150192E+03  0.270E-02    2.45       0.0  T
   2   -150.1922359 -0.949572E-06  0.157E-02    2.45       1.0  T
   3   -150.1922341  0.180153E-05  0.507E-03    2.45       2.0  T
   4   -150.1922362 -0.208822E-05  0.139E-03    2.45       7.2  T
   5   -150.1922363 -0.883930E-07  0.573E-04    2.45      17.6  T
   6   -150.1922363 -0.608591E-08  0.235E-04    2.45      43.0  T
     SCC iter.                  ...        0 min,  0.169 sec
     gradient                   ...        0 min,  0.209 sec
 * total energy  :  -148.1892821 Eh     change       -0.4074857E-04 Eh
   gradient norm :     0.0012097 Eh/α   predicted    -0.2860470E-04 ( -29.80%)
   displ. norm   :     0.4563538 α      lambda       -0.3833969E-04
   maximum displ.:     0.2159497 α      in ANC's #2, #11, #4, ...

........................................................................
.............................. CYCLE   29 ..............................
........................................................................

 iter      E             dE          RMSdq      gap      omega  full diag
   1   -150.1917029 -0.150192E+03  0.405E-02    2.45       0.0  T
   2   -150.1917050 -0.203257E-05  0.235E-02    2.45       1.0  T
   3   -150.1917006  0.430716E-05  0.786E-03    2.45       1.3  T
   4   -150.1917056 -0.499084E-05  0.211E-03    2.45       4.8  T
   5   -150.1917058 -0.182991E-06  0.876E-04    2.45      11.5  T
   6   -150.1917058 -0.154438E-07  0.343E-04    2.45      29.5  T
     SCC iter.                  ...        0 min,  0.104 sec
     gradient                   ...        0 min,  0.195 sec
 * total energy  :  -148.1893189 Eh     change       -0.3681973E-04 Eh
   gradient norm :     0.0023597 Eh/α   predicted    -0.2094492E-04 ( -43.11%)
   displ. norm   :     0.1404156 α      lambda       -0.1951560E-04
   maximum displ.:     0.0712955 α      in ANC's #2, #4, #8, ...

........................................................................
.............................. CYCLE   30 ..............................
........................................................................

 iter      E             dE          RMSdq      gap      omega  full diag
   1   -150.1922272 -0.150192E+03  0.123E-02    2.45       0.0  T
   2   -150.1922274 -0.189627E-06  0.713E-03    2.45       1.4  T
   3   -150.1922272  0.177634E-06  0.173E-03    2.45       5.8  T
   4   -150.1922274 -0.216746E-06  0.620E-04    2.45      16.3  T
   5   -150.1922274 -0.195830E-07  0.272E-04    2.45      37.2  T
     SCC iter.                  ...        0 min,  0.086 sec
     gradient                   ...        0 min,  0.167 sec
 * total energy  :  -148.1893366 Eh     change       -0.1769233E-04 Eh
   gradient norm :     0.0020736 Eh/α   predicted    -0.9951042E-05 ( -43.76%)
   displ. norm   :     0.2598607 α      lambda       -0.4831820E-04
   maximum displ.:     0.1347187 α      in ANC's #2, #4, #8, ...

........................................................................
.............................. CYCLE   31 ..............................
........................................................................

 iter      E             dE          RMSdq      gap      omega  full diag
   1   -150.1933313 -0.150193E+03  0.225E-02    2.45       0.0  T
   2   -150.1933322 -0.935592E-06  0.130E-02    2.45       1.0  T
   3   -150.1933319  0.354728E-06  0.288E-03    2.45       3.5  T
   4   -150.1933324 -0.500926E-06  0.109E-03    2.45       9.3  T
   5   -150.1933324 -0.586182E-07  0.509E-04    2.45      19.8  T
   6   -150.1933325 -0.520112E-08  0.232E-04    2.45      43.6  T
     SCC iter.                  ...        0 min,  0.104 sec
     gradient                   ...        0 min,  0.221 sec
 * total energy  :  -148.1893755 Eh     change       -0.3889911E-04 Eh
   gradient norm :     0.0011187 Eh/α   predicted    -0.2579461E-04 ( -33.69%)
   displ. norm   :     0.4693102 α      lambda       -0.4241714E-04
   maximum displ.:     0.2459542 α      in ANC's #2, #4, #8, ...

........................................................................
.............................. CYCLE   32 ..............................
........................................................................

 iter      E             dE          RMSdq      gap      omega  full diag
   1   -150.1927179 -0.150193E+03  0.401E-02    2.45       0.0  T
   2   -150.1927205 -0.254440E-05  0.232E-02    2.45       1.0  T
   3   -150.1927197  0.793154E-06  0.451E-03    2.45       2.2  T
   4   -150.1927209 -0.122071E-05  0.179E-03    2.45       5.6  T
   5   -150.1927210 -0.147910E-06  0.882E-04    2.45      11.5  T
   6   -150.1927211 -0.188036E-07  0.383E-04    2.45      26.4  T
     SCC iter.                  ...        0 min,  0.099 sec
     gradient                   ...        0 min,  0.200 sec
 * total energy  :  -148.1894146 Eh     change       -0.3907670E-04 Eh
   gradient norm :     0.0017514 Eh/α   predicted    -0.2328988E-04 ( -40.40%)
   displ. norm   :     0.1791297 α      lambda       -0.1446992E-04
   maximum displ.:     0.0983641 α      in ANC's #2, #4, #8, ...

........................................................................
.............................. CYCLE   33 ..............................
........................................................................

 iter      E             dE          RMSdq      gap      omega  full diag
   1   -150.1930787 -0.150193E+03  0.130E-02    2.45       0.0  T
   2   -150.1930789 -0.161195E-06  0.755E-03    2.45       1.3  T
   3   -150.1930787  0.169415E-06  0.167E-03    2.45       6.1  T
   4   -150.1930790 -0.218628E-06  0.612E-04    2.45      16.5  T
   5   -150.1930790 -0.105181E-07  0.283E-04    2.45      35.7  T
     SCC iter.                  ...        0 min,  0.088 sec
     gradient                   ...        0 min,  0.201 sec
 * total energy  :  -148.1894336 Eh     change       -0.1896159E-04 Eh
   gradient norm :     0.0015264 Eh/α   predicted    -0.7339844E-05 ( -61.29%)
   displ. norm   :     0.2698735 α      lambda       -0.3141966E-04
   maximum displ.:     0.1491369 α      in ANC's #2, #4, #7, ...

........................................................................
.............................. CYCLE   34 ..............................
........................................................................

 iter      E             dE          RMSdq      gap      omega  full diag
   1   -150.1931915 -0.150193E+03  0.205E-02    2.45       0.0  T
   2   -150.1931920 -0.477175E-06  0.119E-02    2.45       1.0  T
   3   -150.1931916  0.424064E-06  0.247E-03    2.45       4.1  T
   4   -150.1931921 -0.561129E-06  0.803E-04    2.45      12.6  T
   5   -150.1931922 -0.243571E-07  0.426E-04    2.45      23.7  T
     SCC iter.                  ...        0 min,  0.099 sec
     gradient                   ...        0 min,  0.154 sec
 * total energy  :  -148.1894708 Eh     change       -0.3721983E-04 Eh
   gradient norm :     0.0010026 Eh/α   predicted    -0.1622337E-04 ( -56.41%)
   displ. norm   :     0.3529983 α      lambda       -0.3080260E-04
   maximum displ.:     0.1964957 α      in ANC's #2, #4, #7, ...

........................................................................
.............................. CYCLE   35 ..............................
........................................................................

 iter      E             dE          RMSdq      gap      omega  full diag
   1   -150.1922681 -0.150192E+03  0.264E-02    2.45       0.0  T
   2   -150.1922688 -0.688006E-06  0.154E-02    2.45       1.0  T
   3   -150.1922675  0.127852E-05  0.413E-03    2.45       2.4  T
   4   -150.1922691 -0.153058E-05  0.115E-03    2.45       8.8  T
   5   -150.1922691 -0.465527E-07  0.570E-04    2.45      17.7  T
   6   -150.1922691 -0.946417E-08  0.228E-04    2.45      44.4  T
     SCC iter.                  ...        0 min,  0.098 sec
     gradient                   ...        0 min,  0.194 sec
 * total energy  :  -148.1895048 Eh     change       -0.3395690E-04 Eh
   gradient norm :     0.0013574 Eh/α   predicted    -0.1625729E-04 ( -52.12%)
   displ. norm   :     0.3029127 α      lambda       -0.2162755E-04
   maximum displ.:     0.1709468 α      in ANC's #2, #4, #7, ...

........................................................................
.............................. CYCLE   36 ..............................
........................................................................

 iter      E             dE          RMSdq      gap      omega  full diag
   1   -150.1921961 -0.150192E+03  0.227E-02    2.46       0.0  T
   2   -150.1921965 -0.377802E-06  0.133E-02    2.46       1.0  T
   3   -150.1921956  0.890472E-06  0.342E-03    2.46       2.9  T
   4   -150.1921967 -0.106046E-05  0.852E-04    2.46      11.9  T
   5   -150.1921967 -0.195940E-07  0.447E-04    2.46      22.6  T
   6   -150.1921967 -0.720246E-08  0.162E-04    2.46      62.3  T
     SCC iter.                  ...        0 min,  0.111 sec
     gradient                   ...        0 min,  0.187 sec
 * total energy  :  -148.1895314 Eh     change       -0.2664579E-04 Eh
   gradient norm :     0.0014506 Eh/α   predicted    -0.1125885E-04 ( -57.75%)
   displ. norm   :     0.3336255 α      lambda       -0.2648221E-04
   maximum displ.:     0.1892937 α      in ANC's #2, #4, #7, ...

........................................................................
.............................. CYCLE   37 ..............................
........................................................................

 iter      E             dE          RMSdq      gap      omega  full diag
   1   -150.1924824 -0.150192E+03  0.253E-02    2.46       0.0  T
   2   -150.1924828 -0.445877E-06  0.148E-02    2.46       1.0  T
   3   -150.1924815  0.135389E-05  0.420E-03    2.46       2.4  T
   4   -150.1924830 -0.156280E-05  0.921E-04    2.46      11.0  T
   5   -150.1924831 -0.298229E-07  0.445E-04    2.46      22.7  T
   6   -150.1924831 -0.421178E-08  0.189E-04    2.46      53.5  T
     SCC iter.                  ...        0 min,  0.097 sec
     gradient                   ...        0 min,  0.199 sec
 * total energy  :  -148.1895649 Eh     change       -0.3352579E-04 Eh
   gradient norm :     0.0012213 Eh/α   predicted    -0.1389886E-04 ( -58.54%)
   displ. norm   :     0.4167812 α      lambda       -0.3194600E-04
   maximum displ.:     0.2375059 α      in ANC's #2, #4, #7, ...

........................................................................
.............................. CYCLE   38 ..............................
........................................................................

 iter      E             dE          RMSdq      gap      omega  full diag
   1   -150.1924764 -0.150192E+03  0.316E-02    2.46       0.0  T
   2   -150.1924772 -0.842497E-06  0.185E-02    2.46       1.0  T
   3   -150.1924757  0.152705E-05  0.458E-03    2.46       2.2  T
   4   -150.1924775 -0.178558E-05  0.127E-03    2.46       8.0  T
   5   -150.1924776 -0.721462E-07  0.570E-04    2.46      17.7  T
   6   -150.1924776 -0.568562E-08  0.269E-04    2.46      37.5  T
     SCC iter.                  ...        0 min,  0.161 sec
     gradient                   ...        0 min,  0.211 sec
 * total energy  :  -148.1896015 Eh     change       -0.3655713E-04 Eh
   gradient norm :     0.0009406 Eh/α   predicted    -0.1720799E-04 ( -52.93%)
   displ. norm   :     0.3627898 α      lambda       -0.2078002E-04
   maximum displ.:     0.2097311 α      in ANC's #2, #4, #7, ...

........................................................................
.............................. CYCLE   39 ..............................
........................................................................

 iter      E             dE          RMSdq      gap      omega  full diag
   1   -150.1927563 -0.150193E+03  0.271E-02    2.46       0.0  T
   2   -150.1927569 -0.623144E-06  0.159E-02    2.47       1.0  T
   3   -150.1927563  0.686820E-06  0.310E-03    2.47       3.3  T
   4   -150.1927571 -0.832308E-06  0.989E-04    2.47      10.2  T
   5   -150.1927571 -0.492623E-07  0.440E-04    2.47      23.0  T
     SCC iter.                  ...        0 min,  0.108 sec
     gradient                   ...        0 min,  0.247 sec
 * total energy  :  -148.1896236 Eh     change       -0.2214606E-04 Eh
   gradient norm :     0.0008812 Eh/α   predicted    -0.1099990E-04 ( -50.33%)
   displ. norm   :     0.2324123 α      lambda       -0.1098426E-04
   maximum displ.:     0.1366075 α      in ANC's #2, #4, #1, ...

........................................................................
.............................. CYCLE   40 ..............................
........................................................................

 iter      E             dE          RMSdq      gap      omega  full diag
   1   -150.1931619 -0.150193E+03  0.169E-02    2.47       0.0  T
   2   -150.1931623 -0.336032E-06  0.992E-03    2.47       1.0  T
   3   -150.1931620  0.284416E-06  0.202E-03    2.47       5.0  T
   4   -150.1931623 -0.347631E-06  0.643E-04    2.47      15.7  T
   5   -150.1931624 -0.242506E-07  0.275E-04    2.47      36.8  T
     SCC iter.                  ...        0 min,  0.086 sec
     gradient                   ...        0 min,  0.208 sec
 * total energy  :  -148.1896365 Eh     change       -0.1286650E-04 Eh
   gradient norm :     0.0007732 Eh/α   predicted    -0.5629069E-05 ( -56.25%)
   displ. norm   :     0.2001120 α      lambda       -0.1055521E-04
   maximum displ.:     0.1185139 α      in ANC's #2, #4, #1, ...

........................................................................
.............................. CYCLE   41 ..............................
........................................................................

 iter      E             dE          RMSdq      gap      omega  full diag
   1   -150.1932924 -0.150193E+03  0.148E-02    2.46       0.0  T
   2   -150.1932926 -0.230431E-06  0.868E-03    2.46       1.2  T
   3   -150.1932924  0.214210E-06  0.172E-03    2.46       5.9  T
   4   -150.1932926 -0.258318E-06  0.537E-04    2.46      18.8  T
   5   -150.1932927 -0.171301E-07  0.244E-04    2.46      41.5  T
     SCC iter.                  ...        0 min,  0.087 sec
     gradient                   ...        0 min,  0.214 sec
 * total energy  :  -148.1896499 Eh     change       -0.1336973E-04 Eh
   gradient norm :     0.0006254 Eh/α   predicted    -0.5374735E-05 ( -59.80%)
   displ. norm   :     0.2507756 α      lambda       -0.1406780E-04
   maximum displ.:     0.1477726 α      in ANC's #2, #4, #1, ...

........................................................................
.............................. CYCLE   42 ..............................
........................................................................

 iter      E             dE          RMSdq      gap      omega  full diag
   1   -150.1933530 -0.150193E+03  0.190E-02    2.46       0.0  T
   2   -150.1933533 -0.350644E-06  0.111E-02    2.46       1.0  T
   3   -150.1933530  0.339710E-06  0.219E-03    2.46       4.6  T
   4   -150.1933534 -0.399146E-06  0.730E-04    2.46      13.8  T
   5   -150.1933534 -0.335975E-07  0.295E-04    2.46      34.3  T
     SCC iter.                  ...        0 min,  0.100 sec
     gradient                   ...        0 min,  0.210 sec
 * total energy  :  -148.1896670 Eh     change       -0.1708857E-04 Eh
   gradient norm :     0.0007598 Eh/α   predicted    -0.7233176E-05 ( -57.67%)
   displ. norm   :     0.2891461 α      lambda       -0.1422604E-04
   maximum displ.:     0.1703069 α      in ANC's #2, #4, #1, ...
 * RMSD in coord.:     0.5128962 α      energy gain  -0.6110240E-03 Eh

generating ANC from exact Hessian ...
Using Lindh-Hessian (1995)
 Shifting diagonal of input Hessian by    9.9836165567248735E-003
 Lowest  eigenvalues of input Hessian
    0.000000    0.000000    0.000000    0.000000    0.000000    0.000000
    0.010000    0.010013    0.010094    0.010149    0.010168    0.010266
    0.010362    0.010405    0.010483    0.010540    0.010666    0.010742
 Highest eigenvalues
    2.067549    2.080345    2.142882    2.327733    2.417871    2.526244


........................................................................
.............................. CYCLE   43 ..............................
........................................................................

 iter      E             dE          RMSdq      gap      omega  full diag
   1   -150.1931925 -0.150193E+03  0.216E-02    2.46       0.0  T
   2   -150.1931929 -0.393994E-06  0.126E-02    2.46       1.0  T
   3   -150.1931926  0.318951E-06  0.216E-03    2.46       4.7  T
   4   -150.1931930 -0.396619E-06  0.730E-04    2.46      13.8  T
   5   -150.1931930 -0.280865E-07  0.333E-04    2.46      30.3  T
     SCC iter.                  ...        0 min,  0.076 sec
     gradient                   ...        0 min,  0.204 sec
 * total energy  :  -148.1896839 Eh     change       -0.1699090E-04 Eh
   gradient norm :     0.0008080 Eh/α   predicted     0.0000000E+00 (-100.00%)
   displ. norm   :     0.0269188 α      lambda       -0.6032081E-06
   maximum displ.:     0.0109615 α      in ANC's #10, #2, #19, ...

........................................................................
.............................. CYCLE   44 ..............................
........................................................................

 iter      E             dE          RMSdq      gap      omega  full diag
   1   -150.1932558 -0.150193E+03  0.362E-03    2.46       0.0  T
   2   -150.1932559 -0.440114E-07  0.210E-03    2.46       4.8  T
   3   -150.1932558  0.576390E-07  0.977E-04    2.46      10.3  T
   4   -150.1932559 -0.687209E-07  0.273E-04    2.46      37.0  T
     SCC iter.                  ...        0 min,  0.063 sec
     gradient                   ...        0 min,  0.203 sec
 * total energy  :  -148.1896906 Eh     change       -0.6667734E-05 Eh
   gradient norm :     0.0004863 Eh/α   predicted    -0.2629609E-05 ( -60.56%)
   displ. norm   :     0.1235586 α      lambda       -0.1789112E-04
   maximum displ.:     0.0509930 α      in ANC's #10, #2, #13, ...

........................................................................
.............................. CYCLE   45 ..............................
........................................................................

 iter      E             dE          RMSdq      gap      omega  full diag
   1   -150.1932164 -0.150193E+03  0.154E-02    2.47       0.0  T
   2   -150.1932170 -0.573064E-06  0.895E-03    2.47       1.1  T
   3   -150.1932162  0.753997E-06  0.340E-03    2.47       3.0  T
   4   -150.1932171 -0.874912E-06  0.102E-03    2.47       9.9  T
   5   -150.1932171 -0.627155E-07  0.363E-04    2.47      27.9  T
   6   -150.1932171 -0.193859E-08  0.166E-04    2.47      60.8  T
     SCC iter.                  ...        0 min,  0.096 sec
     gradient                   ...        0 min,  0.219 sec
 * total energy  :  -148.1897067 Eh     change       -0.1608953E-04 Eh
   gradient norm :     0.0008455 Eh/α   predicted    -0.9008464E-05 ( -44.01%)
   displ. norm   :     0.0705979 α      lambda       -0.5707127E-05
   maximum displ.:     0.0314942 α      in ANC's #10, #2, #13, ...

........................................................................
.............................. CYCLE   46 ..............................
........................................................................

 iter      E             dE          RMSdq      gap      omega  full diag
   1   -150.1930998 -0.150193E+03  0.806E-03    2.47       0.0  T
   2   -150.1930999 -0.107105E-06  0.464E-03    2.47       2.2  T
   3   -150.1930999  0.688000E-07  0.110E-03    2.47       9.2  T
   4   -150.1930999 -0.873763E-07  0.432E-04    2.47      23.4  T
   5   -150.1930999 -0.844514E-08  0.192E-04    2.47      52.6  T
     SCC iter.                  ...        0 min,  0.092 sec
     gradient                   ...        0 min,  0.209 sec
 * total energy  :  -148.1897133 Eh     change       -0.6620573E-05 Eh
   gradient norm :     0.0007662 Eh/α   predicted    -0.2861648E-05 ( -56.78%)
   displ. norm   :     0.1231595 α      lambda       -0.9500041E-05
   maximum displ.:     0.0551408 α      in ANC's #2, #10, #13, ...

........................................................................
.............................. CYCLE   47 ..............................
........................................................................

 iter      E             dE          RMSdq      gap      omega  full diag
   1   -150.1929407 -0.150193E+03  0.145E-02    2.47       0.0  T
   2   -150.1929409 -0.199076E-06  0.840E-03    2.47       1.2  T
   3   -150.1929407  0.134355E-06  0.158E-03    2.47       6.4  T
   4   -150.1929409 -0.187129E-06  0.594E-04    2.47      17.0  T
   5   -150.1929409 -0.997642E-08  0.268E-04    2.47      37.7  T
     SCC iter.                  ...        0 min,  0.087 sec
     gradient                   ...        0 min,  0.201 sec
 * total energy  :  -148.1897255 Eh     change       -0.1215935E-04 Eh
   gradient norm :     0.0007280 Eh/α   predicted    -0.4804289E-05 ( -60.49%)
   displ. norm   :     0.2519175 α      lambda       -0.1918570E-04
   maximum displ.:     0.1152802 α      in ANC's #2, #10, #3, ...

........................................................................
.............................. CYCLE   48 ..............................
........................................................................

 iter      E             dE          RMSdq      gap      omega  full diag
   1   -150.1925130 -0.150193E+03  0.296E-02    2.46       0.0  T
   2   -150.1925136 -0.626840E-06  0.171E-02    2.46       1.0  T
   3   -150.1925132  0.425980E-06  0.303E-03    2.46       3.3  T
   4   -150.1925138 -0.611226E-06  0.124E-03    2.46       8.1  T
   5   -150.1925138 -0.368329E-07  0.540E-04    2.46      18.7  T
   6   -150.1925139 -0.141952E-07  0.205E-04    2.46      49.3  T
     SCC iter.                  ...        0 min,  0.104 sec
     gradient                   ...        0 min,  0.215 sec
 * total energy  :  -148.1897478 Eh     change       -0.2231343E-04 Eh
   gradient norm :     0.0010185 Eh/α   predicted    -0.9872439E-05 ( -55.76%)
   displ. norm   :     0.3178074 α      lambda       -0.2065793E-04
   maximum displ.:     0.1487739 α      in ANC's #2, #10, #3, ...

........................................................................
.............................. CYCLE   49 ..............................
........................................................................

 iter      E             dE          RMSdq      gap      omega  full diag
   1   -150.1919701 -0.150192E+03  0.379E-02    2.46       0.0  T
   2   -150.1919711 -0.954093E-06  0.219E-02    2.46       1.0  T
   3   -150.1919702  0.871039E-06  0.408E-03    2.46       2.5  T
   4   -150.1919714 -0.118568E-05  0.158E-03    2.46       6.4  T
   5   -150.1919715 -0.591387E-07  0.681E-04    2.46      14.8  T
   6   -150.1919715 -0.220360E-07  0.240E-04    2.46      42.1  T
     SCC iter.                  ...        0 min,  0.123 sec
     gradient                   ...        0 min,  0.211 sec
 * total energy  :  -148.1897702 Eh     change       -0.2243532E-04 Eh
   gradient norm :     0.0014899 Eh/α   predicted    -0.1079588E-04 ( -51.88%)
   displ. norm   :     0.3074816 α      lambda       -0.1957159E-04
   maximum displ.:     0.1476811 α      in ANC's #2, #10, #3, ...

........................................................................
.............................. CYCLE   50 ..............................
........................................................................

 iter      E             dE          RMSdq      gap      omega  full diag
   1   -150.1920135 -0.150192E+03  0.353E-02    2.45       0.0  T
   2   -150.1920143 -0.855460E-06  0.203E-02    2.45       1.0  T
   3   -150.1920134  0.897849E-06  0.413E-03    2.45       2.4  T
   4   -150.1920146 -0.117733E-05  0.163E-03    2.45       6.2  T
   5   -150.1920147 -0.665538E-07  0.671E-04    2.45      15.1  T
   6   -150.1920147 -0.232473E-07  0.215E-04    2.45      47.0  T
     SCC iter.                  ...        0 min,  0.115 sec
     gradient                   ...        0 min,  0.195 sec
 * total energy  :  -148.1897928 Eh     change       -0.2258021E-04 Eh
   gradient norm :     0.0015341 Eh/α   predicted    -0.1019759E-04 ( -54.84%)
   displ. norm   :     0.3350111 α      lambda       -0.2410396E-04
   maximum displ.:     0.1654882 α      in ANC's #2, #10, #3, ...

........................................................................
.............................. CYCLE   51 ..............................
........................................................................

 iter      E             dE          RMSdq      gap      omega  full diag
   1   -150.1925770 -0.150193E+03  0.380E-02    2.45       0.0  T
   2   -150.1925781 -0.107908E-05  0.219E-02    2.45       1.0  T
   3   -150.1925769  0.121003E-05  0.462E-03    2.45       2.2  T
   4   -150.1925784 -0.158134E-05  0.171E-03    2.45       5.9  T
   5   -150.1925785 -0.681663E-07  0.736E-04    2.45      13.7  T
   6   -150.1925785 -0.234030E-07  0.242E-04    2.45      41.8  T
     SCC iter.                  ...        0 min,  0.116 sec
     gradient                   ...        0 min,  0.254 sec
 * total energy  :  -148.1898208 Eh     change       -0.2800119E-04 Eh
   gradient norm :     0.0011643 Eh/α   predicted    -0.1265787E-04 ( -54.80%)
   displ. norm   :     0.3646337 α      lambda       -0.2364550E-04
   maximum displ.:     0.1840003 α      in ANC's #2, #10, #3, ...

........................................................................
.............................. CYCLE   52 ..............................
........................................................................

 iter      E             dE          RMSdq      gap      omega  full diag
   1   -150.1924875 -0.150192E+03  0.402E-02    2.44       0.0  T
   2   -150.1924888 -0.131334E-05  0.231E-02    2.44       1.0  T
   3   -150.1924871  0.162768E-05  0.530E-03    2.44       1.9  T
   4   -150.1924892 -0.206385E-05  0.196E-03    2.44       5.2  T
   5   -150.1924893 -0.105927E-06  0.750E-04    2.44      13.5  T
   6   -150.1924893 -0.199583E-07  0.256E-04    2.44      39.5  T
     SCC iter.                  ...        0 min,  0.161 sec
     gradient                   ...        0 min,  0.171 sec
 * total energy  :  -148.1898467 Eh     change       -0.2589956E-04 Eh
   gradient norm :     0.0010655 Eh/α   predicted    -0.1252660E-04 ( -51.63%)
   displ. norm   :     0.2691549 α      lambda       -0.1702559E-04
   maximum displ.:     0.1406670 α      in ANC's #2, #10, #11, ...

........................................................................
.............................. CYCLE   53 ..............................
........................................................................

 iter      E             dE          RMSdq      gap      omega  full diag
   1   -150.1932386 -0.150193E+03  0.285E-02    2.44       0.0  T
   2   -150.1932393 -0.696634E-06  0.164E-02    2.44       1.0  T
   3   -150.1932388  0.482853E-06  0.323E-03    2.44       3.1  T
   4   -150.1932395 -0.653073E-06  0.141E-03    2.44       7.2  T
   5   -150.1932395 -0.701571E-07  0.554E-04    2.44      18.2  T
   6   -150.1932395 -0.791641E-08  0.197E-04    2.44      51.3  T
     SCC iter.                  ...        0 min,  0.104 sec
     gradient                   ...        0 min,  0.206 sec
 * total energy  :  -148.1898651 Eh     change       -0.1834396E-04 Eh
   gradient norm :     0.0009442 Eh/α   predicted    -0.8787063E-05 ( -52.10%)
   displ. norm   :     0.2667542 α      lambda       -0.1347451E-04
   maximum displ.:     0.1403732 α      in ANC's #2, #10, #11, ...

........................................................................
.............................. CYCLE   54 ..............................
........................................................................

 iter      E             dE          RMSdq      gap      omega  full diag
   1   -150.1925470 -0.150193E+03  0.286E-02    2.44       0.0  T
   2   -150.1925476 -0.652254E-06  0.164E-02    2.44       1.0  T
   3   -150.1925472  0.386621E-06  0.304E-03    2.44       3.3  T
   4   -150.1925478 -0.538038E-06  0.144E-03    2.44       7.0  T
   5   -150.1925478 -0.799489E-07  0.482E-04    2.44      21.0  T
   6   -150.1925478 -0.492543E-08  0.160E-04    2.44      63.1  T
     SCC iter.                  ...        0 min,  0.087 sec
     gradient                   ...        0 min,  0.203 sec
 * total energy  :  -148.1898812 Eh     change       -0.1611249E-04 Eh
   gradient norm :     0.0011216 Eh/α   predicted    -0.6951776E-05 ( -56.85%)
   displ. norm   :     0.2375483 α      lambda       -0.1706397E-04
   maximum displ.:     0.1294765 α      in ANC's #2, #11, #5, ...

........................................................................
.............................. CYCLE   55 ..............................
........................................................................

 iter      E             dE          RMSdq      gap      omega  full diag
   1   -150.1936174 -0.150194E+03  0.249E-02    2.44       0.0  T
   2   -150.1936178 -0.476111E-06  0.144E-02    2.44       1.0  T
   3   -150.1936174  0.442591E-06  0.288E-03    2.44       3.5  T
   4   -150.1936180 -0.581757E-06  0.107E-03    2.44       9.5  T
   5   -150.1936180 -0.313261E-07  0.514E-04    2.44      19.6  T
   6   -150.1936180 -0.105767E-07  0.176E-04    2.44      57.3  T
     SCC iter.                  ...        0 min,  0.071 sec
     gradient                   ...        0 min,  0.171 sec
 * total energy  :  -148.1898997 Eh     change       -0.1852543E-04 Eh
   gradient norm :     0.0010738 Eh/α   predicted    -0.8746688E-05 ( -52.79%)
   displ. norm   :     0.3210540 α      lambda       -0.1784928E-04
   maximum displ.:     0.1751241 α      in ANC's #2, #11, #5, ...

........................................................................
.............................. CYCLE   56 ..............................
........................................................................

 iter      E             dE          RMSdq      gap      omega  full diag
   1   -150.1919674 -0.150192E+03  0.346E-02    2.44       0.0  T
   2   -150.1919683 -0.857411E-06  0.199E-02    2.44       1.0  T
   3   -150.1919677  0.607061E-06  0.351E-03    2.44       2.9  T
   4   -150.1919685 -0.842408E-06  0.152E-03    2.44       6.6  T
   5   -150.1919686 -0.776315E-07  0.623E-04    2.44      16.2  T
   6   -150.1919686 -0.151545E-07  0.203E-04    2.44      49.8  T
     SCC iter.                  ...        0 min,  0.071 sec
     gradient                   ...        0 min,  0.169 sec
 * total energy  :  -148.1899176 Eh     change       -0.1794953E-04 Eh
   gradient norm :     0.0014215 Eh/α   predicted    -0.9334664E-05 ( -47.99%)
   displ. norm   :     0.1710515 α      lambda       -0.1097134E-04
   maximum displ.:     0.0980092 α      in ANC's #2, #5, #11, ...

........................................................................
.............................. CYCLE   57 ..............................
........................................................................

 iter      E             dE          RMSdq      gap      omega  full diag
   1   -150.1925374 -0.150193E+03  0.173E-02    2.44       0.0  T
   2   -150.1925376 -0.207147E-06  0.998E-03    2.44       1.0  T
   3   -150.1925373  0.276415E-06  0.210E-03    2.44       4.8  T
   4   -150.1925376 -0.338962E-06  0.689E-04    2.44      14.7  T
   5   -150.1925376 -0.164336E-07  0.336E-04    2.44      30.1  T
     SCC iter.                  ...        0 min,  0.068 sec
     gradient                   ...        0 min,  0.177 sec
 * total energy  :  -148.1899305 Eh     change       -0.1288164E-04 Eh
   gradient norm :     0.0009791 Eh/α   predicted    -0.5558040E-05 ( -56.85%)
   displ. norm   :     0.2030962 α      lambda       -0.1325858E-04
   maximum displ.:     0.1193453 α      in ANC's #2, #5, #11, ...

........................................................................
.............................. CYCLE   58 ..............................
........................................................................

 iter      E             dE          RMSdq      gap      omega  full diag
   1   -150.1930608 -0.150193E+03  0.191E-02    2.44       0.0  T
   2   -150.1930611 -0.224815E-06  0.110E-02    2.44       1.0  T
   3   -150.1930607  0.333174E-06  0.231E-03    2.44       4.4  T
   4   -150.1930611 -0.399952E-06  0.738E-04    2.44      13.7  T
   5   -150.1930611 -0.201280E-07  0.344E-04    2.44      29.4  T
     SCC iter.                  ...        0 min,  0.082 sec
     gradient                   ...        0 min,  0.151 sec
 * total energy  :  -148.1899460 Eh     change       -0.1551928E-04 Eh
   gradient norm :     0.0008520 Eh/α   predicted    -0.6751671E-05 ( -56.49%)
   displ. norm   :     0.2276308 α      lambda       -0.1380491E-04
   maximum displ.:     0.1359222 α      in ANC's #2, #5, #11, ...

........................................................................
.............................. CYCLE   59 ..............................
........................................................................

 iter      E             dE          RMSdq      gap      omega  full diag
   1   -150.1932790 -0.150193E+03  0.197E-02    2.44       0.0  T
   2   -150.1932793 -0.276558E-06  0.114E-02    2.44       1.0  T
   3   -150.1932791  0.233280E-06  0.205E-03    2.44       4.9  T
   4   -150.1932794 -0.294366E-06  0.777E-04    2.44      13.0  T
   5   -150.1932794 -0.255050E-07  0.338E-04    2.44      29.9  T
     SCC iter.                  ...        0 min,  0.075 sec
     gradient                   ...        0 min,  0.146 sec
 * total energy  :  -148.1899628 Eh     change       -0.1678284E-04 Eh
   gradient norm :     0.0010153 Eh/α   predicted    -0.7063305E-05 ( -57.91%)
   displ. norm   :     0.2410092 α      lambda       -0.1454941E-04
   maximum displ.:     0.1453297 α      in ANC's #2, #5, #11, ...

........................................................................
.............................. CYCLE   60 ..............................
........................................................................

 iter      E             dE          RMSdq      gap      omega  full diag
   1   -150.1931993 -0.150193E+03  0.194E-02    2.44       0.0  T
   2   -150.1931996 -0.305672E-06  0.112E-02    2.44       1.0  T
   3   -150.1931993  0.272978E-06  0.220E-03    2.44       4.6  T
   4   -150.1931997 -0.335501E-06  0.821E-04    2.44      12.3  T
   5   -150.1931997 -0.283121E-07  0.346E-04    2.44      29.2  T
     SCC iter.                  ...        0 min,  0.062 sec
     gradient                   ...        0 min,  0.170 sec
 * total energy  :  -148.1899812 Eh     change       -0.1832469E-04 Eh
   gradient norm :     0.0010549 Eh/α   predicted    -0.7465441E-05 ( -59.26%)
   displ. norm   :     0.2712458 α      lambda       -0.1627485E-04
   maximum displ.:     0.1644339 α      in ANC's #2, #5, #11, ...

........................................................................
.............................. CYCLE   61 ..............................
[...]
       130        1.9847           -0.3909301             -10.6377
       131        1.9033           -0.3890972             -10.5879
       132        1.8782           -0.3888508             -10.5812
       133        1.8498           -0.3886205             -10.5749
       134        1.3843           -0.3865264             -10.5179
       135        0.5553           -0.2469985              -6.7212 (HOMO)
       136        0.4447           -0.2465762              -6.7097 (LUMO)
       137                         -0.2292188              -6.2374
       138                         -0.2281673              -6.2087
       139                         -0.2266204              -6.1667
       140                         -0.2226960              -6.0599
       ...                                ...                  ...
       258                          0.6652761              18.1031
      -------------------------------------------------------------
                  HL-Gap            0.0004222 Eh            0.0115 eV
             Fermi-level           -0.3168807 Eh           -8.6228 eV

 transition dipole moment (au) for excitation:         134         135
     X       Y       Z   
  -0.7363  -0.8471  -0.0803  total (au/Debye):    1.125   2.860
 dE (eV)             :    3.797
 oscillator strength :  0.16654E+00

 SCC (total)                   0 d,  0 h,  0 min,  0.743 sec
 SCC setup                      ...        0 min,  0.002 sec (  0.202%)
 Dispersion                     ...        0 min,  0.002 sec (  0.319%)
 classical contributions        ...        0 min,  0.001 sec (  0.100%)
 integral evaluation            ...        0 min,  0.051 sec (  6.928%)
 iterations                     ...        0 min,  0.432 sec ( 58.167%)
 molecular gradient             ...        0 min,  0.197 sec ( 26.574%)
 printout                       ...        0 min,  0.057 sec (  7.709%)

         :::::::::::::::::::::::::::::::::::::::::::::::::::::
         ::                     SUMMARY                     ::
         :::::::::::::::::::::::::::::::::::::::::::::::::::::
         :: total energy            -148.060015945085 Eh    ::
         :: gradient norm              0.098470831876 Eh/a0 ::
         :: HOMO-LUMO gap              0.011489887970 eV    ::
         ::.................................................::
         :: SCC energy              -150.059383671839 Eh    ::
         :: -> isotropic ES            0.187423209828 Eh    ::
         :: -> anisotropic ES          0.003503312599 Eh    ::
         :: -> anisotropic XC          0.059973657500 Eh    ::
         :: -> dispersion             -0.120407946217 Eh    ::
         :: repulsion energy           1.999367726754 Eh    ::
         :: add. restraining           0.000000000000 Eh    ::
         :: total charge               0.000000000000 e     ::
         :::::::::::::::::::::::::::::::::::::::::::::::::::::

           -------------------------------------------------
          |                Property Printout                |
           -------------------------------------------------

    * Orbital Energies and Occupations

         #    Occupation            Energy/Eh            Energy/eV
      -------------------------------------------------------------
         1        2.0000           -0.7465311             -20.3141
       ...           ...                  ...                  ...
       123        2.0000           -0.4104667             -11.1694
       124        2.0000           -0.4094556             -11.1419
       125        2.0000           -0.4078891             -11.0992
       126        2.0000           -0.4038830             -10.9902
       127        2.0000           -0.4024033             -10.9500
       128        2.0000           -0.3982725             -10.8375
       129        1.9997           -0.3945752             -10.7369
       130        1.9847           -0.3909301             -10.6377
       131        1.9033           -0.3890972             -10.5879
       132        1.8782           -0.3888508             -10.5812
       133        1.8498           -0.3886205             -10.5749
       134        1.3843           -0.3865264             -10.5179
       135        0.5553           -0.2469985              -6.7212 (HOMO)
       136        0.4447           -0.2465762              -6.7097 (LUMO)
       137                         -0.2292188              -6.2374
       138                         -0.2281673              -6.2087
       139                         -0.2266204              -6.1667
       140                         -0.2226960              -6.0599
       141                         -0.2187852              -5.9534
       142                         -0.2081112              -5.6630
       143                         -0.2046989              -5.5701
       144                         -0.1984856              -5.4011
       145                         -0.1971810              -5.3656
       146                         -0.1852426              -5.0407
       ...                                ...                  ...
       258                          0.6652761              18.1031
      -------------------------------------------------------------
                  HL-Gap            0.0004222 Eh            0.0115 eV
             Fermi-level           -0.3168807 Eh           -8.6228 eV

     #   Z          covCN         q      C6AA      α(0)
     1   8 O        0.857    -0.472    23.166     6.453
     2   6 C        2.650     0.411    20.075     7.330
     3   7 N        2.687    -0.203    25.423     7.488
     4   6 C        3.786     0.037    19.971     6.365
     5   6 C        3.810    -0.074    21.914     6.663
     6   6 C        2.971     0.009    27.805     8.649
     7   6 C        2.925    -0.040    29.006     8.832
     8   6 C        2.919    -0.031    28.763     8.795
     9   6 C        2.920    -0.032    28.803     8.801
    10   6 C        2.919    -0.029    28.723     8.789
    11   6 C        2.925    -0.036    28.907     8.817
    12   6 C        3.726     0.111    18.853     6.200
    13   6 C        3.806    -0.082    22.059     6.686
    14   6 C        3.791     0.047    19.792     6.336
    15   7 N        2.692    -0.171    24.691     7.380
    16   6 C        2.755     0.275    22.355     7.742
    17   6 C        3.808     0.023    20.183     6.395
    18   7 N        2.694    -0.212    25.606     7.515
    19   6 C        2.718     0.323    21.509     7.592
    20   7 N        2.739    -0.100    23.198     7.153
    21   6 C        3.693    -0.052    21.688     6.663
    22   6 C        3.760    -0.000    20.633     6.476
    23   6 C        3.219     0.077    25.603     8.228
    24   6 C        2.924    -0.043    29.067     8.841
    25  16 S        2.284    -0.080   144.389    20.224
    26   6 C        3.028     0.100    25.754     8.324
    27   6 C        3.870    -0.009    20.700     6.470
    28   6 C        3.759    -0.103    22.519     6.765
    29   6 C        3.758    -0.107    22.604     6.778
    30   7 N        1.966    -0.258    27.522     7.780
    31   8 O        0.859    -0.482    23.399     6.485
    32   6 C        3.851    -0.015    20.812     6.489
    33   6 C        3.755    -0.114    22.742     6.800
    34   6 C        3.756    -0.114    22.744     6.800
    35   8 O        0.858    -0.428    22.251     6.324
    36   6 C        3.809    -0.076    21.952     6.669
    37   6 C        2.968     0.011    27.770     8.644
    38   6 C        2.924    -0.045    29.129     8.851
    39   6 C        2.919    -0.030    28.758     8.794
    40   6 C        2.919    -0.034    28.846     8.807
    41   6 C        2.919    -0.032    28.810     8.802
    42   6 C        2.925    -0.041    29.013     8.833
    43   8 O        1.655    -0.453    21.902     6.318
    44   8 O        1.708    -0.304    19.069     5.896
    45   6 C        3.720     0.088    19.237     6.264
    46   6 C        2.973    -0.016    28.417     8.744
    47   6 C        3.191     0.027    26.915     8.461
    48   7 N        1.961    -0.209    26.363     7.614
    49   6 C        2.993     0.054    26.771     8.487
    50  16 S        2.286    -0.091   144.870    20.258
    51   1 H        0.860     0.188     1.170     1.695
    52   1 H        0.924     0.043     2.406     2.426
    53   1 H        0.924     0.069     2.098     2.265
    54   1 H        0.924     0.054     2.276     2.359
    55   1 H        0.926     0.029     2.601     2.522
    56   1 H        0.926     0.031     2.565     2.505
    57   1 H        0.926     0.032     2.559     2.502
    58   1 H        0.926     0.033     2.549     2.497
    59   1 H        0.926     0.031     2.579     2.511
    60   1 H        0.924     0.045     2.377     2.411
    61   1 H        0.924     0.039     2.463     2.454
    62   1 H        0.924     0.048     2.342     2.393
    63   1 H        0.924     0.089     1.893     2.151
    64   1 H        0.860     0.180     1.211     1.724
    65   1 H        0.924     0.069     2.098     2.265
    66   1 H        0.860     0.195     1.130     1.665
    67   1 H        0.924     0.059     2.207     2.323
    68   1 H        0.924     0.063     2.166     2.302
    69   1 H        0.925     0.082     1.962     2.191
    70   1 H        0.924     0.064     2.157     2.297
    71   1 H        0.924     0.080     1.978     2.199
    72   1 H        0.927     0.052     2.291     2.367
    73   1 H        0.924     0.042     2.419     2.432
    74   1 H        0.925     0.040     2.452     2.449
    75   1 H        0.925     0.048     2.342     2.393
    76   1 H        0.925     0.045     2.381     2.413
    77   1 H        0.925     0.053     2.287     2.365
    78   1 H        0.925     0.043     2.408     2.427
    79   1 H        0.925     0.043     2.413     2.429
    80   1 H        0.924     0.048     2.350     2.398
    81   1 H        0.925     0.056     2.243     2.342
    82   1 H        0.925     0.035     2.518     2.482
    83   1 H        0.925     0.055     2.259     2.350
    84   1 H        0.925     0.058     2.226     2.333
    85   1 H        0.925     0.045     2.387     2.416
    86   1 H        0.925     0.032     2.564     2.504
    87   1 H        0.924     0.055     2.253     2.347
    88   1 H        0.925     0.055     2.260     2.351
    89   1 H        0.926     0.053     2.281     2.362
    90   1 H        0.926     0.034     2.524     2.485
    91   1 H        0.926     0.028     2.616     2.529
    92   1 H        0.926     0.026     2.640     2.541
    93   1 H        0.925     0.024     2.679     2.559
    94   1 H        0.804     0.328     0.643     1.259
    95   1 H        0.924     0.061     2.193     2.316
    96   1 H        0.924     0.059     2.216     2.328
    97   1 H        0.926     0.053     2.287     2.365
    98   1 H        0.926     0.038     2.478     2.462

 Mol. C6AA /au·bohr⁶  :     109743.700147
 Mol. C8AA /au·bohr⁸  :    2701974.552160
 Mol. α(0) /au        :        512.533741


Wiberg/Mayer (AO) data.
largest (>0.10) Wiberg bond orders for each atom

 ---------------------------------------------------------------------------
     #   Z sym  total        # sym  WBO       # sym  WBO       # sym  WBO
 ---------------------------------------------------------------------------
     1   8 O    1.986 --     2 C    1.602     3 N    0.159    44 O    0.127
     2   6 C    3.939 --     1 O    1.602     3 N    1.220    44 O    1.066
     3   7 N    3.396 --     2 C    1.220     4 C    0.971    51 H    0.936
                             1 O    0.159
     4   6 C    3.955 --     3 N    0.971    52 H    0.968     5 C    0.967
                            12 C    0.953
     5   6 C    3.990 --     6 C    1.012    53 H    0.967     4 C    0.967
                            54 H    0.967
     6   6 C    3.988 --    11 C    1.413     7 C    1.410     5 C    1.012
                             9 C    0.109
     7   6 C    3.991 --     8 C    1.448     6 C    1.410    55 H    0.970
                            10 C    0.111
     8   6 C    3.992 --     7 C    1.448     9 C    1.436    56 H    0.971
                            11 C    0.111
     9   6 C    3.991 --    10 C    1.440     8 C    1.436    57 H    0.971
                             6 C    0.109
    10   6 C    3.992 --    11 C    1.444     9 C    1.440    58 H    0.971
                             7 C    0.111
    11   6 C    3.991 --    10 C    1.444     6 C    1.413    59 H    0.969
                             8 C    0.111
    12   6 C    3.965 --    43 O    1.025    13 C    0.977    60 H    0.956
                             4 C    0.953
    13   6 C    3.991 --    14 C    0.992    12 C    0.977    61 H    0.972
                            62 H    0.971
    14   6 C    3.955 --    13 C    0.992    15 N    0.974    36 C    0.963
                            63 H    0.953
    15   7 N    3.454 --    16 C    1.280    14 C    0.974    64 H    0.932
                            35 O    0.193
    16   6 C    3.935 --    35 O    1.670    15 N    1.280    17 C    0.913
    17   6 C    3.945 --    18 N    0.991    32 C    0.962    65 H    0.952
                            16 C    0.913
    18   7 N    3.306 --    19 C    1.143    17 C    0.991    66 H    0.918
                            31 O    0.136
    19   6 C    3.958 --    31 O    1.587    20 N    1.163    18 N    1.143
    20   7 N    3.412 --    19 C    1.163    21 C    1.001    22 C    0.969
                            31 O    0.135
    21   6 C    3.964 --    20 N    1.001    69 H    0.976    67 H    0.971
                            68 H    0.968
    22   6 C    3.960 --    23 C    0.987    20 N    0.969    70 H    0.965
                            71 H    0.962
    23   6 C    3.811 --    24 C    1.363    30 N    1.295    22 C    0.987
    24   6 C    3.685 --    23 C    1.363    25 S    1.233    72 H    0.966
    25  16 S    2.429 --    24 C    1.233    26 C    0.974    30 N    0.119
    26   6 C    3.639 --    30 N    1.499    27 C    1.019    25 S    0.974
    27   6 C    3.987 --    26 C    1.019    29 C    0.994    28 C    0.973
                            73 H    0.963
    28   6 C    3.971 --    74 H    0.987    75 H    0.986    76 H    0.982
                            27 C    0.973
    29   6 C    3.986 --    27 C    0.994    79 H    0.986    77 H    0.985
                            78 H    0.984
    30   7 N    3.065 --    26 C    1.499    23 C    1.295    25 S    0.119
    31   8 O    1.936 --    19 C    1.587    18 N    0.136    20 N    0.135
    32   6 C    3.983 --    33 C    1.010    34 C    1.008    80 H    0.962
                            17 C    0.962
    33   6 C    3.992 --    32 C    1.010    82 H    0.985    83 H    0.982
                            81 H    0.982
    34   6 C    3.993 --    32 C    1.008    86 H    0.986    85 H    0.984
                            84 H    0.982
    35   8 O    1.995 --    16 C    1.670    15 N    0.193
    36   6 C    3.992 --    37 C    1.016    88 H    0.967    87 H    0.966
                            14 C    0.963
    37   6 C    3.989 --    42 C    1.409    38 C    1.409    36 C    1.016
                            40 C    0.109
    38   6 C    3.990 --    39 C    1.445    37 C    1.409    89 H    0.959
                            41 C    0.111
    39   6 C    3.992 --    38 C    1.445    40 C    1.438    90 H    0.971
                            42 C    0.110
    40   6 C    3.991 --    39 C    1.438    41 C    1.438    91 H    0.972
                            37 C    0.109
    41   6 C    3.992 --    42 C    1.445    40 C    1.438    92 H    0.971
                            38 C    0.111
    42   6 C    3.991 --    41 C    1.445    37 C    1.409    93 H    0.968
                            39 C    0.110
    43   8 O    1.968 --    12 C    1.025    94 H    0.836
    44   8 O    2.234 --     2 C    1.066    45 C    0.926     1 O    0.127
    45   6 C    3.923 --    46 C    1.016    95 H    0.968    96 H    0.958
                            44 O    0.926
    46   6 C    3.742 --    47 C    1.470    50 S    1.137    45 C    1.016
    47   6 C    3.861 --    46 C    1.470    48 N    1.297    97 H    0.957
    48   7 N    3.016 --    49 C    1.538    47 C    1.297    50 S    0.109
    49   6 C    3.688 --    48 N    1.538    50 S    1.078    98 H    0.965
    50  16 S    2.425 --    46 C    1.137    49 C    1.078    48 N    0.109
    51   1 H    0.965 --     3 N    0.936
    52   1 H    0.998 --     4 C    0.968
    53   1 H    0.995 --     5 C    0.967
    54   1 H    0.997 --     5 C    0.967
    55   1 H    0.999 --     7 C    0.970
    56   1 H    0.999 --     8 C    0.971
    57   1 H    0.998 --     9 C    0.971
    58   1 H    0.999 --    10 C    0.971
    59   1 H    0.999 --    11 C    0.969
    60   1 H    0.998 --    12 C    0.956
    61   1 H    0.998 --    13 C    0.972
    62   1 H    0.997 --    13 C    0.971
    63   1 H    0.991 --    14 C    0.953
    64   1 H    0.967 --    15 N    0.932
    65   1 H    0.994 --    17 C    0.952
    66   1 H    0.961 --    18 N    0.918
    67   1 H    0.990 --    21 C    0.971
    68   1 H    0.992 --    21 C    0.968
    69   1 H    0.993 --    21 C    0.976
    70   1 H    0.994 --    22 C    0.965
    71   1 H    0.992 --    22 C    0.962
    72   1 H    0.997 --    24 C    0.966
    73   1 H    0.995 --    27 C    0.963
    74   1 H    0.998 --    28 C    0.987
    75   1 H    0.998 --    28 C    0.986
    76   1 H    0.995 --    28 C    0.982
    77   1 H    0.997 --    29 C    0.985
    78   1 H    0.997 --    29 C    0.984
    79   1 H    0.998 --    29 C    0.986
    80   1 H    0.993 --    32 C    0.962
    81   1 H    0.996 --    33 C    0.982
    82   1 H    0.999 --    33 C    0.985
    83   1 H    0.996 --    33 C    0.982
    84   1 H    0.996 --    34 C    0.982
    85   1 H    0.998 --    34 C    0.984
    86   1 H    0.999 --    34 C    0.986
    87   1 H    0.996 --    36 C    0.966
    88   1 H    0.996 --    36 C    0.967
    89   1 H    0.997 --    38 C    0.959
    90   1 H    0.998 --    39 C    0.971
    91   1 H    0.999 --    40 C    0.972
    92   1 H    0.999 --    41 C    0.971
    93   1 H    0.999 --    42 C    0.968
    94   1 H    0.892 --    43 O    0.836
    95   1 H    0.994 --    45 C    0.968
    96   1 H    0.993 --    45 C    0.958
    97   1 H    0.996 --    47 C    0.957
    98   1 H    0.996 --    49 C    0.965
 ---------------------------------------------------------------------------

Topologies differ in total number of bonds
Writing topology from bond orders to xtbtopo.mol

molecular dipole:
                 x           y           z       tot (Debye)
 q only:        0.997      -0.574       0.095
   full:        0.458      -0.911       0.293       2.697
molecular quadrupole (traceless):
                xx          xy          yy          xz          yz          zz
 q only:       19.078      30.814     -13.251      11.447       5.946      -5.826
  q+dip:       22.999      31.662      -9.848      16.584       4.313     -13.151
   full:       22.635      29.011     -11.138      15.147       4.799     -11.497


           -------------------------------------------------
          | TOTAL ENERGY             -148.060015945085 Eh   |
          | GRADIENT NORM               0.098470831876 Eh/α |
          | HOMO-LUMO GAP               0.011489887970 eV   |
           -------------------------------------------------

------------------------------------------------------------------------
 * finished run on 2025/05/15 at 16:35:14.215     
------------------------------------------------------------------------
 total:
 * wall-time:     0 d,  0 h,  0 min,  0.779 sec
 *  cpu-time:     0 d,  0 h,  0 min,  0.540 sec
 * ratio c/w:     0.693 speedup
 SCF:
 * wall-time:     0 d,  0 h,  0 min,  0.744 sec
 *  cpu-time:     0 d,  0 h,  0 min,  0.508 sec
 * ratio c/w:     0.682 speedup


