48
 energy: -69.045054746180 gnorm: 0.000318124356 xtb: 6.7.1 (edcfbbe)
O            0.97293051550071        1.30451436864031       -1.68595691161853
C            0.28967434382524        1.25101072464309       -0.45586596164322
C           -0.49596849148280       -0.07599984136721       -0.34512653322636
N           -1.20706345498834       -0.33099648706735       -1.60040520486636
C           -1.60075414233873       -1.73366801451514       -1.62747303608128
C           -2.38164308830380       -2.10551390866550       -0.34846768010918
C           -2.39960929219185        0.49737218630562       -1.71241190719423
C           -3.47222571249703        0.09855873342235       -0.66881339085969
C           -4.11660377235370        1.29618068515952       -0.04939049069442
C           -5.41509923985061        1.53316306462060       -0.07145043902641
C           -2.75736861500378       -0.79920946616688        0.36108137911485
C           -1.46990600534935       -0.12218793385324        0.84363054437060
C            1.22339703298518        1.37652207753640        0.72359767797180
C            0.88480253663738        2.22308962978084        1.75273651978086
C            1.68450098188784        2.28010898143754        2.90290386771992
N            2.75706189032259        1.55991791168542        3.07199182551009
C            3.13423917033990        0.73638616920459        2.07755256422201
C            2.40812300500794        0.60553631720129        0.85885755684453
C            2.89687201673544       -0.26560691103786       -0.13595561670202
C            4.04676786875322       -0.98767056393119        0.06866978098063
O            4.60086532391988       -1.84354629454810       -0.83294786346566
C            3.98796546471074       -1.97574369372240       -2.09238361565565
C            4.74937586531891       -0.87254714187417        1.29073417782686
C            4.30655342983001       -0.03044361954895        2.26333552852287
H            0.39822792661509        0.86945091101764       -2.33384648941855
H           -0.42122011280798        2.09443643873906       -0.40753817737500
H            0.24489683721945       -0.87672431223372       -0.24814802445593
H           -2.21024976858898       -1.88807087740010       -2.52032604203563
H           -0.69812116800445       -2.34182314296073       -1.72867565342645
H           -3.27905695436236       -2.67384137172005       -0.59544380392238
H           -1.76925149394760       -2.71667196678834        0.31648997740911
H           -2.79010971680066        0.38632415613147       -2.72736643330923
H           -2.11371002326799        1.54247498443233       -1.58401830787528
H           -4.25294376050691       -0.49972993166340       -1.14959948838061
H           -3.45012088213151        1.99911316212757        0.43321136866046
H           -6.10735852073311        0.85724842603335       -0.54664641638389
H           -5.84395543371226        2.41004134066337        0.38268867388246
H           -3.42125279104489       -0.99824698905574        1.20646466843375
H           -1.68655526982481        0.88167047460512        1.20953621291520
H           -1.03402495086231       -0.68402609798740        1.67090566501241
H            0.00370094549694        2.84495230540409        1.68947615519014
H            1.42055619183053        2.94037177066050        3.71939239981659
H            2.36923260783510       -0.31376754373111       -1.07233105927109
H            3.94750527142933       -1.01830271703222       -2.62097252011351
H            4.60931232568672       -2.67333829956000       -2.65186252053290
H            2.97536574903721       -2.38350063065835       -2.00503605947006
H            5.64550353231704       -1.46067138106984        1.41327369300925
H            4.83674182771039        0.08350431870180        3.19552940991466
