----- Optimization -----
      -----------------------------------------------------------      
     |                   =====================                   |     
     |                           x T B                           |     
     |                   =====================                   |     
     |                         S. Grimme                         |     
     |          Mulliken Center for Theoretical Chemistry        |     
     |                    University of Bonn                     |     
      -----------------------------------------------------------      

   * xtb version 6.7.1 (edcfbbe) compiled by 'conda@3ef47c1a292c' on 2024-11-25

   xtb is free software: you can redistribute it and/or modify it under
   the terms of the GNU Lesser General Public License as published by
   the Free Software Foundation, either version 3 of the License, or
   (at your option) any later version.
   
   xtb is distributed in the hope that it will be useful,
   but WITHOUT ANY WARRANTY; without even the implied warranty of
   MERCHANTABILITY or FITNESS FOR A PARTICULAR PURPOSE.  See the
   GNU Lesser General Public License for more details.
   
   Cite this work as:
   * C. Bannwarth, E. Caldeweyher, S. Ehlert, A. Hansen, P. Pracht,
     J. Seibert, S. Spicher, S. Grimme, WIREs Comput. Mol. Sci., 2020, 11,
     e01493. DOI: 10.1002/wcms.1493
   
   for GFN2-xTB:
   * C. Bannwarth, S. Ehlert and S. Grimme., J. Chem. Theory Comput., 2019,
     15, 1652-1671. DOI: 10.1021/acs.jctc.8b01176
   for GFN1-xTB:
   * S. Grimme, C. Bannwarth, P. Shushkov, J. Chem. Theory Comput., 2017,
     13, 1989-2009. DOI: 10.1021/acs.jctc.7b00118
   for GFN0-xTB:
   * P. Pracht, E. Caldeweyher, S. Ehlert, S. Grimme, ChemRxiv, 2019, preprint.
     DOI: 10.26434/chemrxiv.8326202.v1
   for GFN-FF:
   * S. Spicher and S. Grimme, Angew. Chem. Int. Ed., 2020, 59, 15665-15673.
     DOI: 10.1002/anie.202004239
   
   for ALPB and GBSA implicit solvation:
   * S. Ehlert, M. Stahn, S. Spicher, S. Grimme, J. Chem. Theory Comput.,
     2021, 17, 4250-4261. DOI: 10.1021/acs.jctc.1c00471
   
   for ddCOSMO and CPCM-X implicit solvation:
   * M. Stahn, S. Ehlert, S. Grimme, J. Phys. Chem. A,
     2023, XX, XXXX-XXXX. DOI: 10.1021/acs.jpca.3c04382
   
   for DFT-D4:
   * E. Caldeweyher, C. Bannwarth and S. Grimme, J. Chem. Phys., 2017,
     147, 034112. DOI: 10.1063/1.4993215
   * E. Caldeweyher, S. Ehlert, A. Hansen, H. Neugebauer, S. Spicher,
     C. Bannwarth and S. Grimme, J. Chem. Phys., 2019, 150, 154122.
     DOI: 10.1063/1.5090222
   * E. Caldeweyher, J.-M. Mewes, S. Ehlert and S. Grimme, Phys. Chem. Chem. Phys.
     2020, 22, 8499-8512. DOI: 10.1039/D0CP00502A
   
   for sTDA-xTB:
   * S. Grimme and C. Bannwarth, J. Chem. Phys., 2016, 145, 054103.
     DOI: 10.1063/1.4959605
   
   in the mass-spec context:
   * V. Asgeirsson, C. Bauer and S. Grimme, Chem. Sci., 2017, 8, 4879.
     DOI: 10.1039/c7sc00601b
   * J. Koopman and S. Grimme, ACS Omega 2019, 4, 12, 15120-15133.
     DOI: 10.1021/acsomega.9b02011
   
   for metadynamics refer to:
   * S. Grimme, J. Chem. Theory Comput., 2019, 155, 2847-2862
     DOI: 10.1021/acs.jctc.9b00143
   
   for SPH calculations refer to:
   * S. Spicher and S. Grimme, J. Chem. Theory Comput., 2021, 17, 1701-1714
     DOI: 10.1021/acs.jctc.0c01306
   
   for ONIOM refer to:
   * C. Plett, A. Katbashev, S. Ehlert, S. Grimme, M. Bursch,
     Phys. Chem. Chem. Phys., 2023, 25, 17860-17868. DOI: 10.1039/D3CP02178E
   
   for DIPRO refer to:
   * J. Kohn, N. Gildemeister, S. Grimme, D. Fazzi, A. Hansen,
     J. Chem. Phys., 2023, just accepted.
   
   for PTB refer to:
   * S. Grimme, M. Mueller, A. Hansen, J. Chem. Phys., 2023, 158, 124111.
     DOI: 10.1063/5.0137838
   
   with help from (in alphabetical order)
   P. Atkinson, C. Bannwarth, F. Bohle, G. Brandenburg, E. Caldeweyher
   M. Checinski, S. Dohm, S. Ehlert, S. Ehrlich, I. Gerasimov, C. Hölzer
   A. Katbashev, J. Kohn, J. Koopman, C. Lavigne, S. Lehtola, F. März, M. Müller,
   F. Musil, H. Neugebauer, J. Pisarek, C. Plett, P. Pracht, F. Pultar,
   J. Seibert, P. Shushkov, S. Spicher, M. Stahn, M. Steiner, T. Strunk,
   J. Stückrath, T. Rose, and J. Unsleber
   
 * started run on 2025/05/15 at 16:31:47.182     
   ID    Z sym.   atoms
    1    8 O      1, 21
    2    6 C      2, 3, 5-15, 17-20, 22-24
    3    7 N      4, 16
    4    1 H      25-48

           -------------------------------------------------
          |                Calculation Setup                |
           -------------------------------------------------

          program call               : xtb /rds/general/user/hgt20/home/callum/QDESCP/Quinine_rdkit_conf_7/Quinine_rdkit_conf_7.xyz --opt normal --acc 1 --gfn 2 --chrg 0 --uhf 0 -P 1
          hostname                   : login-c
          coordinate file            : /rds/general/user/hgt20/home/callum/QDESCP/Quinine_rdkit_conf_7/Quinine_rdkit_conf_7.xyz
          omp threads                :                     1


           -------------------------------------------------
          |                 G F N 2 - x T B                 |
           -------------------------------------------------

        Reference                      10.1021/acs.jctc.8b01176
      * Hamiltonian:
        H0-scaling (s, p, d)           1.850000    2.230000    2.230000
        zeta-weighting                 0.500000
      * Dispersion:
        s8                             2.700000
        a1                             0.520000
        a2                             5.000000
        s9                             5.000000
      * Repulsion:
        kExp                           1.500000    1.000000
        rExp                           1.000000
      * Coulomb:
        alpha                          2.000000
        third order                    shell-resolved
        anisotropic                    true
        a3                             3.000000
        a5                             4.000000
        cn-shift                       1.200000
        cn-exp                         4.000000
        max-rad                        5.000000


          ...................................................
          :                      SETUP                      :
          :.................................................:
          :  # basis functions                 120          :
          :  # atomic orbitals                 120          :
          :  # shells                           72          :
          :  # electrons                       126          :
          :  max. iterations                   250          :
          :  Hamiltonian                  GFN2-xTB          :
          :  restarted?                      false          :
          :  GBSA solvation                  false          :
          :  PC potential                    false          :
          :  electronic temp.          300.0000000     K    :
          :  accuracy                    1.0000000          :
          :  -> integral cutoff          0.2500000E+02      :
          :  -> integral neglect         0.1000000E-07      :
          :  -> SCF convergence          0.1000000E-05 Eh   :
          :  -> wf. convergence          0.1000000E-03 e    :
          :  Broyden damping             0.4000000          :
          :  net charge                          0          :
          :  unpaired electrons                  0          :
          ...................................................

 iter      E             dE          RMSdq      gap      omega  full diag
   1    -69.8897710 -0.698898E+02  0.367E+00    2.52       0.0  T
   2    -69.9556632 -0.658922E-01  0.216E+00    2.50       1.0  T
   3    -69.9415088  0.141544E-01  0.940E-01    2.33       1.0  T
   4    -69.9581824 -0.166736E-01  0.417E-01    2.32       1.0  T
   5    -69.9641377 -0.595527E-02  0.109E-01    2.24       1.0  T
   6    -69.9645241 -0.386375E-03  0.528E-02    2.28       1.0  T
   7    -69.9645699 -0.458246E-04  0.252E-02    2.26       1.0  T
   8    -69.9645791 -0.918134E-05  0.960E-03    2.27       1.5  T
   9    -69.9645806 -0.151874E-05  0.286E-03    2.27       5.1  T
  10    -69.9645807 -0.980832E-07  0.128E-03    2.27      11.3  T
  11    -69.9645807 -0.324450E-07  0.609E-04    2.27      23.7  T
  12    -69.9645807 -0.331956E-08  0.264E-04    2.27      54.6  T

   *** convergence criteria satisfied after 12 iterations ***

         #    Occupation            Energy/Eh            Energy/eV
      -------------------------------------------------------------
         1        2.0000           -0.7151841             -19.4611
       ...           ...                  ...                  ...
        57        2.0000           -0.4234457             -11.5225
        58        2.0000           -0.4084216             -11.1137
        59        2.0000           -0.4035587             -10.9814
        60        2.0000           -0.3963787             -10.7860
        61        2.0000           -0.3757720             -10.2253
        62        2.0000           -0.3721117             -10.1257
        63        2.0000           -0.3604153              -9.8074 (HOMO)
        64                         -0.2770424              -7.5387 (LUMO)
        65                         -0.2270870              -6.1794
        66                         -0.2182065              -5.9377
        67                         -0.1996749              -5.4334
        68                         -0.1526313              -4.1533
       ...                                ...                  ...
       120                          0.6740741              18.3425
      -------------------------------------------------------------
                  HL-Gap            0.0833729 Eh            2.2687 eV
             Fermi-level           -0.3187288 Eh           -8.6731 eV

 SCC (total)                   0 d,  0 h,  0 min,  0.069 sec
 SCC setup                      ...        0 min,  0.000 sec (  0.638%)
 Dispersion                     ...        0 min,  0.001 sec (  0.841%)
 classical contributions        ...        0 min,  0.000 sec (  0.267%)
 integral evaluation            ...        0 min,  0.009 sec ( 13.367%)
 iterations                     ...        0 min,  0.030 sec ( 43.218%)
 molecular gradient             ...        0 min,  0.029 sec ( 41.371%)
 printout                       ...        0 min,  0.000 sec (  0.286%)

         :::::::::::::::::::::::::::::::::::::::::::::::::::::
         ::                     SUMMARY                     ::
         :::::::::::::::::::::::::::::::::::::::::::::::::::::
         :: total energy             -69.031189517013 Eh    ::
         :: gradient norm              0.105103807038 Eh/a0 ::
         :: HOMO-LUMO gap              2.268692549963 eV    ::
         ::.................................................::
         :: SCC energy               -69.963686755781 Eh    ::
         :: -> isotropic ES            0.056477837576 Eh    ::
         :: -> anisotropic ES          0.008581478816 Eh    ::
         :: -> anisotropic XC          0.037828575481 Eh    ::
         :: -> dispersion             -0.053613852946 Eh    ::
         :: repulsion energy           0.932497238769 Eh    ::
         :: add. restraining           0.000000000000 Eh    ::
         :: total charge              -0.000000000000 e     ::
         :::::::::::::::::::::::::::::::::::::::::::::::::::::

      ----------------------------------------------------------- 
     |                   =====================                   |
     |                        A N C O P T                        |
     |                   =====================                   |
     |               Approximate Normal Coordinate               |
     |                Rational Function Optimizer                |
      ----------------------------------------------------------- 
      ----------------------------------------------------------- 
     |                   =====================                   |
     |                        A N C O P T                        |
     |                   =====================                   |
     |               Approximate Normal Coordinate               |
     |                Rational Function Optimizer                |
      ----------------------------------------------------------- 

          ...................................................
          :                      SETUP                      :
          :.................................................:
          :   optimization level            normal          :
          :   max. optcycles                   200          :
          :   ANC micro-cycles                  20          :
          :   degrees of freedom               138          :
          :.................................................:
          :   RF solver                   davidson          :
          :   write xtbopt.log                true          :
          :   linear?                        false          :
          :   energy convergence         0.5000000E-05 Eh   :
          :   grad. convergence          0.1000000E-02 Eh/α :
          :   maxmium RF displ.          1.0000000          :
          :   Hlow (freq-cutoff)         0.1000000E-01      :
          :   Hmax (freq-cutoff)         5.0000000          :
          :   S6 in model hess.         20.0000000          :
          ...................................................

generating ANC from exact Hessian ...
Using Lindh-Hessian (1995)
 Shifting diagonal of input Hessian by    9.7760811167009465E-003
 Lowest  eigenvalues of input Hessian
    0.000000    0.000000    0.000000    0.000000    0.000000    0.000000
    0.010000    0.010101    0.010378    0.010843    0.011564    0.012504
    0.013414    0.013978    0.014284    0.014652    0.015662    0.016271
 Highest eigenvalues
    1.852417    1.858748    1.921045    2.001230    2.052467    2.168322


........................................................................
.............................. CYCLE    1 ..............................
........................................................................

 iter      E             dE          RMSdq      gap      omega  full diag
   1    -69.9645807 -0.699646E+02  0.117E-04    2.27       0.0  T
   2    -69.9645807 -0.332534E-10  0.947E-05    2.27     152.4  T
   3    -69.9645807 -0.321350E-09  0.447E-05    2.27     323.1  T
     SCC iter.                  ...        0 min,  0.008 sec
     gradient                   ...        0 min,  0.075 sec
 * total energy  :   -69.0311895 Eh     change       -0.1637389E-08 Eh
   gradient norm :     0.1051047 Eh/α   predicted     0.0000000E+00 (-100.00%)
   displ. norm   :     0.3281021 α      lambda       -0.1587282E-01
   maximum displ.:     0.1283818 α      in ANC's #44, #12, #28, ...

........................................................................
.............................. CYCLE    2 ..............................
........................................................................

 iter      E             dE          RMSdq      gap      omega  full diag
   1    -70.0062210 -0.700062E+02  0.182E-01    2.38       0.0  T
   2    -70.0063083 -0.873450E-04  0.112E-01    2.41       1.0  T
   3    -70.0062668  0.415493E-04  0.429E-02    2.40       1.0  T
   4    -70.0063233 -0.565477E-04  0.119E-02    2.40       1.2  T
   5    -70.0063293 -0.597266E-05  0.392E-03    2.40       3.7  T
   6    -70.0063296 -0.253849E-06  0.174E-03    2.41       8.3  T
   7    -70.0063296 -0.141472E-07  0.770E-04    2.40      18.7  T
   8    -70.0063296 -0.136615E-07  0.276E-04    2.40      52.2  T
     SCC iter.                  ...        0 min,  0.019 sec
     gradient                   ...        0 min,  0.045 sec
 * total energy  :   -69.0419121 Eh     change       -0.1072263E-01 Eh
   gradient norm :     0.0422232 Eh/α   predicted    -0.8798527E-02 ( -17.94%)
   displ. norm   :     0.2657045 α      lambda       -0.4107956E-02
   maximum displ.:     0.1201764 α      in ANC's #12, #44, #7, ...

........................................................................
.............................. CYCLE    3 ..............................
........................................................................

 iter      E             dE          RMSdq      gap      omega  full diag
   1    -70.0281238 -0.700281E+02  0.106E-01    2.48       0.0  T
   2    -70.0281692 -0.454278E-04  0.664E-02    2.49       1.0  T
   3    -70.0281574  0.118476E-04  0.285E-02    2.49       1.0  T
   4    -70.0281752 -0.178182E-04  0.849E-03    2.49       1.7  T
   5    -70.0281780 -0.283860E-05  0.254E-03    2.49       5.7  T
   6    -70.0281782 -0.161730E-06  0.105E-03    2.49      13.7  T
   7    -70.0281782 -0.589937E-08  0.494E-04    2.49      29.2  T
   8    -70.0281782 -0.531334E-08  0.175E-04    2.49      82.4  T
     SCC iter.                  ...        0 min,  0.019 sec
     gradient                   ...        0 min,  0.029 sec
 * total energy  :   -69.0442172 Eh     change       -0.2305071E-02 Eh
   gradient norm :     0.0093980 Eh/α   predicted    -0.2200212E-02 (  -4.55%)
   displ. norm   :     0.1591564 α      lambda       -0.4847946E-03
   maximum displ.:     0.0860457 α      in ANC's #12, #7, #4, ...

........................................................................
.............................. CYCLE    4 ..............................
........................................................................

 iter      E             dE          RMSdq      gap      omega  full diag
   1    -70.0290707 -0.700291E+02  0.395E-02    2.50       0.0  T
   2    -70.0290733 -0.254189E-05  0.238E-02    2.49       1.0  T
   3    -70.0290703  0.298783E-05  0.848E-03    2.50       1.7  T
   4    -70.0290737 -0.346888E-05  0.225E-03    2.50       6.4  T
   5    -70.0290739 -0.200208E-06  0.710E-04    2.50      20.3  T
   6    -70.0290739 -0.662027E-08  0.359E-04    2.50      40.3  T
     SCC iter.                  ...        0 min,  0.014 sec
     gradient                   ...        0 min,  0.029 sec
 * total energy  :   -69.0445636 Eh     change       -0.3464065E-03 Eh
   gradient norm :     0.0050120 Eh/α   predicted    -0.2485520E-03 ( -28.25%)
   displ. norm   :     0.1946323 α      lambda       -0.3050619E-03
   maximum displ.:     0.0874299 α      in ANC's #12, #7, #4, ...

........................................................................
.............................. CYCLE    5 ..............................
........................................................................

 iter      E             dE          RMSdq      gap      omega  full diag
   1    -70.0286648 -0.700287E+02  0.457E-02    2.50       0.0  T
   2    -70.0286665 -0.173213E-05  0.274E-02    2.49       1.0  T
   3    -70.0286626  0.394201E-05  0.910E-03    2.50       1.6  T
   4    -70.0286671 -0.453162E-05  0.189E-03    2.49       7.6  T
   5    -70.0286672 -0.116187E-06  0.722E-04    2.49      20.0  T
   6    -70.0286672 -0.355701E-08  0.337E-04    2.49      42.8  T
     SCC iter.                  ...        0 min,  0.053 sec
     gradient                   ...        0 min,  0.029 sec
 * total energy  :   -69.0447450 Eh     change       -0.1814195E-03 Eh
   gradient norm :     0.0029580 Eh/α   predicted    -0.1583786E-03 ( -12.70%)
   displ. norm   :     0.1116721 α      lambda       -0.8215409E-04
   maximum displ.:     0.0514052 α      in ANC's #5, #3, #7, ...

........................................................................
.............................. CYCLE    6 ..............................
........................................................................

 iter      E             dE          RMSdq      gap      omega  full diag
   1    -70.0286526 -0.700287E+02  0.299E-02    2.49       0.0  T
   2    -70.0286529 -0.305922E-06  0.176E-02    2.49       1.0  T
   3    -70.0286524  0.526526E-06  0.372E-03    2.49       3.9  T
   4    -70.0286531 -0.650289E-06  0.920E-04    2.49      15.7  T
   5    -70.0286531 -0.132925E-07  0.392E-04    2.49      36.8  T
     SCC iter.                  ...        0 min,  0.012 sec
     gradient                   ...        0 min,  0.050 sec
 * total energy  :   -69.0447992 Eh     change       -0.5418022E-04 Eh
   gradient norm :     0.0026318 Eh/α   predicted    -0.4159039E-04 ( -23.24%)
   displ. norm   :     0.1432158 α      lambda       -0.8158547E-04
   maximum displ.:     0.0808481 α      in ANC's #5, #3, #7, ...

........................................................................
.............................. CYCLE    7 ..............................
........................................................................

 iter      E             dE          RMSdq      gap      omega  full diag
   1    -70.0288280 -0.700288E+02  0.388E-02    2.49       0.0  T
   2    -70.0288285 -0.515510E-06  0.227E-02    2.49       1.0  T
   3    -70.0288284  0.131061E-06  0.295E-03    2.49       4.9  T
   4    -70.0288287 -0.271430E-06  0.119E-03    2.49      12.1  T
   5    -70.0288287 -0.216201E-07  0.459E-04    2.49      31.5  T
   6    -70.0288287 -0.530808E-08  0.153E-04    2.49      94.1  T
     SCC iter.                  ...        0 min,  0.014 sec
     gradient                   ...        0 min,  0.029 sec
 * total energy  :   -69.0448585 Eh     change       -0.5926937E-04 Eh
   gradient norm :     0.0021936 Eh/α   predicted    -0.4162949E-04 ( -29.76%)
   displ. norm   :     0.1357337 α      lambda       -0.6517246E-04
   maximum displ.:     0.0807306 α      in ANC's #5, #3, #4, ...

........................................................................
.............................. CYCLE    8 ..............................
........................................................................

 iter      E             dE          RMSdq      gap      omega  full diag
   1    -70.0291973 -0.700292E+02  0.371E-02    2.49       0.0  T
   2    -70.0291977 -0.459258E-06  0.216E-02    2.49       1.0  T
   3    -70.0291977  0.321303E-08  0.211E-03    2.49       6.8  T
   4    -70.0291979 -0.120927E-06  0.110E-03    2.49      13.1  T
   5    -70.0291979 -0.248376E-07  0.453E-04    2.49      31.8  T
   6    -70.0291979 -0.388178E-08  0.131E-04    2.49     110.1  T
     SCC iter.                  ...        0 min,  0.042 sec
     gradient                   ...        0 min,  0.029 sec
 * total energy  :   -69.0449083 Eh     change       -0.4978519E-04 Eh
   gradient norm :     0.0019241 Eh/α   predicted    -0.3318948E-04 ( -33.33%)
   displ. norm   :     0.1941812 α      lambda       -0.4581964E-04
   maximum displ.:     0.1183627 α      in ANC's #3, #5, #4, ...

........................................................................
.............................. CYCLE    9 ..............................
........................................................................

 iter      E             dE          RMSdq      gap      omega  full diag
   1    -70.0294807 -0.700295E+02  0.507E-02    2.49       0.0  T
   2    -70.0294815 -0.807479E-06  0.295E-02    2.49       1.0  T
   3    -70.0294813  0.187525E-06  0.343E-03    2.49       4.2  T
   4    -70.0294818 -0.440941E-06  0.147E-03    2.49       9.8  T
   5    -70.0294818 -0.280539E-07  0.566E-04    2.49      25.5  T
   6    -70.0294818 -0.841735E-08  0.162E-04    2.49      89.2  T
     SCC iter.                  ...        0 min,  0.051 sec
     gradient                   ...        0 min,  0.029 sec
 * total energy  :   -69.0449505 Eh     change       -0.4221761E-04 Eh
   gradient norm :     0.0017387 Eh/α   predicted    -0.2329460E-04 ( -44.82%)
   displ. norm   :     0.0848150 α      lambda       -0.1481988E-04
   maximum displ.:     0.0584959 α      in ANC's #3, #5, #2, ...

........................................................................
.............................. CYCLE   10 ..............................
........................................................................

 iter      E             dE          RMSdq      gap      omega  full diag
   1    -70.0296100 -0.700296E+02  0.209E-02    2.49       0.0  T
   2    -70.0296102 -0.191086E-06  0.122E-02    2.49       1.2  T
   3    -70.0296102  0.687490E-07  0.162E-03    2.49       8.9  T
   4    -70.0296103 -0.111783E-06  0.612E-04    2.49      23.6  T
   5    -70.0296103 -0.740548E-08  0.287E-04    2.49      50.3  T
     SCC iter.                  ...        0 min,  0.012 sec
     gradient                   ...        0 min,  0.050 sec
 * total energy  :   -69.0449676 Eh     change       -0.1711029E-04 Eh
   gradient norm :     0.0008641 Eh/α   predicted    -0.7433943E-05 ( -56.55%)
   displ. norm   :     0.0848664 α      lambda       -0.1360469E-04
   maximum displ.:     0.0596983 α      in ANC's #3, #5, #2, ...

........................................................................
.............................. CYCLE   11 ..............................
........................................................................

 iter      E             dE          RMSdq      gap      omega  full diag
   1    -70.0296586 -0.700297E+02  0.201E-02    2.49       0.0  T
   2    -70.0296587 -0.158293E-06  0.118E-02    2.49       1.2  T
   3    -70.0296586  0.104540E-06  0.174E-03    2.49       8.3  T
   4    -70.0296588 -0.139492E-06  0.612E-04    2.49      23.6  T
   5    -70.0296588 -0.957071E-08  0.271E-04    2.49      53.2  T
     SCC iter.                  ...        0 min,  0.012 sec
     gradient                   ...        0 min,  0.029 sec
 * total energy  :   -69.0449823 Eh     change       -0.1470570E-04 Eh
   gradient norm :     0.0008649 Eh/α   predicted    -0.6825333E-05 ( -53.59%)
   displ. norm   :     0.0783928 α      lambda       -0.9382633E-05
   maximum displ.:     0.0555407 α      in ANC's #3, #2, #7, ...

........................................................................
.............................. CYCLE   12 ..............................
........................................................................

 iter      E             dE          RMSdq      gap      omega  full diag
   1    -70.0294822 -0.700295E+02  0.176E-02    2.49       0.0  T
   2    -70.0294823 -0.770353E-07  0.103E-02    2.49       1.4  T
   3    -70.0294822  0.135308E-06  0.180E-03    2.49       8.0  T
   4    -70.0294823 -0.167680E-06  0.454E-04    2.49      31.8  T
   5    -70.0294823 -0.265858E-08  0.201E-04    2.49      71.9  T
     SCC iter.                  ...        0 min,  0.012 sec
     gradient                   ...        0 min,  0.051 sec
 * total energy  :   -69.0449925 Eh     change       -0.1021968E-04 Eh
   gradient norm :     0.0009494 Eh/α   predicted    -0.4705494E-05 ( -53.96%)
   displ. norm   :     0.0669836 α      lambda       -0.6856821E-05
   maximum displ.:     0.0477511 α      in ANC's #3, #2, #1, ...

........................................................................
.............................. CYCLE   13 ..............................
........................................................................

 iter      E             dE          RMSdq      gap      omega  full diag
   1    -70.0294406 -0.700294E+02  0.141E-02    2.49       0.0  T
   2    -70.0294407 -0.417282E-07  0.830E-03    2.49       1.7  T
   3    -70.0294406  0.114659E-06  0.167E-03    2.49       8.7  T
   4    -70.0294407 -0.137905E-06  0.349E-04    2.49      41.4  T
   5    -70.0294407 -0.912465E-09  0.152E-04    2.49      95.1  T
     SCC iter.                  ...        0 min,  0.063 sec
     gradient                   ...        0 min,  0.029 sec
 * total energy  :   -69.0450009 Eh     change       -0.8367741E-05 Eh
   gradient norm :     0.0006290 Eh/α   predicted    -0.3436423E-05 ( -58.93%)
   displ. norm   :     0.0740591 α      lambda       -0.7074834E-05
   maximum displ.:     0.0514094 α      in ANC's #3, #2, #1, ...

........................................................................
.............................. CYCLE   14 ..............................
........................................................................

 iter      E             dE          RMSdq      gap      omega  full diag
   1    -70.0294707 -0.700295E+02  0.156E-02    2.49       0.0  T
   2    -70.0294708 -0.544207E-07  0.919E-03    2.49       1.6  T
   3    -70.0294707  0.955546E-07  0.156E-03    2.49       9.2  T
   4    -70.0294708 -0.118941E-06  0.406E-04    2.49      35.5  T
   5    -70.0294708 -0.203038E-08  0.187E-04    2.49      77.3  T
     SCC iter.                  ...        0 min,  0.012 sec
     gradient                   ...        0 min,  0.056 sec
 * total energy  :   -69.0450097 Eh     change       -0.8816146E-05 Eh
   gradient norm :     0.0004429 Eh/α   predicted    -0.3548822E-05 ( -59.75%)
   displ. norm   :     0.0927478 α      lambda       -0.7917261E-05
   maximum displ.:     0.0627052 α      in ANC's #3, #2, #4, ...

........................................................................
.............................. CYCLE   15 ..............................
........................................................................

 iter      E             dE          RMSdq      gap      omega  full diag
   1    -70.0294464 -0.700294E+02  0.197E-02    2.49       0.0  T
   2    -70.0294465 -0.689239E-07  0.116E-02    2.49       1.2  T
   3    -70.0294464  0.200035E-07  0.111E-03    2.49      13.0  T
   4    -70.0294465 -0.444508E-07  0.467E-04    2.49      30.9  T
   5    -70.0294465 -0.207329E-08  0.211E-04    2.49      68.5  T
     SCC iter.                  ...        0 min,  0.012 sec
     gradient                   ...        0 min,  0.029 sec
 * total energy  :   -69.0450194 Eh     change       -0.9637988E-05 Eh
   gradient norm :     0.0006617 Eh/α   predicted    -0.3975754E-05 ( -58.75%)
   displ. norm   :     0.1110122 α      lambda       -0.8198663E-05
   maximum displ.:     0.0741429 α      in ANC's #3, #2, #4, ...

........................................................................
.............................. CYCLE   16 ..............................
........................................................................

 iter      E             dE          RMSdq      gap      omega  full diag
   1    -70.0294247 -0.700294E+02  0.230E-02    2.49       0.0  T
   2    -70.0294248 -0.938356E-07  0.135E-02    2.49       1.1  T
   3    -70.0294248  0.650471E-08  0.112E-03    2.49      12.9  T
   4    -70.0294248 -0.421238E-07  0.535E-04    2.49      27.0  T
   5    -70.0294248 -0.262493E-08  0.193E-04    2.49      75.0  T
     SCC iter.                  ...        0 min,  0.039 sec
     gradient                   ...        0 min,  0.029 sec
 * total energy  :   -69.0450293 Eh     change       -0.9964828E-05 Eh
   gradient norm :     0.0007467 Eh/α   predicted    -0.4124334E-05 ( -58.61%)
   displ. norm   :     0.1219143 α      lambda       -0.7780380E-05
   maximum displ.:     0.0812001 α      in ANC's #3, #2, #4, ...

........................................................................
.............................. CYCLE   17 ..............................
........................................................................

 iter      E             dE          RMSdq      gap      omega  full diag
   1    -70.0294547 -0.700295E+02  0.250E-02    2.49       0.0  T
   2    -70.0294548 -0.101025E-06  0.147E-02    2.49       1.0  T
   3    -70.0294548  0.198801E-07  0.123E-03    2.49      11.7  T
   4    -70.0294548 -0.583799E-07  0.573E-04    2.49      25.2  T
   5    -70.0294548 -0.304188E-08  0.237E-04    2.49      61.0  T
     SCC iter.                  ...        0 min,  0.057 sec
     gradient                   ...        0 min,  0.029 sec
 * total energy  :   -69.0450387 Eh     change       -0.9367060E-05 Eh
   gradient norm :     0.0005691 Eh/α   predicted    -0.3916714E-05 ( -58.19%)
   displ. norm   :     0.1246670 α      lambda       -0.6749909E-05
   maximum displ.:     0.0831243 α      in ANC's #3, #2, #4, ...

........................................................................
.............................. CYCLE   18 ..............................
........................................................................

 iter      E             dE          RMSdq      gap      omega  full diag
   1    -70.0294353 -0.700294E+02  0.252E-02    2.49       0.0  T
   2    -70.0294354 -0.111613E-06  0.148E-02    2.49       1.0  T
   3    -70.0294354  0.486591E-07  0.144E-03    2.49      10.0  T
   4    -70.0294355 -0.929931E-07  0.593E-04    2.49      24.3  T
   5    -70.0294355 -0.197099E-08  0.271E-04    2.49      53.2  T
     SCC iter.                  ...        0 min,  0.012 sec
     gradient                   ...        0 min,  0.062 sec
 * total energy  :   -69.0450464 Eh     change       -0.7738046E-05 Eh
   gradient norm :     0.0003877 Eh/α   predicted    -0.3399002E-05 ( -56.07%)
   displ. norm   :     0.1102098 α      lambda       -0.4881863E-05
   maximum displ.:     0.0735688 α      in ANC's #3, #2, #4, ...

........................................................................
.............................. CYCLE   19 ..............................
........................................................................

 iter      E             dE          RMSdq      gap      omega  full diag
   1    -70.0294415 -0.700294E+02  0.222E-02    2.49       0.0  T
   2    -70.0294416 -0.753222E-07  0.131E-02    2.49       1.1  T
   3    -70.0294416  0.264061E-07  0.113E-03    2.49      12.7  T
   4    -70.0294417 -0.559329E-07  0.480E-04    2.49      30.1  T
   5    -70.0294417 -0.141236E-08  0.213E-04    2.49      67.8  T
     SCC iter.                  ...        0 min,  0.012 sec
     gradient                   ...        0 min,  0.061 sec
 * total energy  :   -69.0450517 Eh     change       -0.5242694E-05 Eh
   gradient norm :     0.0003429 Eh/α   predicted    -0.2455785E-05 ( -53.16%)
   displ. norm   :     0.0833622 α      lambda       -0.2990670E-05
   maximum displ.:     0.0554411 α      in ANC's #3, #2, #4, ...

........................................................................
.............................. CYCLE   20 ..............................
........................................................................

 iter      E             dE          RMSdq      gap      omega  full diag
   1    -70.0294842 -0.700295E+02  0.164E-02    2.49       0.0  T
   2    -70.0294842 -0.431329E-07  0.964E-03    2.49       1.5  T
   3    -70.0294842  0.131436E-07  0.850E-04    2.49      17.0  T
   4    -70.0294843 -0.305104E-07  0.362E-04    2.49      39.8  T
     SCC iter.                  ...        0 min,  0.009 sec
     gradient                   ...        0 min,  0.029 sec
 * total energy  :   -69.0450547 Eh     change       -0.3077533E-05 Eh
   gradient norm :     0.0003182 Eh/α   predicted    -0.1503984E-05 ( -51.13%)
   displ. norm   :     0.0517784 α      lambda       -0.1557184E-05
   maximum displ.:     0.0336997 α      in ANC's #3, #2, #8, ...

   *** GEOMETRY OPTIMIZATION CONVERGED AFTER 20 ITERATIONS ***

------------------------------------------------------------------------
 total energy gain   :        -0.0138652 Eh       -8.7006 kcal/mol
 total RMSD          :         0.2465854 a0        0.1305 Å
 total power (kW/mol):        -1.8201575 (step)  -23.1382 (real)
------------------------------------------------------------------------

 ANCopt (total)                0 d,  0 h,  0 min,  1.573 sec
 optimizer setup                ...        0 min,  0.000 sec (  0.005%)
 model hessian                  ...        0 min,  0.055 sec (  3.470%)
 ANC generation                 ...        0 min,  0.002 sec (  0.121%)
 coordinate transformation      ...        0 min,  0.000 sec (  0.011%)
 single point calculation       ...        0 min,  1.508 sec ( 95.878%)
 optimization log               ...        0 min,  0.005 sec (  0.287%)
 hessian update                 ...        0 min,  0.000 sec (  0.019%)
 rational function              ...        0 min,  0.001 sec (  0.080%)

================
 final structure:
================
48
 xtb: 6.7.1 (edcfbbe)
O            0.97293051550071        1.30451436864031       -1.68595691161853
C            0.28967434382524        1.25101072464309       -0.45586596164322
C           -0.49596849148280       -0.07599984136721       -0.34512653322636
N           -1.20706345498834       -0.33099648706735       -1.60040520486636
C           -1.60075414233873       -1.73366801451514       -1.62747303608128
C           -2.38164308830380       -2.10551390866550       -0.34846768010918
C           -2.39960929219185        0.49737218630562       -1.71241190719423
C           -3.47222571249703        0.09855873342235       -0.66881339085969
C           -4.11660377235370        1.29618068515952       -0.04939049069442
C           -5.41509923985061        1.53316306462060       -0.07145043902641
C           -2.75736861500378       -0.79920946616688        0.36108137911485
C           -1.46990600534935       -0.12218793385324        0.84363054437060
C            1.22339703298518        1.37652207753640        0.72359767797180
C            0.88480253663738        2.22308962978084        1.75273651978086
C            1.68450098188784        2.28010898143754        2.90290386771992
N            2.75706189032259        1.55991791168542        3.07199182551009
C            3.13423917033990        0.73638616920459        2.07755256422201
C            2.40812300500794        0.60553631720129        0.85885755684453
C            2.89687201673544       -0.26560691103786       -0.13595561670202
C            4.04676786875322       -0.98767056393119        0.06866978098063
O            4.60086532391988       -1.84354629454810       -0.83294786346566
C            3.98796546471074       -1.97574369372240       -2.09238361565565
C            4.74937586531891       -0.87254714187417        1.29073417782686
C            4.30655342983001       -0.03044361954895        2.26333552852287
H            0.39822792661509        0.86945091101764       -2.33384648941855
H           -0.42122011280798        2.09443643873906       -0.40753817737500
H            0.24489683721945       -0.87672431223372       -0.24814802445593
H           -2.21024976858898       -1.88807087740010       -2.52032604203563
H           -0.69812116800445       -2.34182314296073       -1.72867565342645
H           -3.27905695436236       -2.67384137172005       -0.59544380392238
H           -1.76925149394760       -2.71667196678834        0.31648997740911
H           -2.79010971680066        0.38632415613147       -2.72736643330923
H           -2.11371002326799        1.54247498443233       -1.58401830787528
H           -4.25294376050691       -0.49972993166340       -1.14959948838061
H           -3.45012088213151        1.99911316212757        0.43321136866046
H           -6.10735852073311        0.85724842603335       -0.54664641638389
H           -5.84395543371226        2.41004134066337        0.38268867388246
H           -3.42125279104489       -0.99824698905574        1.20646466843375
H           -1.68655526982481        0.88167047460512        1.20953621291520
H           -1.03402495086231       -0.68402609798740        1.67090566501241
H            0.00370094549694        2.84495230540409        1.68947615519014
H            1.42055619183053        2.94037177066050        3.71939239981659
H            2.36923260783510       -0.31376754373111       -1.07233105927109
H            3.94750527142933       -1.01830271703222       -2.62097252011351
H            4.60931232568672       -2.67333829956000       -2.65186252053290
H            2.97536574903721       -2.38350063065835       -2.00503605947006
H            5.64550353231704       -1.46067138106984        1.41327369300925
H            4.83674182771039        0.08350431870180        3.19552940991466

 Bond Distances (Angstroems)
 ---------------------------
O1-C2=1.4081         O1-H25=0.9692        C2-O1=1.4081         C2-C3=1.5461         C2-C13=1.5095        C2-H26=1.1041        
C3-C2=1.5461         C3-N4=1.4651         C3-C12=1.5375        C3-H27=1.0952        N4-C3=1.4651         N4-C5=1.4571         
N4-C7=1.4563         C5-N4=1.4571         C5-C6=1.5440         C5-H28=1.0920        C5-H29=1.0931        C6-C5=1.5440         
C6-C11=1.5333        C6-H30=1.0906        C6-H31=1.0912        C7-N4=1.4563         C7-C8=1.5488         C7-H32=1.0931        
C7-H33=1.0911        C8-C7=1.5488         C8-C9=1.4944         C8-C11=1.5420        C8-H34=1.0948        C9-C8=1.4944         
C9-C10=1.3201        C9-H35=1.0822        C10-C9=1.3201        C10-H36=1.0779       C10-H37=1.0766       C11-C6=1.5333        
C11-C8=1.5420        C11-C12=1.5326       C11-H38=1.0932       C12-C3=1.5375        C12-C11=1.5326       C12-H39=1.0902       
C12-H40=1.0909       C13-C2=1.5095        C13-C14=1.3749       C13-C18=1.4200       C14-C13=1.3749       C14-C15=1.4020       
C14-H41=1.0803       C15-C14=1.4020       C15-N16=1.3029       C15-H42=1.0827       N16-C15=1.3029       N16-C17=1.3451       
C17-N16=1.3451       C17-C18=1.4246       C17-C24=1.4131       C18-C13=1.4200       C18-C17=1.4246       C18-C19=1.4098       
C19-C18=1.4098       C19-C20=1.3731       C19-H43=1.0759       C20-C19=1.3731       C20-O21=1.3611       C20-C23=1.4143       
O21-C20=1.3611       O21-C22=1.4069       C22-O21=1.4069       C22-H44=1.0944       C22-H45=1.0889       C22-H46=1.0951       
C23-C20=1.4143       C23-C24=1.3606       C23-H47=1.0789       C24-C17=1.4131       C24-C23=1.3606       C24-H48=1.0785       
H25-O1=0.9692        H26-C2=1.1041        H27-C3=1.0952        H28-C5=1.0920        H29-C5=1.0931        H30-C6=1.0906        
H31-C6=1.0912        H32-C7=1.0931        H33-C7=1.0911        H34-C8=1.0948        H35-C9=1.0822        H36-C10=1.0779       
H37-C10=1.0766       H38-C11=1.0932       H39-C12=1.0902       H40-C12=1.0909       H41-C14=1.0803       H42-C15=1.0827       
H43-C19=1.0759       H44-C22=1.0944       H45-C22=1.0889       H46-C22=1.0951       H47-C23=1.0789       H48-C24=1.0785       
 C  H  Rav=1.0883 sigma=0.0074  Rmin=1.0759  Rmax=1.1041    23
 C  C  Rav=1.4579 sigma=0.0749  Rmin=1.3201  Rmax=1.5488    19
 N  C  Rav=1.4053 sigma=0.0678  Rmin=1.3029  Rmax=1.4651     5
 O  H  Rav=0.9692 sigma=0.0000  Rmin=0.9692  Rmax=0.9692     1
 O  C  Rav=1.3920 sigma=0.0219  Rmin=1.3611  Rmax=1.4081     3

 selected bond angles (degree)
 --------------------
H25-O1-C2=106.21               C3-C2-O1=109.98                C13-C2-O1=112.29               C13-C2-C3=109.25               
H26-C2-O1=108.76               H26-C2-C3=108.99               H26-C2-C13=107.49              N4-C3-C2=109.55                
C12-C3-C2=113.77               C12-C3-N4=110.47               H27-C3-C2=106.87               H27-C3-N4=106.08               
H27-C3-C12=109.76              C5-N4-C3=108.34                C7-N4-C3=111.37                C7-N4-C5=108.96                
C6-C5-N4=110.68                H28-C5-N4=107.58               H28-C5-C6=111.16               H29-C5-N4=108.31               
H29-C5-C6=111.12               H29-C5-H28=107.85              C11-C6-C5=107.58               H30-C6-C5=110.74               
H30-C6-C11=110.31              H31-C6-C5=110.85               H31-C6-C11=109.43              H31-C6-H30=107.94              
C8-C7-N4=111.64                H32-C7-N4=107.83               H32-C7-C8=110.61               H33-C7-N4=108.74               
H33-C7-C8=110.42               H33-C7-H32=107.47              C9-C8-C7=111.81                C11-C8-C7=106.19               
C11-C8-C9=112.93               H34-C8-C7=109.80               H34-C8-C9=108.21               H34-C8-C11=107.80              
C10-C9-C8=124.13               H35-C9-C8=116.09               H35-C9-C10=119.78              H36-C10-C9=121.77              
H37-C10-C9=122.07              H37-C10-H36=116.16             

 selected dihedral angles (degree)
 ---------------------------------
C3-C2-O1-H25= 35.56           C13-C2-O1-H25=157.44          H26-C2-O1-H25=276.28          N4-C3-C2-O1=314.50            
N4-C3-C2-C13=190.83           N4-C3-C2-H26= 73.64           C12-C3-C2-O1=190.31           C12-C3-C2-C13= 66.63          
C12-C3-C2-H26=309.45          H27-C3-C2-O1= 69.00           H27-C3-C2-C13=305.33          H27-C3-C2-H26=188.15          
C5-N4-C3-C2=163.33            C5-N4-C3-C12=289.43           C5-N4-C3-H27= 48.32           C7-N4-C3-C2=283.14            
C7-N4-C3-C12= 49.24           C7-N4-C3-H27=168.13           C6-C5-N4-C3= 53.08            C6-C5-N4-C7=291.77            
H28-C5-N4-C3=174.70           H28-C5-N4-C7= 53.39           H29-C5-N4-C3=291.04           H29-C5-N4-C7=169.72           
C11-C6-C5-N4= 12.96           C11-C6-C5-H28=253.47          C11-C6-C5-H29=133.34          H30-C6-C5-N4=133.58           
H30-C6-C5-H28= 14.09          H30-C6-C5-H29=253.96          H31-C6-C5-N4=253.35           H31-C6-C5-H28=133.86          
H31-C6-C5-H29= 13.73          C8-C7-N4-C3=292.46            C8-C7-N4-C5= 51.91            H32-C7-N4-C3=170.76           
H32-C7-N4-C5=290.21           H33-C7-N4-C3= 54.53           H33-C7-N4-C5=173.97           C9-C8-C7-N4=137.87            
C9-C8-C7-H32=257.95           C9-C8-C7-H33= 16.78           C11-C8-C7-N4= 14.28           C11-C8-C7-H32=134.36          
C11-C8-C7-H33=253.19          H34-C8-C7-N4=257.99           H34-C8-C7-H32= 18.07          H34-C8-C7-H33=136.90          
C10-C9-C8-C7=122.71           C10-C9-C8-C11=242.41          C10-C9-C8-H34=  1.66          H35-C9-C8-C7=303.21           
H35-C9-C8-C11= 62.92          H35-C9-C8-H34=182.17          H36-C10-C9-C8=  0.26          H36-C10-C9-H35=179.73         
H37-C10-C9-C8=180.25          H37-C10-C9-H35=359.73         
           -------------------------------------------------
          |                Final Singlepoint                |
           -------------------------------------------------

          ...................................................
          :                      SETUP                      :
          :.................................................:
          :  # basis functions                 120          :
          :  # atomic orbitals                 120          :
          :  # shells                           72          :
          :  # electrons                       126          :
          :  max. iterations                   250          :
          :  Hamiltonian                  GFN2-xTB          :
          :  restarted?                      false          :
          :  GBSA solvation                  false          :
          :  PC potential                    false          :
          :  electronic temp.          300.0000000     K    :
          :  accuracy                    1.0000000          :
          :  -> integral cutoff          0.2500000E+02      :
          :  -> integral neglect         0.1000000E-07      :
          :  -> SCF convergence          0.1000000E-05 Eh   :
          :  -> wf. convergence          0.1000000E-03 e    :
          :  Broyden damping             0.4000000          :
          :  net charge                          0          :
          :  unpaired electrons                  0          :
          ...................................................

 iter      E             dE          RMSdq      gap      omega  full diag
   1    -70.0294843 -0.700295E+02  0.156E-04    2.49       0.0  T
   2    -70.0294843 -0.207081E-09  0.121E-04    2.49     119.7  T
   3    -70.0294843 -0.511250E-09  0.461E-05    2.49     313.1  T

   *** convergence criteria satisfied after 3 iterations ***

         #    Occupation            Energy/Eh            Energy/eV
      -------------------------------------------------------------
         1        2.0000           -0.7167238             -19.5030
       ...           ...                  ...                  ...
        57        2.0000           -0.4217650             -11.4768
        58        2.0000           -0.4095969             -11.1457
        59        2.0000           -0.4043558             -11.0031
        60        2.0000           -0.3957118             -10.7679
        61        2.0000           -0.3755309             -10.2187
        62        2.0000           -0.3672962              -9.9946
        63        2.0000           -0.3589581              -9.7677 (HOMO)
        64                         -0.2674359              -7.2773 (LUMO)
        65                         -0.2287011              -6.2233
        66                         -0.2121740              -5.7735
        67                         -0.1955085              -5.3201
        68                         -0.1478444              -4.0231
       ...                                ...                  ...
       120                          0.7041216              19.1601
      -------------------------------------------------------------
                  HL-Gap            0.0915222 Eh            2.4904 eV
             Fermi-level           -0.3131970 Eh           -8.5225 eV

 SCC (total)                   0 d,  0 h,  0 min,  0.083 sec
 SCC setup                      ...        0 min,  0.000 sec (  0.425%)
 Dispersion                     ...        0 min,  0.000 sec (  0.456%)
 classical contributions        ...        0 min,  0.000 sec (  0.222%)
 integral evaluation            ...        0 min,  0.009 sec ( 10.706%)
 iterations                     ...        0 min,  0.044 sec ( 52.789%)
 molecular gradient             ...        0 min,  0.029 sec ( 35.195%)
 printout                       ...        0 min,  0.000 sec (  0.199%)

         :::::::::::::::::::::::::::::::::::::::::::::::::::::
         ::                     SUMMARY                     ::
         :::::::::::::::::::::::::::::::::::::::::::::::::::::
         :: total energy             -69.045054746180 Eh    ::
         :: gradient norm              0.000318124356 Eh/a0 ::
         :: HOMO-LUMO gap              2.490445859309 eV    ::
         ::.................................................::
         :: SCC energy               -70.028520313801 Eh    ::
         :: -> isotropic ES            0.054671297359 Eh    ::
         :: -> anisotropic ES          0.007364971444 Eh    ::
         :: -> anisotropic XC          0.036140966100 Eh    ::
         :: -> dispersion             -0.054693705920 Eh    ::
         :: repulsion energy           0.983465567621 Eh    ::
         :: add. restraining           0.000000000000 Eh    ::
         :: total charge               0.000000000000 e     ::
         :::::::::::::::::::::::::::::::::::::::::::::::::::::

           -------------------------------------------------
          |                Property Printout                |
           -------------------------------------------------

    * Orbital Energies and Occupations

         #    Occupation            Energy/Eh            Energy/eV
      -------------------------------------------------------------
         1        2.0000           -0.7167238             -19.5030
       ...           ...                  ...                  ...
        51        2.0000           -0.4424096             -12.0386
        52        2.0000           -0.4416330             -12.0174
        53        2.0000           -0.4376251             -11.9084
        54        2.0000           -0.4365508             -11.8792
        55        2.0000           -0.4303033             -11.7091
        56        2.0000           -0.4274253             -11.6308
        57        2.0000           -0.4217650             -11.4768
        58        2.0000           -0.4095969             -11.1457
        59        2.0000           -0.4043558             -11.0031
        60        2.0000           -0.3957118             -10.7679
        61        2.0000           -0.3755309             -10.2187
        62        2.0000           -0.3672962              -9.9946
        63        2.0000           -0.3589581              -9.7677 (HOMO)
        64                         -0.2674359              -7.2773 (LUMO)
        65                         -0.2287011              -6.2233
        66                         -0.2121740              -5.7735
        67                         -0.1955085              -5.3201
        68                         -0.1478444              -4.0231
        69                         -0.0642147              -1.7474
        70                          0.0082313               0.2240
        71                          0.0210927               0.5740
        72                          0.0326598               0.8887
        73                          0.0352164               0.9583
        74                          0.0504005               1.3715
       ...                                ...                  ...
       120                          0.7041216              19.1601
      -------------------------------------------------------------
                  HL-Gap            0.0915222 Eh            2.4904 eV
             Fermi-level           -0.3131970 Eh           -8.5225 eV

     #   Z          covCN         q      C6AA      α(0)
     1   8 O        1.655    -0.446    21.765     6.298
     2   6 C        3.732     0.112    18.826     6.193
     3   6 C        3.826     0.034    19.986     6.361
     4   7 N        2.729    -0.199    25.323     7.474
     5   6 C        3.782     0.011    20.416     6.436
     6   6 C        3.809    -0.065    21.736     6.637
     7   6 C        3.775     0.009    20.453     6.444
     8   6 C        3.862    -0.029    21.044     6.524
     9   6 C        2.889    -0.032    28.792     8.797
    10   6 C        2.837    -0.094    30.343     9.027
    11   6 C        3.866    -0.006    20.635     6.460
    12   6 C        3.808    -0.064    21.715     6.633
    13   6 C        2.973     0.011    27.771     8.644
    14   6 C        2.917    -0.052    29.283     8.874
    15   6 C        2.904     0.059    26.672     8.468
    16   7 N        1.842    -0.232    26.917     7.689
    17   6 C        2.977     0.081    26.186     8.394
    18   6 C        2.984     0.003    27.963     8.674
    19   6 C        2.914    -0.079    29.985     8.979
    20   6 C        2.864     0.143    24.890     8.178
    21   8 O        1.705    -0.267    18.419     5.795
    22   6 C        3.645     0.036    20.294     6.475
    23   6 C        2.916    -0.048    29.186     8.859
    24   6 C        2.921    -0.039    28.967     8.826
    25   1 H        0.804     0.303     0.713     1.326
    26   1 H        0.923     0.014     2.832     2.632
    27   1 H        0.924     0.037     2.494     2.470
    28   1 H        0.924     0.034     2.526     2.485
    29   1 H        0.924     0.029     2.596     2.520
    30   1 H        0.924     0.030     2.586     2.515
    31   1 H        0.924     0.031     2.574     2.509
    32   1 H        0.924     0.031     2.570     2.507
    33   1 H        0.924     0.037     2.485     2.465
    34   1 H        0.924     0.034     2.531     2.488
    35   1 H        0.925     0.029     2.596     2.520
    36   1 H        0.926     0.036     2.503     2.474
    37   1 H        0.926     0.037     2.485     2.465
    38   1 H        0.924     0.024     2.670     2.555
    39   1 H        0.924     0.032     2.551     2.498
    40   1 H        0.924     0.027     2.623     2.533
    41   1 H        0.926     0.026     2.638     2.540
    42   1 H        0.925     0.036     2.501     2.473
    43   1 H        0.926     0.062     2.177     2.307
    44   1 H        0.924     0.046     2.364     2.405
    45   1 H        0.925     0.062     2.180     2.309
    46   1 H        0.924     0.038     2.475     2.460
    47   1 H        0.926     0.054     2.274     2.358
    48   1 H        0.926     0.060     2.201     2.320

 Mol. C6AA /au·bohr⁶  :      24099.416701
 Mol. C8AA /au·bohr⁸  :     561775.374002
 Mol. α(0) /au        :        239.272395


Wiberg/Mayer (AO) data.
largest (>0.10) Wiberg bond orders for each atom

 ---------------------------------------------------------------------------
     #   Z sym  total        # sym  WBO       # sym  WBO       # sym  WBO
 ---------------------------------------------------------------------------
     1   8 O    1.963 --     2 C    0.993    25 H    0.875
     2   6 C    3.961 --     1 O    0.993    13 C    0.991     3 C    0.953
                            26 H    0.949
     3   6 C    3.982 --     4 N    0.987    12 C    0.984    27 H    0.962
                             2 C    0.953
     4   7 N    3.136 --     7 C    1.004     5 C    1.000     3 C    0.987
     5   6 C    3.986 --     4 N    1.000     6 C    0.989    28 H    0.976
                            29 H    0.976
     6   6 C    3.997 --    11 C    0.997     5 C    0.989    30 H    0.980
                            31 H    0.979
     7   6 C    3.986 --     4 N    1.004    32 H    0.975    33 H    0.969
                             8 C    0.963
     8   6 C    3.995 --     9 C    1.021    11 C    0.968    34 H    0.967
                             7 C    0.963
     9   6 C    3.991 --    10 C    1.972     8 C    1.021    35 H    0.962
    10   6 C    3.991 --     9 C    1.972    37 H    0.977    36 H    0.975
    11   6 C    3.996 --    12 C    0.998     6 C    0.997    38 H    0.970
                             8 C    0.968
    12   6 C    3.997 --    11 C    0.998     3 C    0.984    40 H    0.978
                            39 H    0.971
    13   6 C    3.986 --    14 C    1.516    18 C    1.261     2 C    0.991
                            16 N    0.101
    14   6 C    3.990 --    13 C    1.516    15 C    1.318    41 H    0.967
    15   6 C    3.973 --    16 N    1.539    14 C    1.318    42 H    0.963
    16   7 N    3.063 --    15 C    1.539    17 C    1.297    13 C    0.101
    17   6 C    3.983 --    16 N    1.297    24 C    1.252    18 C    1.235
    18   6 C    3.989 --    19 C    1.285    13 C    1.261    17 C    1.235
    19   6 C    3.984 --    20 C    1.471    18 C    1.285    43 H    0.954
                            24 C    0.105
    20   6 C    3.934 --    19 C    1.471    23 C    1.246    21 O    1.065
    21   8 O    2.229 --    20 C    1.065    22 C    0.985
    22   6 C    3.946 --    21 O    0.985    45 H    0.980    46 H    0.976
                            44 H    0.976
    23   6 C    3.989 --    24 C    1.589    20 C    1.246    47 H    0.967
    24   6 C    3.989 --    23 C    1.589    17 C    1.252    48 H    0.966
                            19 C    0.105
    25   1 H    0.908 --     1 O    0.875
    26   1 H    0.999 --     2 C    0.949
    27   1 H    0.999 --     3 C    0.962
    28   1 H    0.998 --     5 C    0.976
    29   1 H    0.999 --     5 C    0.976
    30   1 H    0.999 --     6 C    0.980
    31   1 H    0.998 --     6 C    0.979
    32   1 H    0.999 --     7 C    0.975
    33   1 H    0.999 --     7 C    0.969
    34   1 H    0.999 --     8 C    0.967
    35   1 H    0.999 --     9 C    0.962
    36   1 H    0.999 --    10 C    0.975
    37   1 H    0.998 --    10 C    0.977
    38   1 H    0.999 --    11 C    0.970
    39   1 H    0.999 --    12 C    0.971
    40   1 H    0.999 --    12 C    0.978
    41   1 H    0.999 --    14 C    0.967
    42   1 H    0.998 --    15 C    0.963
    43   1 H    0.996 --    19 C    0.954
    44   1 H    0.997 --    22 C    0.976
    45   1 H    0.996 --    22 C    0.980
    46   1 H    0.998 --    22 C    0.976
    47   1 H    0.996 --    23 C    0.967
    48   1 H    0.995 --    24 C    0.966
 ---------------------------------------------------------------------------

Topologies differ in total number of bonds
Writing topology from bond orders to xtbtopo.mol

molecular dipole:
                 x           y           z       tot (Debye)
 q only:       -0.802      -0.733      -0.709
   full:       -1.542      -0.838      -0.931       5.048
molecular quadrupole (traceless):
                xx          xy          yy          xz          yz          zz
 q only:       -2.855      -4.049      -0.091      -2.943       3.220       2.946
  q+dip:       -2.321      -7.672       3.324      -4.867       4.780      -1.003
   full:       -3.583      -5.068       4.185      -6.554       2.959      -0.601

           -------------------------------------------------
          |                Geometry Summary                 |
           -------------------------------------------------

      molecular mass/u    :      324.4175123
   center of mass at/Å    :        0.5063131       0.1236819       0.1263516
  moments of inertia/u·Å² :        0.1216668E+04   0.3234099E+04   0.3927813E+04
rotational constants/cm⁻¹ :        0.1385557E-01   0.5212466E-02   0.4291862E-02

 * 45 selected distances

     #   Z          #   Z                                           value/Å
     1   8 O        2   6 C                                       1.4081285
     3   6 C        4   7 N                                       1.4650612
     4   7 N        5   6 C                                       1.4571249
     4   7 N        7   6 C                                       1.4563331
     9   6 C       10   6 C                                       1.3201281
     6   6 C       11   6 C                                       1.5333171
     3   6 C       12   6 C                                       1.5374757 (max)
    11   6 C       12   6 C                                       1.5325705
    13   6 C       14   6 C                                       1.3749363
    14   6 C       15   6 C                                       1.4020179
    15   6 C       16   7 N                                       1.3029402
    16   7 N       17   6 C                                       1.3451309
    13   6 C       18   6 C                                       1.4199614
    17   6 C       18   6 C                                       1.4246348
    18   6 C       19   6 C                                       1.4097588
    19   6 C       20   6 C                                       1.3731381
    20   6 C       21   8 O                                       1.3610518
    21   8 O       22   6 C                                       1.4068764
    20   6 C       23   6 C                                       1.4143384
    17   6 C       24   6 C                                       1.4131045
    23   6 C       24   6 C                                       1.3605821
     1   8 O       25   1 H                                       0.9691875 (min)
     2   6 C       26   1 H                                       1.1041167
     3   6 C       27   1 H                                       1.0951923
     5   6 C       28   1 H                                       1.0920219
     5   6 C       29   1 H                                       1.0930879
     6   6 C       30   1 H                                       1.0905710
     6   6 C       31   1 H                                       1.0911950
     7   6 C       32   1 H                                       1.0931400
     7   6 C       33   1 H                                       1.0910836
     8   6 C       34   1 H                                       1.0948176
     9   6 C       35   1 H                                       1.0822284
    10   6 C       36   1 H                                       1.0779123
    10   6 C       37   1 H                                       1.0766038
    11   6 C       38   1 H                                       1.0931749
    12   6 C       39   1 H                                       1.0902091
    12   6 C       40   1 H                                       1.0908890
    14   6 C       41   1 H                                       1.0803033
    15   6 C       42   1 H                                       1.0827130
    19   6 C       43   1 H                                       1.0758820
    22   6 C       44   1 H                                       1.0944116
    22   6 C       45   1 H                                       1.0889109
    22   6 C       46   1 H                                       1.0951044
    23   6 C       47   1 H                                       1.0788656
    24   6 C       48   1 H                                       1.0784570

 * 5 distinct bonds (by element types)

   Z      Z             #   av. dist./Å        max./Å        min./Å
   1 H    6 C          23     1.0882996     1.1041167     1.0758820
   6 C    6 C          13     1.4243049     1.5374757     1.3201281
   6 C    7 N           5     1.4053180     1.4650612     1.3029402
   1 H    8 O           1     0.9691875     0.9691875     0.9691875
   6 C    8 O           3     1.3920189     1.4081285     1.3610518


optimized geometry written to: xtbopt.xyz


           -------------------------------------------------
          | TOTAL ENERGY              -69.045054746180 Eh   |
          | GRADIENT NORM               0.000318124356 Eh/α |
          | HOMO-LUMO GAP               2.490445859309 eV   |
           -------------------------------------------------

------------------------------------------------------------------------
 * finished run on 2025/05/15 at 16:31:48.926     
------------------------------------------------------------------------
 total:
 * wall-time:     0 d,  0 h,  0 min,  1.744 sec
 *  cpu-time:     0 d,  0 h,  0 min,  1.199 sec
 * ratio c/w:     0.687 speedup
 SCF:
 * wall-time:     0 d,  0 h,  0 min,  0.069 sec
 *  cpu-time:     0 d,  0 h,  0 min,  0.069 sec
 * ratio c/w:     0.995 speedup
 ANC optimizer:
 * wall-time:     0 d,  0 h,  0 min,  1.659 sec
 *  cpu-time:     0 d,  0 h,  0 min,  1.116 sec
 * ratio c/w:     0.673 speedup



----- Single-point -----
      -----------------------------------------------------------      
     |                   =====================                   |     
     |                           x T B                           |     
     |                   =====================                   |     
     |                         S. Grimme                         |     
     |          Mulliken Center for Theoretical Chemistry        |     
     |                    University of Bonn                     |     
      -----------------------------------------------------------      

   * xtb version 6.7.1 (edcfbbe) compiled by 'conda@3ef47c1a292c' on 2024-11-25

   xtb is free software: you can redistribute it and/or modify it under
   the terms of the GNU Lesser General Public License as published by
   the Free Software Foundation, either version 3 of the License, or
   (at your option) any later version.
   
   xtb is distributed in the hope that it will be useful,
   but WITHOUT ANY WARRANTY; without even the implied warranty of
   MERCHANTABILITY or FITNESS FOR A PARTICULAR PURPOSE.  See the
   GNU Lesser General Public License for more details.
   
   Cite this work as:
   * C. Bannwarth, E. Caldeweyher, S. Ehlert, A. Hansen, P. Pracht,
     J. Seibert, S. Spicher, S. Grimme, WIREs Comput. Mol. Sci., 2020, 11,
     e01493. DOI: 10.1002/wcms.1493
   
   for GFN2-xTB:
   * C. Bannwarth, S. Ehlert and S. Grimme., J. Chem. Theory Comput., 2019,
     15, 1652-1671. DOI: 10.1021/acs.jctc.8b01176
   for GFN1-xTB:
   * S. Grimme, C. Bannwarth, P. Shushkov, J. Chem. Theory Comput., 2017,
     13, 1989-2009. DOI: 10.1021/acs.jctc.7b00118
   for GFN0-xTB:
   * P. Pracht, E. Caldeweyher, S. Ehlert, S. Grimme, ChemRxiv, 2019, preprint.
     DOI: 10.26434/chemrxiv.8326202.v1
   for GFN-FF:
   * S. Spicher and S. Grimme, Angew. Chem. Int. Ed., 2020, 59, 15665-15673.
     DOI: 10.1002/anie.202004239
   
   for ALPB and GBSA implicit solvation:
   * S. Ehlert, M. Stahn, S. Spicher, S. Grimme, J. Chem. Theory Comput.,
     2021, 17, 4250-4261. DOI: 10.1021/acs.jctc.1c00471
   
   for ddCOSMO and CPCM-X implicit solvation:
   * M. Stahn, S. Ehlert, S. Grimme, J. Phys. Chem. A,
     2023, XX, XXXX-XXXX. DOI: 10.1021/acs.jpca.3c04382
   
   for DFT-D4:
   * E. Caldeweyher, C. Bannwarth and S. Grimme, J. Chem. Phys., 2017,
     147, 034112. DOI: 10.1063/1.4993215
   * E. Caldeweyher, S. Ehlert, A. Hansen, H. Neugebauer, S. Spicher,
     C. Bannwarth and S. Grimme, J. Chem. Phys., 2019, 150, 154122.
     DOI: 10.1063/1.5090222
   * E. Caldeweyher, J.-M. Mewes, S. Ehlert and S. Grimme, Phys. Chem. Chem. Phys.
     2020, 22, 8499-8512. DOI: 10.1039/D0CP00502A
   
   for sTDA-xTB:
   * S. Grimme and C. Bannwarth, J. Chem. Phys., 2016, 145, 054103.
     DOI: 10.1063/1.4959605
   
   in the mass-spec context:
   * V. Asgeirsson, C. Bauer and S. Grimme, Chem. Sci., 2017, 8, 4879.
     DOI: 10.1039/c7sc00601b
   * J. Koopman and S. Grimme, ACS Omega 2019, 4, 12, 15120-15133.
     DOI: 10.1021/acsomega.9b02011
   
   for metadynamics refer to:
   * S. Grimme, J. Chem. Theory Comput., 2019, 155, 2847-2862
     DOI: 10.1021/acs.jctc.9b00143
   
   for SPH calculations refer to:
   * S. Spicher and S. Grimme, J. Chem. Theory Comput., 2021, 17, 1701-1714
     DOI: 10.1021/acs.jctc.0c01306
   
   for ONIOM refer to:
   * C. Plett, A. Katbashev, S. Ehlert, S. Grimme, M. Bursch,
     Phys. Chem. Chem. Phys., 2023, 25, 17860-17868. DOI: 10.1039/D3CP02178E
   
   for DIPRO refer to:
   * J. Kohn, N. Gildemeister, S. Grimme, D. Fazzi, A. Hansen,
     J. Chem. Phys., 2023, just accepted.
   
   for PTB refer to:
   * S. Grimme, M. Mueller, A. Hansen, J. Chem. Phys., 2023, 158, 124111.
     DOI: 10.1063/5.0137838
   
   with help from (in alphabetical order)
   P. Atkinson, C. Bannwarth, F. Bohle, G. Brandenburg, E. Caldeweyher
   M. Checinski, S. Dohm, S. Ehlert, S. Ehrlich, I. Gerasimov, C. Hölzer
   A. Katbashev, J. Kohn, J. Koopman, C. Lavigne, S. Lehtola, F. März, M. Müller,
   F. Musil, H. Neugebauer, J. Pisarek, C. Plett, P. Pracht, F. Pultar,
   J. Seibert, P. Shushkov, S. Spicher, M. Stahn, M. Steiner, T. Strunk,
   J. Stückrath, T. Rose, and J. Unsleber
   
 * started run on 2025/05/15 at 16:31:48.991     
   ID    Z sym.   atoms
    1    8 O      1, 21
    2    6 C      2, 3, 5-15, 17-20, 22-24
    3    7 N      4, 16
    4    1 H      25-48

           -------------------------------------------------
          |                Calculation Setup                |
           -------------------------------------------------

          program call               : xtb /rds/general/user/hgt20/home/callum/QDESCP/Quinine_rdkit_conf_7/Quinine_rdkit_conf_7.xyz --acc 1 --gfn 2 --chrg 0 --uhf 0 --etemp 300 --input /rds/general/user/hgt20/home/callum/QDESCP/Quinine_rdkit_conf_7/Quinine_rdkit_conf_7_xtb.inp -P 1
          hostname                   : login-c
          coordinate file            : /rds/general/user/hgt20/home/callum/QDESCP/Quinine_rdkit_conf_7/Quinine_rdkit_conf_7.xyz
          omp threads                :                     1


           -------------------------------------------------
          |                 G F N 2 - x T B                 |
           -------------------------------------------------

        Reference                      10.1021/acs.jctc.8b01176
      * Hamiltonian:
        H0-scaling (s, p, d)           1.850000    2.230000    2.230000
        zeta-weighting                 0.500000
      * Dispersion:
        s8                             2.700000
        a1                             0.520000
        a2                             5.000000
        s9                             5.000000
      * Repulsion:
        kExp                           1.500000    1.000000
        rExp                           1.000000
      * Coulomb:
        alpha                          2.000000
        third order                    shell-resolved
        anisotropic                    true
        a3                             3.000000
        a5                             4.000000
        cn-shift                       1.200000
        cn-exp                         4.000000
        max-rad                        5.000000

q/qsh data taken from xtbrestart
CAMM data taken from xtbrestart

          ...................................................
          :                      SETUP                      :
          :.................................................:
          :  # basis functions                 120          :
          :  # atomic orbitals                 120          :
          :  # shells                           72          :
          :  # electrons                       126          :
          :  max. iterations                   250          :
          :  Hamiltonian                  GFN2-xTB          :
          :  restarted?                       true          :
          :  GBSA solvation                  false          :
          :  PC potential                    false          :
          :  electronic temp.          300.0000000     K    :
          :  accuracy                    1.0000000          :
          :  -> integral cutoff          0.2500000E+02      :
          :  -> integral neglect         0.1000000E-07      :
          :  -> SCF convergence          0.1000000E-05 Eh   :
          :  -> wf. convergence          0.1000000E-03 e    :
          :  Broyden damping             0.4000000          :
          :  net charge                          0          :
          :  unpaired electrons                  0          :
          ...................................................

 iter      E             dE          RMSdq      gap      omega  full diag
   1    -70.0294843 -0.700295E+02  0.167E-05    2.49       0.0  T
   2    -70.0294843 -0.493117E-11  0.111E-05    2.49    1301.2  T
   3    -70.0294843 -0.292744E-11  0.586E-06    2.49    2462.3  T

   *** convergence criteria satisfied after 3 iterations ***

         #    Occupation            Energy/Eh            Energy/eV
      -------------------------------------------------------------
         1        2.0000           -0.7167237             -19.5030
       ...           ...                  ...                  ...
        57        2.0000           -0.4217649             -11.4768
        58        2.0000           -0.4095969             -11.1457
        59        2.0000           -0.4043558             -11.0031
        60        2.0000           -0.3957118             -10.7679
        61        2.0000           -0.3755309             -10.2187
        62        2.0000           -0.3672962              -9.9946
        63        2.0000           -0.3589581              -9.7677 (HOMO)
        64                         -0.2674359              -7.2773 (LUMO)
        65                         -0.2287011              -6.2233
        66                         -0.2121741              -5.7735
        67                         -0.1955085              -5.3201
        68                         -0.1478444              -4.0231
       ...                                ...                  ...
       120                          0.7041217              19.1601
      -------------------------------------------------------------
                  HL-Gap            0.0915222 Eh            2.4904 eV
             Fermi-level           -0.3131970 Eh           -8.5225 eV

 SCC (total)                   0 d,  0 h,  0 min,  0.048 sec
 SCC setup                      ...        0 min,  0.000 sec (  0.864%)
 Dispersion                     ...        0 min,  0.001 sec (  1.191%)
 classical contributions        ...        0 min,  0.000 sec (  0.399%)
 integral evaluation            ...        0 min,  0.009 sec ( 19.256%)
 iterations                     ...        0 min,  0.009 sec ( 17.660%)
 molecular gradient             ...        0 min,  0.029 sec ( 60.161%)
 printout                       ...        0 min,  0.000 sec (  0.455%)

         :::::::::::::::::::::::::::::::::::::::::::::::::::::
         ::                     SUMMARY                     ::
         :::::::::::::::::::::::::::::::::::::::::::::::::::::
         :: total energy             -69.045054746193 Eh    ::
         :: gradient norm              0.000318148506 Eh/a0 ::
         :: HOMO-LUMO gap              2.490446597005 eV    ::
         ::.................................................::
         :: SCC energy               -70.028520313814 Eh    ::
         :: -> isotropic ES            0.054671407007 Eh    ::
         :: -> anisotropic ES          0.007364948000 Eh    ::
         :: -> anisotropic XC          0.036140954575 Eh    ::
         :: -> dispersion             -0.054693704774 Eh    ::
         :: repulsion energy           0.983465567621 Eh    ::
         :: add. restraining           0.000000000000 Eh    ::
         :: total charge               0.000000000000 e     ::
         :::::::::::::::::::::::::::::::::::::::::::::::::::::

           -------------------------------------------------
          |                Property Printout                |
           -------------------------------------------------

    * Orbital Energies and Occupations

         #    Occupation            Energy/Eh            Energy/eV
      -------------------------------------------------------------
         1        2.0000           -0.7167237             -19.5030
       ...           ...                  ...                  ...
        51        2.0000           -0.4424096             -12.0386
        52        2.0000           -0.4416329             -12.0174
        53        2.0000           -0.4376251             -11.9084
        54        2.0000           -0.4365508             -11.8792
        55        2.0000           -0.4303033             -11.7091
        56        2.0000           -0.4274252             -11.6308
        57        2.0000           -0.4217649             -11.4768
        58        2.0000           -0.4095969             -11.1457
        59        2.0000           -0.4043558             -11.0031
        60        2.0000           -0.3957118             -10.7679
        61        2.0000           -0.3755309             -10.2187
        62        2.0000           -0.3672962              -9.9946
        63        2.0000           -0.3589581              -9.7677 (HOMO)
        64                         -0.2674359              -7.2773 (LUMO)
        65                         -0.2287011              -6.2233
        66                         -0.2121741              -5.7735
        67                         -0.1955085              -5.3201
        68                         -0.1478444              -4.0231
        69                         -0.0642146              -1.7474
        70                          0.0082313               0.2240
        71                          0.0210927               0.5740
        72                          0.0326598               0.8887
        73                          0.0352164               0.9583
        74                          0.0504005               1.3715
       ...                                ...                  ...
       120                          0.7041217              19.1601
      -------------------------------------------------------------
                  HL-Gap            0.0915222 Eh            2.4904 eV
             Fermi-level           -0.3131970 Eh           -8.5225 eV

     #   Z          covCN         q      C6AA      α(0)
     1   8 O        1.655    -0.446    21.765     6.298
     2   6 C        3.732     0.112    18.826     6.193
     3   6 C        3.826     0.034    19.986     6.361
     4   7 N        2.729    -0.199    25.323     7.474
     5   6 C        3.782     0.011    20.416     6.436
     6   6 C        3.809    -0.065    21.736     6.637
     7   6 C        3.775     0.009    20.453     6.444
     8   6 C        3.862    -0.029    21.044     6.524
     9   6 C        2.889    -0.032    28.792     8.797
    10   6 C        2.837    -0.094    30.343     9.027
    11   6 C        3.866    -0.006    20.635     6.460
[...]
   
   in the mass-spec context:
   * V. Asgeirsson, C. Bauer and S. Grimme, Chem. Sci., 2017, 8, 4879.
     DOI: 10.1039/c7sc00601b
   * J. Koopman and S. Grimme, ACS Omega 2019, 4, 12, 15120-15133.
     DOI: 10.1021/acsomega.9b02011
   
   for metadynamics refer to:
   * S. Grimme, J. Chem. Theory Comput., 2019, 155, 2847-2862
     DOI: 10.1021/acs.jctc.9b00143
   
   for SPH calculations refer to:
   * S. Spicher and S. Grimme, J. Chem. Theory Comput., 2021, 17, 1701-1714
     DOI: 10.1021/acs.jctc.0c01306
   
   for ONIOM refer to:
   * C. Plett, A. Katbashev, S. Ehlert, S. Grimme, M. Bursch,
     Phys. Chem. Chem. Phys., 2023, 25, 17860-17868. DOI: 10.1039/D3CP02178E
   
   for DIPRO refer to:
   * J. Kohn, N. Gildemeister, S. Grimme, D. Fazzi, A. Hansen,
     J. Chem. Phys., 2023, just accepted.
   
   for PTB refer to:
   * S. Grimme, M. Mueller, A. Hansen, J. Chem. Phys., 2023, 158, 124111.
     DOI: 10.1063/5.0137838
   
   with help from (in alphabetical order)
   P. Atkinson, C. Bannwarth, F. Bohle, G. Brandenburg, E. Caldeweyher
   M. Checinski, S. Dohm, S. Ehlert, S. Ehrlich, I. Gerasimov, C. Hölzer
   A. Katbashev, J. Kohn, J. Koopman, C. Lavigne, S. Lehtola, F. März, M. Müller,
   F. Musil, H. Neugebauer, J. Pisarek, C. Plett, P. Pracht, F. Pultar,
   J. Seibert, P. Shushkov, S. Spicher, M. Stahn, M. Steiner, T. Strunk,
   J. Stückrath, T. Rose, and J. Unsleber
   
 * started run on 2025/05/15 at 16:31:51.426     
   ID    Z sym.   atoms
    1    8 O      1, 21
    2    6 C      2, 3, 5-15, 17-20, 22-24
    3    7 N      4, 16
    4    1 H      25-48

           -------------------------------------------------
          |                Calculation Setup                |
           -------------------------------------------------

          program call               : xtb /rds/general/user/hgt20/home/callum/QDESCP/Quinine_rdkit_conf_7/Quinine_rdkit_conf_7.xyz --acc 1 --gfn 2 --chrg 0 --uhf 2 --etemp 300 --input /rds/general/user/hgt20/home/callum/QDESCP/Quinine_rdkit_conf_7/Quinine_rdkit_conf_7_xtb.inp -P 1
          hostname                   : login-c
          coordinate file            : /rds/general/user/hgt20/home/callum/QDESCP/Quinine_rdkit_conf_7/Quinine_rdkit_conf_7.xyz
          omp threads                :                     1


           -------------------------------------------------
          |                 G F N 2 - x T B                 |
           -------------------------------------------------

        Reference                      10.1021/acs.jctc.8b01176
      * Hamiltonian:
        H0-scaling (s, p, d)           1.850000    2.230000    2.230000
        zeta-weighting                 0.500000
      * Dispersion:
        s8                             2.700000
        a1                             0.520000
        a2                             5.000000
        s9                             5.000000
      * Repulsion:
        kExp                           1.500000    1.000000
        rExp                           1.000000
      * Coulomb:
        alpha                          2.000000
        third order                    shell-resolved
        anisotropic                    true
        a3                             3.000000
        a5                             4.000000
        cn-shift                       1.200000
        cn-exp                         4.000000
        max-rad                        5.000000


          ...................................................
          :                      SETUP                      :
          :.................................................:
          :  # basis functions                 120          :
          :  # atomic orbitals                 120          :
          :  # shells                           72          :
          :  # electrons                       126          :
          :  max. iterations                   250          :
          :  Hamiltonian                  GFN2-xTB          :
          :  restarted?                      false          :
          :  GBSA solvation                  false          :
          :  PC potential                    false          :
          :  electronic temp.          300.0000000     K    :
          :  accuracy                    1.0000000          :
          :  -> integral cutoff          0.2500000E+02      :
          :  -> integral neglect         0.1000000E-07      :
          :  -> SCF convergence          0.1000000E-05 Eh   :
          :  -> wf. convergence          0.1000000E-03 e    :
          :  Broyden damping             0.4000000          :
          :  net charge                          0          :
          :  unpaired electrons                  2          :
          ...................................................

 iter      E             dE          RMSdq      gap      omega  full diag
   1    -69.6476229 -0.696476E+02  0.356E+00    0.95       0.0  T
   2    -69.4335728  0.214050E+00  0.293E+00    0.84       1.0  T
   3    -69.4523253 -0.187525E-01  0.287E+00    1.18       1.0  T
   4    -69.8645451 -0.412220E+00  0.145E+00    1.08       1.0  T
   5    -69.7727944  0.917506E-01  0.132E+00    0.92       1.0  T
   6    -69.9100559 -0.137261E+00  0.665E-01    0.99       1.0  T
   7    -69.8924141  0.176418E-01  0.612E-01    0.98       1.0  T
   8    -69.8971470 -0.473289E-02  0.669E-01    1.00       1.0  T
   9    -69.9212313 -0.240844E-01  0.274E-01    1.00       1.0  T
  10    -69.9167656  0.446574E-02  0.368E-01    0.98       1.0  T
  11    -69.9204149 -0.364929E-02  0.268E-01    0.98       1.0  T
  12    -69.9239009 -0.348599E-02  0.142E-01    0.97       1.0  T
  13    -69.9243856 -0.484745E-03  0.111E-01    0.97       1.0  T
  14    -69.9247296 -0.344017E-03  0.742E-02    0.97       1.0  T
  15    -69.9249789 -0.249228E-03  0.329E-02    0.97       1.0  T
  16    -69.9249563  0.225402E-04  0.357E-02    0.97       1.0  T
  17    -69.9250582 -0.101881E-03  0.398E-03    0.97       3.6  T
  18    -69.9250562  0.202038E-05  0.637E-03    0.97       2.3  T
  19    -69.9250577 -0.147388E-05  0.415E-03    0.97       3.5  T
  20    -69.9250584 -0.775034E-06  0.233E-03    0.97       6.2  T
  21    -69.9250590 -0.507679E-06  0.102E-03    0.97      14.2  T
  22    -69.9250590 -0.904889E-07  0.196E-04    0.97      73.6  T
  23    -69.9250590  0.433512E-08  0.272E-04    0.97      53.0  T

   *** convergence criteria satisfied after 23 iterations ***

         #    Occupation            Energy/Eh            Energy/eV
      -------------------------------------------------------------
         1        2.0000           -0.7173505             -19.5201
       ...           ...                  ...                  ...
        58        2.0000           -0.4122597             -11.2182
        59        2.0000           -0.4024077             -10.9501
        60        2.0000           -0.3848739             -10.4730
        61        1.9941           -0.3736572             -10.1677
        62        1.6879           -0.3695333             -10.0555
        63        1.3180           -0.3680576             -10.0154
        64        1.0000           -0.2563883              -6.9767 (HOMO)
        65                         -0.2207643              -6.0073 (LUMO)
        66                         -0.2147571              -5.8438
        67                         -0.1872358              -5.0949
        68                         -0.1372576              -3.7350
        69                         -0.0573548              -1.5607
       ...                                ...                  ...
       120                          0.7112124              19.3531
      -------------------------------------------------------------
                  HL-Gap            0.0356239 Eh            0.9694 eV
             Fermi-level           -0.3036798 Eh           -8.2635 eV

 transition dipole moment (au) for excitation:          63          64
     X       Y       Z   
   0.6658  -0.3034   0.4441  total (au/Debye):    0.856   2.175
 dE (eV)             :    3.039
 oscillator strength :  0.77121E-01

 SCC (total)                   0 d,  0 h,  0 min,  0.168 sec
 SCC setup                      ...        0 min,  0.000 sec (  0.244%)
 Dispersion                     ...        0 min,  0.001 sec (  0.359%)
 classical contributions        ...        0 min,  0.000 sec (  0.114%)
 integral evaluation            ...        0 min,  0.009 sec (  5.557%)
 iterations                     ...        0 min,  0.084 sec ( 50.436%)
 molecular gradient             ...        0 min,  0.064 sec ( 38.466%)
 printout                       ...        0 min,  0.008 sec (  4.820%)

         :::::::::::::::::::::::::::::::::::::::::::::::::::::
         ::                     SUMMARY                     ::
         :::::::::::::::::::::::::::::::::::::::::::::::::::::
         :: total energy             -68.940629525665 Eh    ::
         :: gradient norm              0.102155227918 Eh/a0 ::
         :: HOMO-LUMO gap              0.969376400063 eV    ::
         ::.................................................::
         :: SCC energy               -69.924095093286 Eh    ::
         :: -> isotropic ES            0.051985024176 Eh    ::
         :: -> anisotropic ES          0.008714210386 Eh    ::
         :: -> anisotropic XC          0.030083927758 Eh    ::
         :: -> dispersion             -0.054625185148 Eh    ::
         :: repulsion energy           0.983465567621 Eh    ::
         :: add. restraining           0.000000000000 Eh    ::
         :: total charge              -0.000000000013 e     ::
         :::::::::::::::::::::::::::::::::::::::::::::::::::::

           -------------------------------------------------
          |                Property Printout                |
           -------------------------------------------------

    * Orbital Energies and Occupations

         #    Occupation            Energy/Eh            Energy/eV
      -------------------------------------------------------------
         1        2.0000           -0.7173505             -19.5201
       ...           ...                  ...                  ...
        52        2.0000           -0.4359932             -11.8640
        53        2.0000           -0.4357020             -11.8561
        54        2.0000           -0.4320156             -11.7557
        55        2.0000           -0.4277642             -11.6401
        56        2.0000           -0.4245728             -11.5532
        57        2.0000           -0.4171668             -11.3517
        58        2.0000           -0.4122597             -11.2182
        59        2.0000           -0.4024077             -10.9501
        60        2.0000           -0.3848739             -10.4730
        61        1.9941           -0.3736572             -10.1677
        62        1.6879           -0.3695333             -10.0555
        63        1.3180           -0.3680576             -10.0154
        64        1.0000           -0.2563883              -6.9767 (HOMO)
        65                         -0.2207643              -6.0073 (LUMO)
        66                         -0.2147571              -5.8438
        67                         -0.1872358              -5.0949
        68                         -0.1372576              -3.7350
        69                         -0.0573548              -1.5607
        70                          0.0058739               0.1598
        71                          0.0190518               0.5184
        72                          0.0325117               0.8847
        73                          0.0337060               0.9172
        74                          0.0504559               1.3730
        75                          0.0645239               1.7558
       ...                                ...                  ...
       120                          0.7112124              19.3531
      -------------------------------------------------------------
                  HL-Gap            0.0356239 Eh            0.9694 eV
             Fermi-level           -0.3036798 Eh           -8.2635 eV

     #   Z          covCN         q      C6AA      α(0)
     1   8 O        1.655    -0.441    21.665     6.283
     2   6 C        3.732     0.117    18.758     6.182
     3   6 C        3.826     0.031    20.036     6.369
     4   7 N        2.729    -0.186    25.018     7.429
     5   6 C        3.782     0.010    20.435     6.439
     6   6 C        3.809    -0.065    21.736     6.637
     7   6 C        3.775     0.008    20.474     6.447
     8   6 C        3.862    -0.028    21.027     6.521
     9   6 C        2.889    -0.032    28.795     8.798
    10   6 C        2.837    -0.093    30.325     9.024
    11   6 C        3.866    -0.007    20.655     6.463
    12   6 C        3.808    -0.064    21.727     6.635
    13   6 C        2.973    -0.032    28.802     8.803
    14   6 C        2.917    -0.059    29.476     8.903
    15   6 C        2.904     0.038    27.151     8.544
    16   7 N        1.842    -0.185    25.831     7.532
    17   6 C        2.977     0.084    26.118     8.383
    18   6 C        2.984     0.013    27.722     8.637
    19   6 C        2.914    -0.082    30.047     8.989
    20   6 C        2.864     0.142    24.911     8.181
    21   8 O        1.705    -0.254    18.206     5.761
    22   6 C        3.645     0.036    20.308     6.477
    23   6 C        2.916    -0.068    29.705     8.937
    24   6 C        2.921    -0.057    29.417     8.894
    25   1 H        0.804     0.301     0.719     1.332
    26   1 H        0.923     0.017     2.786     2.610
    27   1 H        0.924     0.039     2.463     2.454
    28   1 H        0.924     0.036     2.505     2.475
    29   1 H        0.924     0.032     2.556     2.500
    30   1 H        0.924     0.032     2.560     2.502
    31   1 H        0.924     0.034     2.535     2.490
    32   1 H        0.924     0.033     2.541     2.493
    33   1 H        0.924     0.041     2.438     2.442
    34   1 H        0.924     0.035     2.513     2.479
    35   1 H        0.925     0.032     2.564     2.504
    36   1 H        0.926     0.037     2.492     2.468
    37   1 H        0.926     0.039     2.463     2.454
    38   1 H        0.924     0.027     2.626     2.534
    39   1 H        0.924     0.037     2.494     2.470
    40   1 H        0.924     0.032     2.552     2.498
    41   1 H        0.926     0.024     2.670     2.555
    42   1 H        0.925     0.038     2.477     2.461
    43   1 H        0.926     0.064     2.150     2.293
    44   1 H        0.924     0.051     2.311     2.378
    45   1 H        0.925     0.063     2.168     2.303
    46   1 H        0.924     0.041     2.434     2.440
    47   1 H        0.926     0.044     2.395     2.420
    48   1 H        0.926     0.049     2.336     2.390

 Mol. C6AA /au·bohr⁶  :      24081.154993
 Mol. C8AA /au·bohr⁸  :     561828.691527
 Mol. α(0) /au        :        239.214875


Wiberg/Mayer (AO) data.
largest (>0.10) Wiberg bond orders for each atom

 ---------------------------------------------------------------------------
     #   Z sym  total        # sym  WBO       # sym  WBO       # sym  WBO
 ---------------------------------------------------------------------------
     1   8 O    1.971 --     2 C    0.991    25 H    0.876
     2   6 C    3.940 --     1 O    0.991    13 C    0.977     3 C    0.950
                            26 H    0.945
     3   6 C    3.969 --     4 N    0.985    12 C    0.982    27 H    0.961
                             2 C    0.950
     4   7 N    3.134 --     7 C    1.005     5 C    0.999     3 C    0.985
     5   6 C    3.982 --     4 N    0.999     6 C    0.987    28 H    0.976
                            29 H    0.975
     6   6 C    3.991 --    11 C    0.997     5 C    0.987    30 H    0.979
                            31 H    0.979
     7   6 C    3.981 --     4 N    1.005    32 H    0.974    33 H    0.968
                             8 C    0.959
     8   6 C    3.988 --     9 C    1.021    11 C    0.968    34 H    0.967
                             7 C    0.959
     9   6 C    3.990 --    10 C    1.971     8 C    1.021    35 H    0.962
    10   6 C    3.987 --     9 C    1.971    37 H    0.977    36 H    0.975
    11   6 C    3.995 --    12 C    0.998     6 C    0.997     8 C    0.968
                            38 H    0.968
    12   6 C    3.992 --    11 C    0.998     3 C    0.982    40 H    0.977
                            39 H    0.970
    13   6 C    3.854 --    14 C    1.339    18 C    1.231     2 C    0.977
    14   6 C    3.929 --    15 C    1.422    13 C    1.339    41 H    0.962
    15   6 C    3.912 --    14 C    1.422    16 N    1.353    42 H    0.951
    16   7 N    2.970 --    15 C    1.353    17 C    1.285
    17   6 C    3.918 --    16 N    1.285    24 C    1.263    18 C    1.188
    18   6 C    3.942 --    19 C    1.315    13 C    1.231    17 C    1.188
    19   6 C    3.831 --    18 C    1.315    20 C    1.295    43 H    0.942
    20   6 C    3.856 --    23 C    1.320    19 C    1.295    21 O    1.076
    21   8 O    2.207 --    20 C    1.076    22 C    0.986
    22   6 C    3.943 --    21 O    0.986    45 H    0.980    46 H    0.974
                            44 H    0.973
    23   6 C    3.971 --    24 C    1.450    20 C    1.320    47 H    0.965
    24   6 C    3.899 --    23 C    1.450    17 C    1.263    48 H    0.963
    25   1 H    0.908 --     1 O    0.876
    26   1 H    0.996 --     2 C    0.945
    27   1 H    0.998 --     3 C    0.961
    28   1 H    0.998 --     5 C    0.976
    29   1 H    0.998 --     5 C    0.975
    30   1 H    0.998 --     6 C    0.979
    31   1 H    0.998 --     6 C    0.979
    32   1 H    0.998 --     7 C    0.974
    33   1 H    0.998 --     7 C    0.968
    34   1 H    0.999 --     8 C    0.967
    35   1 H    0.999 --     9 C    0.962
    36   1 H    0.999 --    10 C    0.975
    37   1 H    0.998 --    10 C    0.977
    38   1 H    0.997 --    11 C    0.968
    39   1 H    0.999 --    12 C    0.970
    40   1 H    0.998 --    12 C    0.977
    41   1 H    0.993 --    14 C    0.962
    42   1 H    0.986 --    15 C    0.951
    43   1 H    0.988 --    19 C    0.942
    44   1 H    0.993 --    22 C    0.973
    45   1 H    0.996 --    22 C    0.980
    46   1 H    0.994 --    22 C    0.974
    47   1 H    0.995 --    23 C    0.965
    48   1 H    0.992 --    24 C    0.963
 ---------------------------------------------------------------------------

Topologies differ in total number of bonds
Writing topology from bond orders to xtbtopo.mol

molecular dipole:
                 x           y           z       tot (Debye)
 q only:       -1.223      -0.820      -0.943
   full:       -1.865      -0.937      -1.053       5.942
molecular quadrupole (traceless):
                xx          xy          yy          xz          yz          zz
 q only:       -4.664      -3.690       0.505      -4.847       3.850       4.159
  q+dip:       -4.497      -6.428       2.439      -4.710       6.064       2.058
   full:       -5.672      -4.298       3.128      -6.237       4.544       2.544


           -------------------------------------------------
          | TOTAL ENERGY              -68.940629525665 Eh   |
          | GRADIENT NORM               0.102155227918 Eh/α |
          | HOMO-LUMO GAP               0.969376400063 eV   |
           -------------------------------------------------

------------------------------------------------------------------------
 * finished run on 2025/05/15 at 16:31:51.609     
------------------------------------------------------------------------
 total:
 * wall-time:     0 d,  0 h,  0 min,  0.182 sec
 *  cpu-time:     0 d,  0 h,  0 min,  0.119 sec
 * ratio c/w:     0.655 speedup
 SCF:
 * wall-time:     0 d,  0 h,  0 min,  0.168 sec
 *  cpu-time:     0 d,  0 h,  0 min,  0.106 sec
 * ratio c/w:     0.633 speedup


