43
 energy: -70.311197422725 gnorm: 0.000736966496 xtb: 6.7.1 (edcfbbe)
C           -6.21443885775936        0.63109833986673        1.88688031807361
C           -4.79924689079787        0.52856412742974        1.41108167967839
C           -4.43695531727437       -0.30520787136134        0.34893606180303
O           -5.39620084534931       -1.07507290198110       -0.28609549394125
C           -6.07738141194242       -0.40132722781411       -1.32304190912998
C           -3.09985493416413       -0.40249779747830       -0.04428528820562
C           -2.68689683978511       -1.33664725186912       -1.13876712860790
C           -3.77760114393656        1.24855572226020        2.01661688980562
N           -2.51681701078779        1.19490106519141        1.63945638570843
C           -2.17548142678294        0.39554558963264        0.63769254343381
C           -0.72199843950499        0.38331500764847        0.31034093507753
S            0.12566729934045       -0.91764542953254        1.34650548244358
C            1.76112191068805       -0.49586395138019        0.71458518175470
N            2.36506960447796        0.65300491632716        0.78574628428912
C            3.58737885471074        0.45129625430701        0.19180302509135
C            3.68644733374092       -0.89736345882360       -0.23856919647697
N            2.49431684608401       -1.47411947469712        0.12041875505156
C            4.81995146859288       -1.36836860389390       -0.87374883213179
C            5.85716250428522       -0.47862409749223       -1.07675273886550
C            5.77124238901590        0.85809824058508       -0.65883758551659
O            6.76585209132875        1.77557134131524       -0.83970485496986
C            7.95445624131776        1.37895892494044       -1.47681126028836
C            4.63351093740123        1.33508637888539       -0.02019883921094
O           -0.12178076718906       -2.21883741592082        0.70449792979466
H           -6.70593384056970        1.49617489802767        1.43945910189470
H           -6.76866655857765       -0.26390779684273        1.61414898892804
H           -6.24012436600006        0.75363682239003        2.96723222579484
H           -6.60041605619414        0.48645336818320       -0.95342252995877
H           -5.38918854469321       -0.09910035937855       -2.12017812265568
H           -6.80212944486478       -1.11049544816038       -1.71919150694986
H           -2.33704981188494       -0.78132624528912       -2.01006336687902
H           -3.52859361548245       -1.95721455534055       -1.43238078540696
H           -1.88406954399529       -1.98268201317224       -0.79200261800302
H           -3.98779298312249        1.90687814441268        2.84948035961117
H           -0.51939845738095        0.15993745115532       -0.73354480536492
H           -0.25185434706696        1.31316748325782        0.62053873311109
H            2.16582953262805       -2.41569768500320       -0.02474072328543
H            4.89975817000604       -2.39374366933934       -1.20066733954587
H            6.74770543933398       -0.83471802163546       -1.56897626731333
H            7.77037751354632        1.03189434805001       -2.49907831313715
H            8.47413894877289        0.59625419726466       -0.91412179994747
H            8.57962241900670        2.27008838496708       -1.50963111534370
H            4.58006195082715        2.36198027030642        0.29739153979062
