29
 energy: -55.277870967430 gnorm: 0.000153472514 xtb: 6.7.1 (edcfbbe)
O           -2.82878098681795        0.52965353017942       -1.15063199501956
C           -2.86018815002444       -0.86970708993139       -1.32037054257140
C           -1.76424755229004       -1.51944272870937       -0.47312368084564
C           -1.63082009344873       -0.93678446975737        0.94796378110102
C           -0.13803244167695       -1.16495156902222        1.24259829870828
C            0.48895782166064       -1.01940610396154       -0.15766417647954
N            0.96572730813597        0.32410813648042       -0.38613372411885
C            0.29990379860094        1.41247475206515       -0.82964923994892
N            1.09578244920437        2.44758422583854       -0.85020635477140
C            2.27414746045874        1.96144373968156       -0.39937226647055
C            3.50933216280177        2.76656660114223       -0.22629134234590
N            4.52934753054695        2.02732005851191        0.26977596795855
O            3.60064709474824        3.94362019300265       -0.48651478714824
N            2.22360275263524        0.67017318354397       -0.11064604908574
O           -0.49882318250294       -1.34016413342770       -1.09441573828986
O            0.10383675131012       -2.45174679588326        1.72485141038607
O           -2.40277671596477       -1.60410067249605        1.91141570621565
H           -3.37072155298056        0.94463466973527       -1.82976680603720
H           -3.83645166026860       -1.27036617227564       -1.00962037777740
H           -2.67823750535268       -1.14610516228163       -2.36442035593158
H           -1.96901827430090       -2.59853806512628       -0.39900665933320
H           -1.84820926042966        0.13725728475710        0.92836771839346
H            0.26431907758545       -0.41080438130141        1.93460777546084
H            1.34886061249671       -1.69338263490570       -0.25964899384656
H           -0.73019371778381        1.39847220129505       -1.11898820392632
H            5.42336076882737        2.46172390868002        0.42303239385077
H            4.39795236266099        1.04854066017812        0.45416327768664
H           -0.64333854841713       -2.69170705567372        2.29129018356042
H           -3.32603830941160       -1.35626611034064        1.80450478062411
