49
 energy: -69.208431378450 gnorm: 0.000468770473 xtb: 6.7.1 (edcfbbe)
C            0.92322028262894        2.09152789960315       -0.16910362320421
C            0.80717688028994        0.56956955211028       -0.29588005788389
N            2.05014606966490       -0.07414556574129        0.07671081199531
C            3.18066881037564       -0.09918509951682       -0.67804774122501
C            3.20584437890576        0.29853579920533       -2.00821362495491
C            4.39505602860254        0.22219221920611       -2.72993245609171
N            5.53445760743716       -0.19896075029873       -2.24715137144457
C            5.55501752541164       -0.60599795915842       -0.96407139465760
C            4.40727592367528       -0.59151790865334       -0.12169695437403
C            4.54715580702740       -1.06072597103685        1.19820670309358
C            5.74871363760830       -1.50916312766674        1.67566607297893
C            6.87191890771542       -1.50415393598778        0.83771960368059
Cl           8.37963241817108       -2.06990593403494        1.46817350699768
C            6.78673839411381       -1.06689104247805       -0.45345855963714
C           -0.30272557677624       -0.00465862847963        0.59103268636984
C           -1.70481224754872        0.36315912488950        0.11264909594088
C           -2.77255519878921       -0.23931926769420        1.02581179721355
N           -4.11029396145566       -0.04763749764135        0.49722073024448
C           -5.06431334608039       -1.02353381626020        1.00741836998859
C           -4.92314512023354       -2.37203196429097        0.30574304339120
C           -4.56725179661142        1.33654020056860        0.55899893148825
C           -4.66706665199077        1.90283868166876       -0.86622788837071
O           -5.42406650562042        1.05461317090741       -1.68835851335327
H            0.03284769330191        2.58098624783836       -0.55184779467720
H            1.05897687681034        2.37423616350437        0.87292979962307
H            1.78053588460315        2.44733424466485       -0.73572160230630
H            0.58946665246412        0.30557090424828       -1.33620256669888
H            2.17203414936749       -0.19731338858203        1.06904125546925
H            2.32220612377810        0.67389695273716       -2.49684411766828
H            4.41382925449725        0.53687023811395       -3.76604035731633
H            3.69596086136739       -1.08656360599714        1.86392655372247
H            5.84199462088077       -1.86802446579621        2.68854396268821
H            7.63898113631886       -1.06261821500321       -1.11292206715826
H           -0.20489454585055       -1.09313261416472        0.59866686988613
H           -0.16520200504197        0.35149063025738        1.61581182520926
H           -1.81374305285719        1.44708806065517        0.09183751627637
H           -1.85926356170089       -0.01379435660282       -0.89954611738109
H           -2.59187261239787       -1.31276227547314        1.10367021374043
H           -2.67362884798878        0.18995612171362        2.03969711895184
H           -6.07035488141506       -0.64624295737547        0.81285693838563
H           -4.95913913189047       -1.16048199005767        2.09713166183804
H           -3.96916925728935       -2.84337537511297        0.52654186068844
H           -5.71524658920592       -3.03855746163257        0.63658574853809
H           -5.00220746838140       -2.24558932049978       -0.77102297784730
H           -3.88860138116484        1.95692121230075        1.15430350194901
H           -5.55728818572899        1.38971591798587        1.02123570640214
H           -3.66004924108697        2.03181738595178       -1.28876242509393
H           -5.16969624278908        2.87256479503231       -0.85898550734004
H           -5.10316851512332        0.15945897206902       -1.50809416806863
