----- Optimization -----
      -----------------------------------------------------------      
     |                   =====================                   |     
     |                           x T B                           |     
     |                   =====================                   |     
     |                         S. Grimme                         |     
     |          Mulliken Center for Theoretical Chemistry        |     
     |                    University of Bonn                     |     
      -----------------------------------------------------------      

   * xtb version 6.7.1 (edcfbbe) compiled by 'conda@3ef47c1a292c' on 2024-11-25

   xtb is free software: you can redistribute it and/or modify it under
   the terms of the GNU Lesser General Public License as published by
   the Free Software Foundation, either version 3 of the License, or
   (at your option) any later version.
   
   xtb is distributed in the hope that it will be useful,
   but WITHOUT ANY WARRANTY; without even the implied warranty of
   MERCHANTABILITY or FITNESS FOR A PARTICULAR PURPOSE.  See the
   GNU Lesser General Public License for more details.
   
   Cite this work as:
   * C. Bannwarth, E. Caldeweyher, S. Ehlert, A. Hansen, P. Pracht,
     J. Seibert, S. Spicher, S. Grimme, WIREs Comput. Mol. Sci., 2020, 11,
     e01493. DOI: 10.1002/wcms.1493
   
   for GFN2-xTB:
   * C. Bannwarth, S. Ehlert and S. Grimme., J. Chem. Theory Comput., 2019,
     15, 1652-1671. DOI: 10.1021/acs.jctc.8b01176
   for GFN1-xTB:
   * S. Grimme, C. Bannwarth, P. Shushkov, J. Chem. Theory Comput., 2017,
     13, 1989-2009. DOI: 10.1021/acs.jctc.7b00118
   for GFN0-xTB:
   * P. Pracht, E. Caldeweyher, S. Ehlert, S. Grimme, ChemRxiv, 2019, preprint.
     DOI: 10.26434/chemrxiv.8326202.v1
   for GFN-FF:
   * S. Spicher and S. Grimme, Angew. Chem. Int. Ed., 2020, 59, 15665-15673.
     DOI: 10.1002/anie.202004239
   
   for ALPB and GBSA implicit solvation:
   * S. Ehlert, M. Stahn, S. Spicher, S. Grimme, J. Chem. Theory Comput.,
     2021, 17, 4250-4261. DOI: 10.1021/acs.jctc.1c00471
   
   for ddCOSMO and CPCM-X implicit solvation:
   * M. Stahn, S. Ehlert, S. Grimme, J. Phys. Chem. A,
     2023, XX, XXXX-XXXX. DOI: 10.1021/acs.jpca.3c04382
   
   for DFT-D4:
   * E. Caldeweyher, C. Bannwarth and S. Grimme, J. Chem. Phys., 2017,
     147, 034112. DOI: 10.1063/1.4993215
   * E. Caldeweyher, S. Ehlert, A. Hansen, H. Neugebauer, S. Spicher,
     C. Bannwarth and S. Grimme, J. Chem. Phys., 2019, 150, 154122.
     DOI: 10.1063/1.5090222
   * E. Caldeweyher, J.-M. Mewes, S. Ehlert and S. Grimme, Phys. Chem. Chem. Phys.
     2020, 22, 8499-8512. DOI: 10.1039/D0CP00502A
   
   for sTDA-xTB:
   * S. Grimme and C. Bannwarth, J. Chem. Phys., 2016, 145, 054103.
     DOI: 10.1063/1.4959605
   
   in the mass-spec context:
   * V. Asgeirsson, C. Bauer and S. Grimme, Chem. Sci., 2017, 8, 4879.
     DOI: 10.1039/c7sc00601b
   * J. Koopman and S. Grimme, ACS Omega 2019, 4, 12, 15120-15133.
     DOI: 10.1021/acsomega.9b02011
   
   for metadynamics refer to:
   * S. Grimme, J. Chem. Theory Comput., 2019, 155, 2847-2862
     DOI: 10.1021/acs.jctc.9b00143
   
   for SPH calculations refer to:
   * S. Spicher and S. Grimme, J. Chem. Theory Comput., 2021, 17, 1701-1714
     DOI: 10.1021/acs.jctc.0c01306
   
   for ONIOM refer to:
   * C. Plett, A. Katbashev, S. Ehlert, S. Grimme, M. Bursch,
     Phys. Chem. Chem. Phys., 2023, 25, 17860-17868. DOI: 10.1039/D3CP02178E
   
   for DIPRO refer to:
   * J. Kohn, N. Gildemeister, S. Grimme, D. Fazzi, A. Hansen,
     J. Chem. Phys., 2023, just accepted.
   
   for PTB refer to:
   * S. Grimme, M. Mueller, A. Hansen, J. Chem. Phys., 2023, 158, 124111.
     DOI: 10.1063/5.0137838
   
   with help from (in alphabetical order)
   P. Atkinson, C. Bannwarth, F. Bohle, G. Brandenburg, E. Caldeweyher
   M. Checinski, S. Dohm, S. Ehlert, S. Ehrlich, I. Gerasimov, C. Hölzer
   A. Katbashev, J. Kohn, J. Koopman, C. Lavigne, S. Lehtola, F. März, M. Müller,
   F. Musil, H. Neugebauer, J. Pisarek, C. Plett, P. Pracht, F. Pultar,
   J. Seibert, P. Shushkov, S. Spicher, M. Stahn, M. Steiner, T. Strunk,
   J. Stückrath, T. Rose, and J. Unsleber
   
 * started run on 2025/05/15 at 16:05:13.546     
   ID    Z sym.   atoms
    1    6 C      1, 2, 4-6, 8-12, 14-17, 19-22
    2    7 N      3, 7, 18
    3   17 Cl     13
    4    8 O      23
    5    1 H      24-49

           -------------------------------------------------
          |                Calculation Setup                |
           -------------------------------------------------

          program call               : xtb /rds/general/user/hgt20/home/callum/QDESCP/Hydroxychloroquine_rdkit_conf_14/Hydroxychloroquine_rdkit_conf_14.xyz --opt normal --acc 1 --gfn 2 --chrg 0 --uhf 0 -P 1
          hostname                   : login-c
          coordinate file            : /rds/general/user/hgt20/home/callum/QDESCP/Hydroxychloroquine_rdkit_conf_14/Hydroxychloroquine_rdkit_conf_14.xyz
          omp threads                :                     1


           -------------------------------------------------
          |                 G F N 2 - x T B                 |
           -------------------------------------------------

        Reference                      10.1021/acs.jctc.8b01176
      * Hamiltonian:
        H0-scaling (s, p, d)           1.850000    2.230000    2.230000
        zeta-weighting                 0.500000
      * Dispersion:
        s8                             2.700000
        a1                             0.520000
        a2                             5.000000
        s9                             5.000000
      * Repulsion:
        kExp                           1.500000    1.000000
        rExp                           1.000000
      * Coulomb:
        alpha                          2.000000
        third order                    shell-resolved
        anisotropic                    true
        a3                             3.000000
        a5                             4.000000
        cn-shift                       1.200000
        cn-exp                         4.000000
        max-rad                        5.000000


          ...................................................
          :                      SETUP                      :
          :.................................................:
          :  # basis functions                 124          :
          :  # atomic orbitals                 123          :
          :  # shells                           73          :
          :  # electrons                       126          :
          :  max. iterations                   250          :
          :  Hamiltonian                  GFN2-xTB          :
          :  restarted?                      false          :
          :  GBSA solvation                  false          :
          :  PC potential                    false          :
          :  electronic temp.          300.0000000     K    :
          :  accuracy                    1.0000000          :
          :  -> integral cutoff          0.2500000E+02      :
          :  -> integral neglect         0.1000000E-07      :
          :  -> SCF convergence          0.1000000E-05 Eh   :
          :  -> wf. convergence          0.1000000E-03 e    :
          :  Broyden damping             0.4000000          :
          :  net charge                          0          :
          :  unpaired electrons                  0          :
          ...................................................

 iter      E             dE          RMSdq      gap      omega  full diag
   1    -70.0005531 -0.700006E+02  0.356E+00    2.41       0.0  T
   2    -70.0812433 -0.806902E-01  0.222E+00    2.33       1.0  T
   3    -70.0668291  0.144142E-01  0.119E+00    2.71       1.0  T
   4    -70.0956782 -0.288490E-01  0.398E-01    2.29       1.0  T
   5    -70.1004212 -0.474310E-02  0.122E-01    2.36       1.0  T
   6    -70.1009170 -0.495712E-03  0.560E-02    2.35       1.0  T
   7    -70.1009747 -0.577494E-04  0.279E-02    2.36       1.0  T
   8    -70.1009834 -0.866093E-05  0.124E-02    2.36       1.1  T
   9    -70.1009859 -0.254311E-05  0.736E-03    2.36       1.9  T
  10    -70.1009864 -0.532724E-06  0.533E-03    2.36       2.7  T
  11    -70.1009869 -0.439440E-06  0.306E-03    2.36       4.7  T
  12    -70.1009871 -0.173679E-06  0.164E-03    2.36       8.7  T
  13    -70.1009871 -0.506494E-07  0.800E-04    2.36      17.9  T
  14    -70.1009871 -0.115262E-07  0.431E-04    2.36      33.1  T

   *** convergence criteria satisfied after 14 iterations ***

         #    Occupation            Energy/Eh            Energy/eV
      -------------------------------------------------------------
         1        2.0000           -1.0526260             -28.6434
       ...           ...                  ...                  ...
        57        2.0000           -0.4144759             -11.2785
        58        2.0000           -0.4124153             -11.2224
        59        2.0000           -0.4070409             -11.0761
        60        2.0000           -0.3957793             -10.7697
        61        2.0000           -0.3730578             -10.1514
        62        2.0000           -0.3706438             -10.0857
        63        2.0000           -0.3623070              -9.8589 (HOMO)
        64                         -0.2755805              -7.4989 (LUMO)
        65                         -0.2369864              -6.4487
        66                         -0.2046712              -5.5694
        67                         -0.1603524              -4.3634
        68                         -0.1320035              -3.5920
       ...                                ...                  ...
       123                          0.6615511              18.0017
      -------------------------------------------------------------
                  HL-Gap            0.0867265 Eh            2.3599 eV
             Fermi-level           -0.3189438 Eh           -8.6789 eV

 SCC (total)                   0 d,  0 h,  0 min,  0.080 sec
 SCC setup                      ...        0 min,  0.000 sec (  0.554%)
 Dispersion                     ...        0 min,  0.001 sec (  0.681%)
 classical contributions        ...        0 min,  0.000 sec (  0.238%)
 integral evaluation            ...        0 min,  0.008 sec ( 10.494%)
 iterations                     ...        0 min,  0.043 sec ( 53.116%)
 molecular gradient             ...        0 min,  0.028 sec ( 34.635%)
 printout                       ...        0 min,  0.000 sec (  0.274%)

         :::::::::::::::::::::::::::::::::::::::::::::::::::::
         ::                     SUMMARY                     ::
         :::::::::::::::::::::::::::::::::::::::::::::::::::::
         :: total energy             -69.197611361675 Eh    ::
         :: gradient norm              0.090678467902 Eh/a0 ::
         :: HOMO-LUMO gap              2.359948935092 eV    ::
         ::.................................................::
         :: SCC energy               -70.101066390232 Eh    ::
         :: -> isotropic ES            0.053993102735 Eh    ::
         :: -> anisotropic ES          0.009651069938 Eh    ::
         :: -> anisotropic XC          0.039869106627 Eh    ::
         :: -> dispersion             -0.047835397534 Eh    ::
         :: repulsion energy           0.903455028556 Eh    ::
         :: add. restraining           0.000000000000 Eh    ::
         :: total charge              -0.000000000000 e     ::
         :::::::::::::::::::::::::::::::::::::::::::::::::::::

      ----------------------------------------------------------- 
     |                   =====================                   |
     |                        A N C O P T                        |
     |                   =====================                   |
     |               Approximate Normal Coordinate               |
     |                Rational Function Optimizer                |
      ----------------------------------------------------------- 
      ----------------------------------------------------------- 
     |                   =====================                   |
     |                        A N C O P T                        |
     |                   =====================                   |
     |               Approximate Normal Coordinate               |
     |                Rational Function Optimizer                |
      ----------------------------------------------------------- 

          ...................................................
          :                      SETUP                      :
          :.................................................:
          :   optimization level            normal          :
          :   max. optcycles                   200          :
          :   ANC micro-cycles                  20          :
          :   degrees of freedom               141          :
          :.................................................:
          :   RF solver                   davidson          :
          :   write xtbopt.log                true          :
          :   linear?                        false          :
          :   energy convergence         0.5000000E-05 Eh   :
          :   grad. convergence          0.1000000E-02 Eh/α :
          :   maxmium RF displ.          1.0000000          :
          :   Hlow (freq-cutoff)         0.1000000E-01      :
          :   Hmax (freq-cutoff)         5.0000000          :
          :   S6 in model hess.         20.0000000          :
          ...................................................

generating ANC from exact Hessian ...
Using Lindh-Hessian (1995)
 Shifting diagonal of input Hessian by    9.8425100712428871E-003
 Lowest  eigenvalues of input Hessian
    0.000000    0.000000    0.000000    0.000000    0.000000    0.000000
    0.010000    0.010054    0.010157    0.010806    0.011035    0.011390
    0.011904    0.012725    0.012910    0.013318    0.014265    0.014379
 Highest eigenvalues
    1.823674    1.831620    1.882508    1.980238    2.086098    2.160715


........................................................................
.............................. CYCLE    1 ..............................
........................................................................

 iter      E             dE          RMSdq      gap      omega  full diag
   1    -70.1009871 -0.701010E+02  0.285E-04    2.36       0.0  T
   2    -70.1009871 -0.671022E-09  0.234E-04    2.36      61.1  T
   3    -70.1009871 -0.320028E-09  0.198E-04    2.36      72.1  T
     SCC iter.                  ...        0 min,  0.008 sec
     gradient                   ...        0 min,  0.028 sec
 * total energy  :   -69.1976114 Eh     change       -0.2915314E-08 Eh
   gradient norm :     0.0906788 Eh/α   predicted     0.0000000E+00 (-100.00%)
   displ. norm   :     0.2429973 α      lambda       -0.9975143E-02
   maximum displ.:     0.0628130 α      in ANC's #31, #45, #50, ...

........................................................................
.............................. CYCLE    2 ..............................
........................................................................

 iter      E             dE          RMSdq      gap      omega  full diag
   1    -70.1311114 -0.701311E+02  0.141E-01    2.47       0.0  T
   2    -70.1312147 -0.103287E-03  0.881E-02    2.47       1.0  T
   3    -70.1312157 -0.105933E-05  0.492E-02    2.49       1.0  T
   4    -70.1312489 -0.331206E-04  0.122E-02    2.48       1.2  T
   5    -70.1312548 -0.594480E-05  0.397E-03    2.48       3.6  T
   6    -70.1312553 -0.447038E-06  0.163E-03    2.48       8.8  T
   7    -70.1312553 -0.248642E-07  0.556E-04    2.48      25.7  T
   8    -70.1312553 -0.365031E-08  0.295E-04    2.48      48.5  T
     SCC iter.                  ...        0 min,  0.056 sec
     gradient                   ...        0 min,  0.028 sec
 * total energy  :   -69.2044425 Eh     change       -0.6831114E-02 Eh
   gradient norm :     0.0373881 Eh/α   predicted    -0.5283978E-02 ( -22.65%)
   displ. norm   :     0.2475600 α      lambda       -0.3070225E-02
   maximum displ.:     0.0831845 α      in ANC's #10, #9, #8, ...

........................................................................
.............................. CYCLE    3 ..............................
........................................................................

 iter      E             dE          RMSdq      gap      omega  full diag
   1    -70.1474323 -0.701474E+02  0.957E-02    2.57       0.0  T
   2    -70.1475109 -0.786349E-04  0.598E-02    2.55       1.0  T
   3    -70.1475335 -0.226149E-04  0.350E-02    2.57       1.0  T
   4    -70.1475430 -0.945187E-05  0.957E-03    2.56       1.5  T
   5    -70.1475465 -0.353526E-05  0.328E-03    2.57       4.4  T
   6    -70.1475468 -0.301568E-06  0.131E-03    2.56      10.9  T
   7    -70.1475468 -0.140362E-07  0.430E-04    2.56      33.2  T
   8    -70.1475468 -0.302991E-08  0.214E-04    2.56      66.9  T
     SCC iter.                  ...        0 min,  0.047 sec
     gradient                   ...        0 min,  0.028 sec
 * total energy  :   -69.2062667 Eh     change       -0.1824242E-02 Eh
   gradient norm :     0.0111633 Eh/α   predicted    -0.1629942E-02 ( -10.65%)
   displ. norm   :     0.1964668 α      lambda       -0.6762835E-03
   maximum displ.:     0.0719237 α      in ANC's #9, #7, #10, ...

........................................................................
.............................. CYCLE    4 ..............................
........................................................................

 iter      E             dE          RMSdq      gap      omega  full diag
   1    -70.1493980 -0.701494E+02  0.475E-02    2.59       0.0  T
   2    -70.1494137 -0.157330E-04  0.289E-02    2.57       1.0  T
   3    -70.1494167 -0.295560E-05  0.171E-02    2.58       1.0  T
   4    -70.1494213 -0.457921E-05  0.441E-03    2.58       3.2  T
   5    -70.1494220 -0.718457E-06  0.161E-03    2.58       8.9  T
   6    -70.1494220 -0.458871E-07  0.824E-04    2.58      17.3  T
   7    -70.1494220 -0.686779E-08  0.336E-04    2.58      42.5  T
     SCC iter.                  ...        0 min,  0.018 sec
     gradient                   ...        0 min,  0.049 sec
 * total energy  :   -69.2067961 Eh     change       -0.5294072E-03 Eh
   gradient norm :     0.0115040 Eh/α   predicted    -0.3511984E-03 ( -33.66%)
   displ. norm   :     0.3243221 α      lambda       -0.7914693E-03
   maximum displ.:     0.1370426 α      in ANC's #7, #9, #10, ...

........................................................................
.............................. CYCLE    5 ..............................
........................................................................

 iter      E             dE          RMSdq      gap      omega  full diag
   1    -70.1491796 -0.701492E+02  0.698E-02    2.60       0.0  T
   2    -70.1492064 -0.268250E-04  0.423E-02    2.57       1.0  T
   3    -70.1492053  0.115011E-05  0.246E-02    2.59       1.0  T
   4    -70.1492186 -0.132879E-04  0.607E-03    2.58       2.4  T
   5    -70.1492200 -0.143097E-05  0.223E-03    2.58       6.4  T
   6    -70.1492201 -0.634573E-07  0.118E-03    2.58      12.1  T
   7    -70.1492201 -0.171049E-07  0.427E-04    2.58      33.4  T
   8    -70.1492201 -0.178329E-08  0.316E-04    2.58      45.2  T
     SCC iter.                  ...        0 min,  0.020 sec
     gradient                   ...        0 min,  0.028 sec
 * total energy  :   -69.2073220 Eh     change       -0.5259189E-03 Eh
   gradient norm :     0.0104243 Eh/α   predicted    -0.4373619E-03 ( -16.84%)
   displ. norm   :     0.2198383 α      lambda       -0.3128211E-03
   maximum displ.:     0.1114936 α      in ANC's #7, #9, #12, ...

........................................................................
.............................. CYCLE    6 ..............................
........................................................................

 iter      E             dE          RMSdq      gap      omega  full diag
   1    -70.1496287 -0.701496E+02  0.415E-02    2.58       0.0  T
   2    -70.1496341 -0.540542E-05  0.250E-02    2.57       1.0  T
   3    -70.1496305  0.364500E-05  0.132E-02    2.58       1.1  T
   4    -70.1496363 -0.583809E-05  0.299E-03    2.58       4.8  T
   5    -70.1496366 -0.347520E-06  0.115E-03    2.58      12.4  T
   6    -70.1496367 -0.113467E-07  0.584E-04    2.58      24.5  T
   7    -70.1496367 -0.561228E-08  0.147E-04    2.58      97.2  T
     SCC iter.                  ...        0 min,  0.045 sec
     gradient                   ...        0 min,  0.028 sec
 * total energy  :   -69.2075528 Eh     change       -0.2307945E-03 Eh
   gradient norm :     0.0070145 Eh/α   predicted    -0.1639829E-03 ( -28.95%)
   displ. norm   :     0.2596480 α      lambda       -0.2729915E-03
   maximum displ.:     0.1411334 α      in ANC's #7, #9, #12, ...

........................................................................
.............................. CYCLE    7 ..............................
........................................................................

 iter      E             dE          RMSdq      gap      omega  full diag
   1    -70.1505398 -0.701505E+02  0.468E-02    2.58       0.0  T
   2    -70.1505437 -0.392538E-05  0.275E-02    2.57       1.0  T
   3    -70.1505387  0.501048E-05  0.127E-02    2.58       1.1  T
   4    -70.1505453 -0.652710E-05  0.276E-03    2.57       5.2  T
   5    -70.1505455 -0.247920E-06  0.119E-03    2.57      12.0  T
   6    -70.1505455 -0.104882E-07  0.561E-04    2.57      25.5  T
   7    -70.1505455 -0.570490E-08  0.205E-04    2.57      69.7  T
     SCC iter.                  ...        0 min,  0.018 sec
     gradient                   ...        0 min,  0.049 sec
 * total energy  :   -69.2077557 Eh     change       -0.2028156E-03 Eh
   gradient norm :     0.0048341 Eh/α   predicted    -0.1457077E-03 ( -28.16%)
   displ. norm   :     0.2772259 α      lambda       -0.2239056E-03
   maximum displ.:     0.1479290 α      in ANC's #7, #9, #6, ...

........................................................................
.............................. CYCLE    8 ..............................
........................................................................

 iter      E             dE          RMSdq      gap      omega  full diag
   1    -70.1515949 -0.701516E+02  0.477E-02    2.57       0.0  T
   2    -70.1515972 -0.236712E-05  0.280E-02    2.57       1.0  T
   3    -70.1515938  0.339536E-05  0.101E-02    2.57       1.4  T
   4    -70.1515981 -0.421221E-05  0.235E-03    2.57       6.1  T
   5    -70.1515982 -0.139733E-06  0.112E-03    2.57      12.7  T
   6    -70.1515982 -0.112111E-07  0.542E-04    2.57      26.4  T
   7    -70.1515982 -0.443703E-08  0.312E-04    2.57      45.7  T
     SCC iter.                  ...        0 min,  0.017 sec
     gradient                   ...        0 min,  0.029 sec
 * total energy  :   -69.2079154 Eh     change       -0.1596980E-03 Eh
   gradient norm :     0.0036757 Eh/α   predicted    -0.1205739E-03 ( -24.50%)
   displ. norm   :     0.2420814 α      lambda       -0.1307986E-03
   maximum displ.:     0.1169810 α      in ANC's #7, #6, #9, ...

........................................................................
.............................. CYCLE    9 ..............................
........................................................................

 iter      E             dE          RMSdq      gap      omega  full diag
   1    -70.1520662 -0.701521E+02  0.403E-02    2.57       0.0  T
   2    -70.1520674 -0.123685E-05  0.236E-02    2.57       1.0  T
   3    -70.1520658  0.165736E-05  0.733E-03    2.57       1.9  T
   4    -70.1520679 -0.208525E-05  0.173E-03    2.57       8.3  T
   5    -70.1520679 -0.619954E-07  0.878E-04    2.57      16.3  T
   6    -70.1520679 -0.726439E-08  0.438E-04    2.57      32.6  T
     SCC iter.                  ...        0 min,  0.015 sec
     gradient                   ...        0 min,  0.028 sec
 * total energy  :   -69.2080066 Eh     change       -0.9122788E-04 Eh
   gradient norm :     0.0032284 Eh/α   predicted    -0.6923214E-04 ( -24.11%)
   displ. norm   :     0.1657842 α      lambda       -0.7823829E-04
   maximum displ.:     0.0959045 α      in ANC's #6, #9, #7, ...

........................................................................
.............................. CYCLE   10 ..............................
........................................................................

 iter      E             dE          RMSdq      gap      omega  full diag
   1    -70.1529739 -0.701530E+02  0.259E-02    2.57       0.0  T
   2    -70.1529742 -0.377291E-06  0.154E-02    2.57       1.0  T
   3    -70.1529740  0.251163E-06  0.264E-03    2.57       5.4  T
   4    -70.1529743 -0.351010E-06  0.846E-04    2.57      16.9  T
   5    -70.1529744 -0.159670E-07  0.465E-04    2.57      30.7  T
     SCC iter.                  ...        0 min,  0.043 sec
     gradient                   ...        0 min,  0.028 sec
 * total energy  :   -69.2080576 Eh     change       -0.5106263E-04 Eh
   gradient norm :     0.0044755 Eh/α   predicted    -0.4020119E-04 ( -21.27%)
   displ. norm   :     0.1758162 α      lambda       -0.6850715E-04
   maximum displ.:     0.0938114 α      in ANC's #6, #9, #7, ...

........................................................................
.............................. CYCLE   11 ..............................
........................................................................

 iter      E             dE          RMSdq      gap      omega  full diag
   1    -70.1522096 -0.701522E+02  0.279E-02    2.57       0.0  T
   2    -70.1522100 -0.411589E-06  0.164E-02    2.57       1.0  T
   3    -70.1522095  0.495574E-06  0.416E-03    2.57       3.4  T
   4    -70.1522102 -0.643954E-06  0.908E-04    2.57      15.7  T
   5    -70.1522102 -0.147075E-07  0.504E-04    2.57      28.3  T
     SCC iter.                  ...        0 min,  0.013 sec
     gradient                   ...        0 min,  0.061 sec
 * total energy  :   -69.2080992 Eh     change       -0.4151007E-04 Eh
   gradient norm :     0.0025766 Eh/α   predicted    -0.3531989E-04 ( -14.91%)
   displ. norm   :     0.1157934 α      lambda       -0.5093268E-04
   maximum displ.:     0.0734815 α      in ANC's #6, #4, #8, ...

........................................................................
.............................. CYCLE   12 ..............................
........................................................................

 iter      E             dE          RMSdq      gap      omega  full diag
   1    -70.1522349 -0.701522E+02  0.169E-02    2.57       0.0  T
   2    -70.1522351 -0.222384E-06  0.101E-02    2.57       1.4  T
   3    -70.1522345  0.589575E-06  0.383E-03    2.57       3.7  T
   4    -70.1522352 -0.698887E-06  0.675E-04    2.57      21.2  T
   5    -70.1522352 -0.127945E-07  0.317E-04    2.57      45.0  T
     SCC iter.                  ...        0 min,  0.013 sec
     gradient                   ...        0 min,  0.028 sec
 * total energy  :   -69.2081397 Eh     change       -0.4052393E-04 Eh
   gradient norm :     0.0024014 Eh/α   predicted    -0.2580854E-04 ( -36.31%)
   displ. norm   :     0.1763569 α      lambda       -0.6766778E-04
   maximum displ.:     0.1060556 α      in ANC's #6, #10, #4, ...

........................................................................
.............................. CYCLE   13 ..............................
........................................................................

 iter      E             dE          RMSdq      gap      omega  full diag
   1    -70.1517402 -0.701517E+02  0.258E-02    2.58       0.0  T
   2    -70.1517407 -0.485389E-06  0.154E-02    2.58       1.0  T
   3    -70.1517396  0.111180E-05  0.571E-03    2.57       2.5  T
   4    -70.1517409 -0.133819E-05  0.107E-03    2.58      13.3  T
   5    -70.1517410 -0.273130E-07  0.554E-04    2.58      25.8  T
   6    -70.1517410 -0.277178E-08  0.271E-04    2.58      52.8  T
     SCC iter.                  ...        0 min,  0.016 sec
     gradient                   ...        0 min,  0.028 sec
 * total energy  :   -69.2081899 Eh     change       -0.5025410E-04 Eh
   gradient norm :     0.0029461 Eh/α   predicted    -0.3488697E-04 ( -30.58%)
   displ. norm   :     0.1993792 α      lambda       -0.5472326E-04
   maximum displ.:     0.1171767 α      in ANC's #6, #10, #4, ...

........................................................................
.............................. CYCLE   14 ..............................
........................................................................

 iter      E             dE          RMSdq      gap      omega  full diag
   1    -70.1513075 -0.701513E+02  0.290E-02    2.58       0.0  T
   2    -70.1513081 -0.608263E-06  0.172E-02    2.58       1.0  T
   3    -70.1513069  0.122378E-05  0.611E-03    2.57       2.3  T
   4    -70.1513084 -0.147856E-05  0.124E-03    2.58      11.5  T
   5    -70.1513084 -0.360604E-07  0.632E-04    2.58      22.6  T
   6    -70.1513084 -0.339097E-08  0.304E-04    2.58      47.1  T
     SCC iter.                  ...        0 min,  0.016 sec
     gradient                   ...        0 min,  0.049 sec
 * total energy  :   -69.2082290 Eh     change       -0.3905514E-04 Eh
   gradient norm :     0.0031317 Eh/α   predicted    -0.2845076E-04 ( -27.15%)
   displ. norm   :     0.1770586 α      lambda       -0.4183439E-04
   maximum displ.:     0.1001866 α      in ANC's #6, #10, #3, ...

........................................................................
.............................. CYCLE   15 ..............................
........................................................................

 iter      E             dE          RMSdq      gap      omega  full diag
   1    -70.1513077 -0.701513E+02  0.261E-02    2.57       0.0  T
   2    -70.1513082 -0.515510E-06  0.155E-02    2.58       1.0  T
   3    -70.1513073  0.860030E-06  0.517E-03    2.57       2.8  T
   4    -70.1513084 -0.104752E-05  0.112E-03    2.58      12.8  T
   5    -70.1513084 -0.308152E-07  0.557E-04    2.58      25.7  T
   6    -70.1513084 -0.277593E-08  0.252E-04    2.58      56.6  T
     SCC iter.                  ...        0 min,  0.015 sec
     gradient                   ...        0 min,  0.060 sec
 * total energy  :   -69.2082605 Eh     change       -0.3148181E-04 Eh
   gradient norm :     0.0025999 Eh/α   predicted    -0.2157388E-04 ( -31.47%)
   displ. norm   :     0.1922567 α      lambda       -0.4744338E-04
   maximum displ.:     0.0997012 α      in ANC's #6, #10, #3, ...

........................................................................
.............................. CYCLE   16 ..............................
........................................................................

 iter      E             dE          RMSdq      gap      omega  full diag
   1    -70.1516998 -0.701517E+02  0.287E-02    2.57       0.0  T
   2    -70.1517004 -0.578473E-06  0.170E-02    2.57       1.0  T
   3    -70.1516996  0.759809E-06  0.491E-03    2.57       2.9  T
   4    -70.1517006 -0.943237E-06  0.112E-03    2.57      12.8  T
   5    -70.1517006 -0.298086E-07  0.567E-04    2.57      25.2  T
   6    -70.1517006 -0.367201E-08  0.229E-04    2.57      62.4  T
     SCC iter.                  ...        0 min,  0.015 sec
     gradient                   ...        0 min,  0.028 sec
 * total energy  :   -69.2082953 Eh     change       -0.3487206E-04 Eh
   gradient norm :     0.0019053 Eh/α   predicted    -0.2460004E-04 ( -29.46%)
   displ. norm   :     0.2552733 α      lambda       -0.4261556E-04
   maximum displ.:     0.1114897 α      in ANC's #6, #7, #3, ...

........................................................................
.............................. CYCLE   17 ..............................
........................................................................

 iter      E             dE          RMSdq      gap      omega  full diag
   1    -70.1525727 -0.701526E+02  0.382E-02    2.57       0.0  T
   2    -70.1525735 -0.831859E-06  0.226E-02    2.57       1.0  T
   3    -70.1525726  0.875523E-06  0.530E-03    2.57       2.7  T
   4    -70.1525738 -0.113418E-05  0.124E-03    2.57      11.5  T
   5    -70.1525738 -0.270711E-07  0.679E-04    2.57      21.0  T
   6    -70.1525738 -0.631434E-08  0.289E-04    2.57      49.4  T
     SCC iter.                  ...        0 min,  0.043 sec
     gradient                   ...        0 min,  0.028 sec
 * total energy  :   -69.2083347 Eh     change       -0.3934113E-04 Eh
   gradient norm :     0.0029335 Eh/α   predicted    -0.2192764E-04 ( -44.26%)
   displ. norm   :     0.0767415 α      lambda       -0.2434262E-04
   maximum displ.:     0.0433911 α      in ANC's #7, #3, #11, ...

........................................................................
.............................. CYCLE   18 ..............................
........................................................................

 iter      E             dE          RMSdq      gap      omega  full diag
   1    -70.1528835 -0.701529E+02  0.118E-02    2.57       0.0  T
   2    -70.1528836 -0.645034E-07  0.696E-03    2.57       2.1  T
   3    -70.1528836  0.100986E-07  0.932E-04    2.57      15.3  T
   4    -70.1528836 -0.229234E-07  0.361E-04    2.57      39.6  T
     SCC iter.                  ...        0 min,  0.010 sec
     gradient                   ...        0 min,  0.059 sec
 * total energy  :   -69.2083555 Eh     change       -0.2077689E-04 Eh
   gradient norm :     0.0024388 Eh/α   predicted    -0.1224662E-04 ( -41.06%)
   displ. norm   :     0.2057241 α      lambda       -0.4880050E-04
   maximum displ.:     0.0987873 α      in ANC's #7, #3, #6, ...

........................................................................
.............................. CYCLE   19 ..............................
........................................................................

 iter      E             dE          RMSdq      gap      omega  full diag
   1    -70.1523524 -0.701524E+02  0.318E-02    2.57       0.0  T
   2    -70.1523527 -0.288910E-06  0.188E-02    2.57       1.0  T
   3    -70.1523525  0.200719E-06  0.242E-03    2.57       5.9  T
   4    -70.1523527 -0.287880E-06  0.852E-04    2.57      16.8  T
   5    -70.1523528 -0.143826E-07  0.449E-04    2.57      31.8  T
     SCC iter.                  ...        0 min,  0.013 sec
     gradient                   ...        0 min,  0.061 sec
 * total energy  :   -69.2083878 Eh     change       -0.3238036E-04 Eh
   gradient norm :     0.0017442 Eh/α   predicted    -0.2543458E-04 ( -21.45%)
   displ. norm   :     0.1731327 α      lambda       -0.1844465E-04
   maximum displ.:     0.0843841 α      in ANC's #7, #3, #6, ...

........................................................................
.............................. CYCLE   20 ..............................
........................................................................

 iter      E             dE          RMSdq      gap      omega  full diag
   1    -70.1524946 -0.701525E+02  0.280E-02    2.57       0.0  T
   2    -70.1524949 -0.277529E-06  0.165E-02    2.57       1.0  T
   3    -70.1524949  0.151964E-07  0.166E-03    2.57       8.6  T
   4    -70.1524950 -0.745515E-07  0.614E-04    2.57      23.3  T
   5    -70.1524950 -0.382562E-08  0.308E-04    2.57      46.4  T
     SCC iter.                  ...        0 min,  0.013 sec
     gradient                   ...        0 min,  0.028 sec
 * total energy  :   -69.2084000 Eh     change       -0.1220387E-04 Eh
   gradient norm :     0.0012694 Eh/α   predicted    -0.9345597E-05 ( -23.42%)
   displ. norm   :     0.0835183 α      lambda       -0.7646867E-05
   maximum displ.:     0.0469479 α      in ANC's #6, #10, #3, ...
 * RMSD in coord.:     0.4256864 α      energy gain  -0.1078868E-01 Eh

generating ANC from exact Hessian ...
Using Lindh-Hessian (1995)
 Shifting diagonal of input Hessian by    9.8387479401576550E-003
 Lowest  eigenvalues of input Hessian
    0.000000    0.000000    0.000000    0.000000    0.000000    0.000000
    0.010000    0.010077    0.010168    0.010859    0.011064    0.011381
    0.012227    0.012651    0.012952    0.013792    0.014600    0.014687
 Highest eigenvalues
    1.848348    1.907014    1.955392    2.028352    2.147300    2.196064


........................................................................
.............................. CYCLE   21 ..............................
........................................................................

 iter      E             dE          RMSdq      gap      omega  full diag
   1    -70.1519787 -0.701520E+02  0.131E-02    2.57       0.0  T
   2    -70.1519788 -0.840578E-07  0.771E-03    2.57       1.9  T
   3    -70.1519787  0.442498E-07  0.142E-03    2.57      10.0  T
   4    -70.1519788 -0.604350E-07  0.444E-04    2.57      32.2  T
   5    -70.1519788 -0.437439E-08  0.198E-04    2.57      72.2  T
     SCC iter.                  ...        0 min,  0.013 sec
     gradient                   ...        0 min,  0.028 sec
 * total energy  :   -69.2084074 Eh     change       -0.7340796E-05 Eh
   gradient norm :     0.0012975 Eh/α   predicted     0.0000000E+00 (-100.00%)
   displ. norm   :     0.0239805 α      lambda       -0.6923812E-05
   maximum displ.:     0.0110781 α      in ANC's #10, #12, #5, ...

........................................................................
.............................. CYCLE   22 ..............................
........................................................................

 iter      E             dE          RMSdq      gap      omega  full diag
   1    -70.1527606 -0.701528E+02  0.612E-03    2.57       0.0  T
   2    -70.1527606 -0.612492E-07  0.352E-03    2.57       4.1  T
   3    -70.1527606  0.462162E-07  0.120E-03    2.57      11.9  T
   4    -70.1527606 -0.568063E-07  0.345E-04    2.57      41.3  T
   5    -70.1527606 -0.422494E-08  0.139E-04    2.57     103.1  T
     SCC iter.                  ...        0 min,  0.013 sec
     gradient                   ...        0 min,  0.049 sec
 * total energy  :   -69.2084145 Eh     change       -0.7112189E-05 Eh
   gradient norm :     0.0004850 Eh/α   predicted    -0.3478259E-05 ( -51.09%)
   displ. norm   :     0.0459963 α      lambda       -0.6173505E-05
   maximum displ.:     0.0199887 α      in ANC's #10, #12, #5, ...

........................................................................
.............................. CYCLE   23 ..............................
........................................................................

 iter      E             dE          RMSdq      gap      omega  full diag
   1    -70.1530408 -0.701530E+02  0.994E-03    2.57       0.0  T
   2    -70.1530409 -0.901990E-07  0.580E-03    2.57       2.5  T
   3    -70.1530407  0.178166E-06  0.210E-03    2.57       6.8  T
   4    -70.1530409 -0.218747E-06  0.403E-04    2.57      35.4  T
   5    -70.1530409 -0.357511E-08  0.212E-04    2.57      67.3  T
     SCC iter.                  ...        0 min,  0.013 sec
     gradient                   ...        0 min,  0.028 sec
 * total energy  :   -69.2084213 Eh     change       -0.6768114E-05 Eh
   gradient norm :     0.0007228 Eh/α   predicted    -0.3091232E-05 ( -54.33%)
   displ. norm   :     0.0670236 α      lambda       -0.5832537E-05
   maximum displ.:     0.0293968 α      in ANC's #5, #10, #2, ...

........................................................................
.............................. CYCLE   24 ..............................
........................................................................

 iter      E             dE          RMSdq      gap      omega  full diag
   1    -70.1529177 -0.701529E+02  0.149E-02    2.57       0.0  T
   2    -70.1529178 -0.169756E-06  0.871E-03    2.57       1.6  T
   3    -70.1529175  0.346350E-06  0.293E-03    2.57       4.9  T
   4    -70.1529179 -0.420525E-06  0.554E-04    2.57      25.8  T
   5    -70.1529179 -0.740560E-08  0.280E-04    2.57      50.9  T
     SCC iter.                  ...        0 min,  0.013 sec
     gradient                   ...        0 min,  0.028 sec
 * total energy  :   -69.2084272 Eh     change       -0.5966017E-05 Eh
   gradient norm :     0.0007234 Eh/α   predicted    -0.2924846E-05 ( -50.97%)
   displ. norm   :     0.0581143 α      lambda       -0.3643682E-05
   maximum displ.:     0.0281898 α      in ANC's #5, #2, #3, ...

........................................................................
.............................. CYCLE   25 ..............................
........................................................................

 iter      E             dE          RMSdq      gap      omega  full diag
   1    -70.1527881 -0.701528E+02  0.133E-02    2.57       0.0  T
   2    -70.1527882 -0.102456E-06  0.779E-03    2.57       1.8  T
   3    -70.1527880  0.180216E-06  0.217E-03    2.57       6.6  T
   4    -70.1527882 -0.219727E-06  0.438E-04    2.57      32.6  T
   5    -70.1527882 -0.443946E-08  0.219E-04    2.57      65.3  T
     SCC iter.                  ...        0 min,  0.013 sec
     gradient                   ...        0 min,  0.037 sec
 * total energy  :   -69.2084314 Eh     change       -0.4145466E-05 Eh
   gradient norm :     0.0004686 Eh/α   predicted    -0.1824999E-05 ( -55.98%)
   displ. norm   :     0.0733136 α      lambda       -0.4238951E-05
   maximum displ.:     0.0357123 α      in ANC's #5, #2, #3, ...

   *** GEOMETRY OPTIMIZATION CONVERGED AFTER 25 ITERATIONS ***

------------------------------------------------------------------------
 total energy gain   :        -0.0108200 Eh       -6.7897 kcal/mol
 total RMSD          :         0.4278387 a0        0.2264 Å
 total power (kW/mol):        -1.1363179 (step)  -15.3311 (real)
------------------------------------------------------------------------

 ANCopt (total)                0 d,  0 h,  0 min,  1.853 sec
 optimizer setup                ...        0 min,  0.000 sec (  0.004%)
 model hessian                  ...        0 min,  0.096 sec (  5.156%)
 ANC generation                 ...        0 min,  0.004 sec (  0.228%)
 coordinate transformation      ...        0 min,  0.000 sec (  0.022%)
 single point calculation       ...        0 min,  1.743 sec ( 94.081%)
 optimization log               ...        0 min,  0.004 sec (  0.234%)
 hessian update                 ...        0 min,  0.000 sec (  0.026%)
 rational function              ...        0 min,  0.004 sec (  0.197%)

================
 final structure:
================
49
 xtb: 6.7.1 (edcfbbe)
C            0.92322028262894        2.09152789960315       -0.16910362320421
C            0.80717688028994        0.56956955211028       -0.29588005788389
N            2.05014606966490       -0.07414556574129        0.07671081199531
C            3.18066881037564       -0.09918509951682       -0.67804774122501
C            3.20584437890576        0.29853579920533       -2.00821362495491
C            4.39505602860254        0.22219221920611       -2.72993245609171
N            5.53445760743716       -0.19896075029873       -2.24715137144457
C            5.55501752541164       -0.60599795915842       -0.96407139465760
C            4.40727592367528       -0.59151790865334       -0.12169695437403
C            4.54715580702740       -1.06072597103685        1.19820670309358
C            5.74871363760830       -1.50916312766674        1.67566607297893
C            6.87191890771542       -1.50415393598778        0.83771960368059
Cl           8.37963241817108       -2.06990593403494        1.46817350699768
C            6.78673839411381       -1.06689104247805       -0.45345855963714
C           -0.30272557677624       -0.00465862847963        0.59103268636984
C           -1.70481224754872        0.36315912488950        0.11264909594088
C           -2.77255519878921       -0.23931926769420        1.02581179721355
N           -4.11029396145566       -0.04763749764135        0.49722073024448
C           -5.06431334608039       -1.02353381626020        1.00741836998859
C           -4.92314512023354       -2.37203196429097        0.30574304339120
C           -4.56725179661142        1.33654020056860        0.55899893148825
C           -4.66706665199077        1.90283868166876       -0.86622788837071
O           -5.42406650562042        1.05461317090741       -1.68835851335327
H            0.03284769330191        2.58098624783836       -0.55184779467720
H            1.05897687681034        2.37423616350437        0.87292979962307
H            1.78053588460315        2.44733424466485       -0.73572160230630
H            0.58946665246412        0.30557090424828       -1.33620256669888
H            2.17203414936749       -0.19731338858203        1.06904125546925
H            2.32220612377810        0.67389695273716       -2.49684411766828
H            4.41382925449725        0.53687023811395       -3.76604035731633
H            3.69596086136739       -1.08656360599714        1.86392655372247
H            5.84199462088077       -1.86802446579621        2.68854396268821
H            7.63898113631886       -1.06261821500321       -1.11292206715826
H           -0.20489454585055       -1.09313261416472        0.59866686988613
H           -0.16520200504197        0.35149063025738        1.61581182520926
H           -1.81374305285719        1.44708806065517        0.09183751627637
H           -1.85926356170089       -0.01379435660282       -0.89954611738109
H           -2.59187261239787       -1.31276227547314        1.10367021374043
H           -2.67362884798878        0.18995612171362        2.03969711895184
H           -6.07035488141506       -0.64624295737547        0.81285693838563
H           -4.95913913189047       -1.16048199005767        2.09713166183804
H           -3.96916925728935       -2.84337537511297        0.52654186068844
H           -5.71524658920592       -3.03855746163257        0.63658574853809
H           -5.00220746838140       -2.24558932049978       -0.77102297784730
H           -3.88860138116484        1.95692121230075        1.15430350194901
H           -5.55728818572899        1.38971591798587        1.02123570640214
H           -3.66004924108697        2.03181738595178       -1.28876242509393
H           -5.16969624278908        2.87256479503231       -0.85898550734004
H           -5.10316851512332        0.15945897206902       -1.50809416806863

 Bond Distances (Angstroems)
 ---------------------------
C1-C2=1.5316         C1-H24=1.0857        C1-H25=1.0882        C1-H26=1.0875        C2-C1=1.5316         C2-N3=1.4485         
C2-C15=1.5324        C2-H27=1.0952        N3-C2=1.4485         N3-C4=1.3595         N3-H28=1.0073        C4-N3=1.3595         
C4-C5=1.3886         C4-C9=1.4340         C5-C4=1.3886         C5-C6=1.3932         C5-H29=1.0773        C6-C5=1.3932         
C6-N7=1.3072         C6-H30=1.0830        N7-C6=1.3072         N7-C8=1.3463         C8-N7=1.3463         C8-C9=1.4238         
C8-C14=1.4108        C9-C4=1.4340         C9-C8=1.4238         C9-C10=1.4078        C10-C9=1.4078        C10-C11=1.3685       
C10-H31=1.0809       C11-C10=1.3685       C11-C12=1.4013       C11-H32=1.0786       C12-C11=1.4013       C12-Cl13=1.7294      
C12-C14=1.3659       Cl13-C12=1.7294      C14-C8=1.4108        C14-C12=1.3659       C14-H33=1.0776       C15-C2=1.5324        
C15-C16=1.5264       C15-H34=1.0929       C15-H35=1.0936       C16-C15=1.5264       C16-C17=1.5287       C16-H36=1.0896       
C16-H37=1.0911       C17-C16=1.5287       C17-N18=1.4511       C17-H38=1.0913       C17-H39=1.1055       N18-C17=1.4511       
N18-C19=1.4570       N18-C21=1.4590       C19-N18=1.4570       C19-C20=1.5267       C19-H40=1.0919       C19-H41=1.1033       
C20-C19=1.5267       C20-H42=1.0867       C20-H43=1.0868       C20-H44=1.0870       C21-N18=1.4590       C21-C22=1.5369       
C21-H45=1.0954       C21-H46=1.0939       C22-C21=1.5369       C22-O23=1.4030       C22-H47=1.0997       C22-H48=1.0923       
O23-C22=1.4030       O23-H49=0.9679       H24-C1=1.0857        H25-C1=1.0882        H26-C1=1.0875        H27-C2=1.0952        
H28-N3=1.0073        H29-C5=1.0773        H30-C6=1.0830        H31-C10=1.0809       H32-C11=1.0786       H33-C14=1.0776       
H34-C15=1.0929       H35-C15=1.0936       H36-C16=1.0896       H37-C16=1.0911       H38-C17=1.0913       H39-C17=1.1055       
H40-C19=1.0919       H41-C19=1.1033       H42-C20=1.0867       H43-C20=1.0868       H44-C20=1.0870       H45-C21=1.0954       
H46-C21=1.0939       H47-C22=1.0997       H48-C22=1.0923       H49-O23=0.9679       
 C  H  Rav=1.0898 sigma=0.0072  Rmin=1.0773  Rmax=1.1055    24
 C  C  Rav=1.4518 sigma=0.0664  Rmin=1.3659  Rmax=1.5369    15
 N  H  Rav=1.0073 sigma=0.0000  Rmin=1.0073  Rmax=1.0073     1
 N  C  Rav=1.4041 sigma=0.0594  Rmin=1.3072  Rmax=1.4590     7
 O  H  Rav=0.9679 sigma=0.0000  Rmin=0.9679  Rmax=0.9679     1
 O  C  Rav=1.4030 sigma=0.0000  Rmin=1.4030  Rmax=1.4030     1
 Cl C  Rav=1.7294 sigma=0.0000  Rmin=1.7294  Rmax=1.7294     1

 selected bond angles (degree)
 --------------------
H24-C1-C2=110.89               H25-C1-C2=110.30               H25-C1-H24=108.83              H26-C1-C2=109.98               
H26-C1-H24=108.38              H26-C1-H25=108.40              N3-C2-C1=110.81                C15-C2-C1=112.29               
C15-C2-N3=107.83               H27-C2-C1=109.46               H27-C2-N3=107.93               H27-C2-C15=108.39              
C4-N3-C2=125.38                H28-N3-C2=114.30               H28-N3-C4=116.36               C5-C4-N3=122.79                
C9-C4-N3=120.15                C9-C4-C5=117.03                C6-C5-C4=119.74                H29-C5-C4=121.29               
H29-C5-C6=118.97               N7-C6-C5=124.78                H30-C6-C5=119.64               H30-C6-N7=115.58               
C8-N7-C6=117.56                C9-C8-N7=123.26                C14-C8-N7=117.20               C14-C8-C9=119.54               
C8-C9-C4=117.61                C10-C9-C4=124.27               C10-C9-C8=118.11               C11-C10-C9=121.57              
H31-C10-C9=120.47              H31-C10-C11=117.95             

 selected dihedral angles (degree)
 ---------------------------------
N3-C2-C1-H24=173.69           N3-C2-C1-H25=294.33           N3-C2-C1-H26= 53.83           C15-C2-C1-H24=294.34          
C15-C2-C1-H25= 54.97          C15-C2-C1-H26=174.48          H27-C2-C1-H24= 54.77          H27-C2-C1-H25=175.41          
H27-C2-C1-H26=294.91          C4-N3-C2-C1=285.56            C4-N3-C2-C15=162.30           C4-N3-C2-H27= 45.40           
H28-N3-C2-C1= 82.21           H28-N3-C2-C15=318.95          H28-N3-C2-H27=202.06          C5-C4-N3-C2=348.51            
C5-C4-N3-H28=192.28           C9-C4-N3-C2=170.59            C9-C4-N3-H28= 14.36           C6-C5-C4-N3=181.25            
C6-C5-C4-C9=359.23            H29-C5-C4-N3=  1.67           H29-C5-C4-C9=179.65           N7-C6-C5-C4=359.57            
N7-C6-C5-H29=179.15           H30-C6-C5-C4=180.26           H30-C6-C5-H29=359.85          C8-N7-C6-C5=  0.98            
C8-N7-C6-H30=180.31           C9-C8-N7-C6=359.70            C14-C8-N7-C6=179.61           C8-C9-C4-N3=179.38            
C8-C9-C4-C5=  1.34            C10-C9-C4-N3=359.46           C10-C9-C4-C5=181.42           C4-C9-C8-N7=359.14            
C4-C9-C8-C14=179.23           C10-C9-C8-N7=179.07           C10-C9-C8-C14=359.16          C11-C10-C9-C4=180.53          
C11-C10-C9-C8=  0.61          H31-C10-C9-C4=  1.23          H31-C10-C9-C8=181.31          
           -------------------------------------------------
          |                Final Singlepoint                |
           -------------------------------------------------

          ...................................................
          :                      SETUP                      :
          :.................................................:
          :  # basis functions                 124          :
          :  # atomic orbitals                 123          :
          :  # shells                           73          :
          :  # electrons                       126          :
          :  max. iterations                   250          :
          :  Hamiltonian                  GFN2-xTB          :
          :  restarted?                      false          :
          :  GBSA solvation                  false          :
          :  PC potential                    false          :
          :  electronic temp.          300.0000000     K    :
          :  accuracy                    1.0000000          :
          :  -> integral cutoff          0.2500000E+02      :
          :  -> integral neglect         0.1000000E-07      :
          :  -> SCF convergence          0.1000000E-05 Eh   :
          :  -> wf. convergence          0.1000000E-03 e    :
          :  Broyden damping             0.4000000          :
          :  net charge                          0          :
          :  unpaired electrons                  0          :
          ...................................................

 iter      E             dE          RMSdq      gap      omega  full diag
   1    -70.1527882 -0.701528E+02  0.859E-05    2.57       0.0  T
   2    -70.1527882 -0.922427E-10  0.581E-05    2.57     245.8  T
   3    -70.1527882 -0.848672E-10  0.334E-05    2.57     427.8  T

   *** convergence criteria satisfied after 3 iterations ***

         #    Occupation            Energy/Eh            Energy/eV
      -------------------------------------------------------------
         1        2.0000           -1.0506582             -28.5899
       ...           ...                  ...                  ...
        57        2.0000           -0.4129181             -11.2361
        58        2.0000           -0.4112531             -11.1908
        59        2.0000           -0.4101289             -11.1602
        60        2.0000           -0.3949090             -10.7460
        61        2.0000           -0.3700997             -10.0709
        62        2.0000           -0.3619731              -9.8498
        63        2.0000           -0.3599671              -9.7952 (HOMO)
        64                         -0.2654848              -7.2242 (LUMO)
        65                         -0.2369370              -6.4474
        66                         -0.1988159              -5.4101
        67                         -0.1536534              -4.1811
        68                         -0.1326609              -3.6099
       ...                                ...                  ...
       123                          0.6822422              18.5648
      -------------------------------------------------------------
                  HL-Gap            0.0944823 Eh            2.5710 eV
             Fermi-level           -0.3127259 Eh           -8.5097 eV

 SCC (total)                   0 d,  0 h,  0 min,  0.045 sec
 SCC setup                      ...        0 min,  0.000 sec (  0.856%)
 Dispersion                     ...        0 min,  0.000 sec (  0.888%)
 classical contributions        ...        0 min,  0.000 sec (  0.412%)
 integral evaluation            ...        0 min,  0.008 sec ( 18.113%)
 iterations                     ...        0 min,  0.008 sec ( 17.185%)
 molecular gradient             ...        0 min,  0.028 sec ( 62.111%)
 printout                       ...        0 min,  0.000 sec (  0.418%)

         :::::::::::::::::::::::::::::::::::::::::::::::::::::
         ::                     SUMMARY                     ::
         :::::::::::::::::::::::::::::::::::::::::::::::::::::
         :: total energy             -69.208431378450 Eh    ::
         :: gradient norm              0.000468770473 Eh/a0 ::
         :: HOMO-LUMO gap              2.570994894280 eV    ::
         ::.................................................::
         :: SCC energy               -70.152853857398 Eh    ::
         :: -> isotropic ES            0.053027060487 Eh    ::
         :: -> anisotropic ES          0.009611946922 Eh    ::
         :: -> anisotropic XC          0.037708771028 Eh    ::
         :: -> dispersion             -0.048275940395 Eh    ::
         :: repulsion energy           0.944422478948 Eh    ::
         :: add. restraining           0.000000000000 Eh    ::
         :: total charge               0.000000000000 e     ::
         :::::::::::::::::::::::::::::::::::::::::::::::::::::

           -------------------------------------------------
          |                Property Printout                |
           -------------------------------------------------

    * Orbital Energies and Occupations

         #    Occupation            Energy/Eh            Energy/eV
      -------------------------------------------------------------
         1        2.0000           -1.0506582             -28.5899
       ...           ...                  ...                  ...
        51        2.0000           -0.4500348             -12.2461
        52        2.0000           -0.4473113             -12.1720
        53        2.0000           -0.4444730             -12.0947
        54        2.0000           -0.4377490             -11.9118
        55        2.0000           -0.4374850             -11.9046
        56        2.0000           -0.4311723             -11.7328
        57        2.0000           -0.4129181             -11.2361
        58        2.0000           -0.4112531             -11.1908
        59        2.0000           -0.4101289             -11.1602
        60        2.0000           -0.3949090             -10.7460
        61        2.0000           -0.3700997             -10.0709
        62        2.0000           -0.3619731              -9.8498
        63        2.0000           -0.3599671              -9.7952 (HOMO)
        64                         -0.2654848              -7.2242 (LUMO)
        65                         -0.2369370              -6.4474
        66                         -0.1988159              -5.4101
        67                         -0.1536534              -4.1811
        68                         -0.1326609              -3.6099
        69                         -0.0688010              -1.8722
        70                         -0.0249370              -0.6786
        71                         -0.0021141              -0.0575
        72                          0.0207986               0.5660
        73                          0.0257665               0.7011
        74                          0.0258636               0.7038
       ...                                ...                  ...
       123                          0.6822422              18.5648
      -------------------------------------------------------------
                  HL-Gap            0.0944823 Eh            2.5710 eV
             Fermi-level           -0.3127259 Eh           -8.5097 eV

     #   Z          covCN         q      C6AA      α(0)
     1   6 C        3.754    -0.115    22.764     6.803
     2   6 C        3.786     0.045    19.841     6.344
     3   7 N        2.695    -0.174    24.761     7.390
     4   6 C        2.902     0.084    26.137     8.383
     5   6 C        2.913    -0.082    30.057     8.990
     6   6 C        2.906     0.064    26.577     8.453
     7   7 N        1.843    -0.255    27.488     7.770
     8   6 C        2.981     0.093    25.928     8.353
     9   6 C        2.983    -0.028    28.684     8.785
    10   6 C        2.919    -0.036    28.901     8.816
    11   6 C        2.951    -0.045    29.127     8.852
    12   6 C        2.885     0.098    25.827     8.332
    13  17 Cl       0.969    -0.181   104.842    15.665
    14   6 C        2.962    -0.052    29.290     8.877
    15   6 C        3.808    -0.069    21.809     6.648
    16   6 C        3.802    -0.066    21.760     6.641
    17   6 C        3.755     0.011    20.449     6.448
    18   7 N        2.728    -0.187    25.045     7.433
    19   6 C        3.749     0.011    20.454     6.450
    20   6 C        3.752    -0.111    22.677     6.791
    21   6 C        3.748    -0.006    20.744     6.496
    22   6 C        3.675     0.074    19.568     6.338
    23   8 O        1.655    -0.445    21.747     6.295
    24   1 H        0.925     0.045     2.378     2.411
    25   1 H        0.925     0.040     2.451     2.448
    26   1 H        0.925     0.047     2.362     2.404
    27   1 H        0.924     0.049     2.333     2.389
    28   1 H        0.860     0.162     1.320     1.800
    29   1 H        0.926     0.029     2.606     2.525
    30   1 H        0.925     0.034     2.526     2.485
    31   1 H        0.926     0.031     2.565     2.505
    32   1 H        0.926     0.052     2.291     2.367
    33   1 H        0.926     0.073     2.052     2.240
    34   1 H        0.924     0.042     2.424     2.435
    35   1 H        0.924     0.035     2.517     2.481
    36   1 H        0.925     0.041     2.438     2.442
    37   1 H        0.924     0.046     2.371     2.408
    38   1 H        0.924     0.039     2.465     2.455
    39   1 H        0.922     0.006     2.962     2.691
    40   1 H        0.924     0.041     2.429     2.437
    41   1 H        0.923     0.010     2.889     2.658
    42   1 H        0.925     0.039     2.467     2.456
    43   1 H        0.925     0.042     2.418     2.431
    44   1 H        0.925     0.044     2.394     2.419
    45   1 H        0.924     0.024     2.671     2.556
    46   1 H        0.924     0.035     2.514     2.479
    47   1 H        0.923     0.020     2.731     2.585
    48   1 H        0.924     0.043     2.409     2.427
    49   1 H        0.805     0.303     0.712     1.325

 Mol. C6AA /au·bohr⁶  :      25117.827216
 Mol. C8AA /au·bohr⁸  :     598148.570650
 Mol. α(0) /au        :        243.615237


Wiberg/Mayer (AO) data.
largest (>0.10) Wiberg bond orders for each atom

 ---------------------------------------------------------------------------
     #   Z sym  total        # sym  WBO       # sym  WBO       # sym  WBO
 ---------------------------------------------------------------------------
     1   6 C    3.991 --     2 C    0.996    25 H    0.986    26 H    0.984
                            24 H    0.982
     2   6 C    3.973 --     1 C    0.996    15 C    0.992     3 N    0.988
                            27 H    0.957
     3   7 N    3.401 --     4 C    1.216     2 C    0.988    28 H    0.932
     4   6 C    3.970 --     5 C    1.394     3 N    1.216     9 C    1.190
     5   6 C    3.978 --     4 C    1.394     6 C    1.368    29 H    0.965
     6   6 C    3.982 --     7 N    1.503     5 C    1.368    30 H    0.963
     7   7 N    3.048 --     6 C    1.503     8 C    1.284
     8   6 C    3.983 --     7 N    1.284    14 C    1.269     9 C    1.245
     9   6 C    3.987 --    10 C    1.305     8 C    1.245     4 C    1.190
    10   6 C    3.992 --    11 C    1.538     9 C    1.305    31 H    0.959
                            14 C    0.111
    11   6 C    3.987 --    10 C    1.538    12 C    1.302    32 H    0.968
    12   6 C    3.916 --    14 C    1.512    11 C    1.302    13 Cl   0.970
    13  17 Cl   1.101 --    12 C    0.970
    14   6 C    3.986 --    12 C    1.512     8 C    1.269    33 H    0.963
                            10 C    0.111
    15   6 C    3.995 --    16 C    1.006     2 C    0.992    35 H    0.975
                            34 H    0.975
    16   6 C    3.995 --    15 C    1.006    17 C    1.001    37 H    0.976
                            36 H    0.972
    17   6 C    3.987 --    18 N    1.006    16 C    1.001    38 H    0.969
                            39 H    0.964
    18   7 N    3.140 --    17 C    1.006    21 C    1.003    19 C    1.000
    19   6 C    3.985 --    20 C    1.014    18 N    1.000    40 H    0.972
                            41 H    0.968
    20   6 C    3.996 --    19 C    1.014    44 H    0.986    43 H    0.985
                            42 H    0.983
    21   6 C    3.987 --    18 N    1.003    22 C    0.987    46 H    0.971
                            45 H    0.968
    22   6 C    3.964 --    23 O    1.010    21 C    0.987    48 H    0.973
                            47 H    0.967
    23   8 O    1.955 --    22 C    1.010    49 H    0.882
    24   1 H    0.997 --     1 C    0.982
    25   1 H    0.998 --     1 C    0.986
    26   1 H    0.998 --     1 C    0.984
    27   1 H    0.997 --     2 C    0.957
    28   1 H    0.973 --     3 N    0.932
    29   1 H    0.999 --     5 C    0.965
    30   1 H    0.998 --     6 C    0.963
    31   1 H    0.999 --    10 C    0.959
    32   1 H    0.997 --    11 C    0.968
    33   1 H    0.994 --    14 C    0.963
    34   1 H    0.998 --    15 C    0.975
    35   1 H    0.999 --    15 C    0.975
    36   1 H    0.998 --    16 C    0.972
    37   1 H    0.998 --    16 C    0.976
    38   1 H    0.998 --    17 C    0.969
    39   1 H    1.000 --    17 C    0.964
    40   1 H    0.998 --    19 C    0.972
    41   1 H    1.000 --    19 C    0.968
    42   1 H    0.999 --    20 C    0.983
    43   1 H    0.998 --    20 C    0.985
    44   1 H    0.998 --    20 C    0.986
    45   1 H    0.999 --    21 C    0.968
    46   1 H    0.999 --    21 C    0.971
    47   1 H    1.000 --    22 C    0.967
    48   1 H    0.998 --    22 C    0.973
    49   1 H    0.908 --    23 O    0.882
 ---------------------------------------------------------------------------

Topologies differ in total number of bonds
Writing topology from bond orders to xtbtopo.mol

molecular dipole:
                 x           y           z       tot (Debye)
 q only:       -1.815       0.228       0.716
   full:       -1.828       0.217       1.531       6.086
molecular quadrupole (traceless):
                xx          xy          yy          xz          yz          zz
 q only:      -39.026      16.638      21.861      -7.055       2.765      17.165
  q+dip:      -43.367      14.904      21.509      -6.945       1.340      21.858
   full:      -43.969      15.919      24.849      -5.819       2.668      19.120

           -------------------------------------------------
          |                Geometry Summary                 |
           -------------------------------------------------

      molecular mass/u    :      335.8721578
   center of mass at/Å    :        1.4864059      -0.2911271      -0.0214352
  moments of inertia/u·Å² :        0.8951972E+03   0.7800403E+04   0.8276861E+04
rotational constants/cm⁻¹ :        0.1883119E-01   0.2161123E-02   0.2036718E-02

 * 50 selected distances

     #   Z          #   Z                                           value/Å
     1   6 C        2   6 C                                       1.5316318
     2   6 C        3   7 N                                       1.4485047
     3   7 N        4   6 C                                       1.3595475
     4   6 C        5   6 C                                       1.3885811
     5   6 C        6   6 C                                       1.3931730
     6   6 C        7   7 N                                       1.3071663
     7   7 N        8   6 C                                       1.3462528
     4   6 C        9   6 C                                       1.4340443
     8   6 C        9   6 C                                       1.4237681
     9   6 C       10   6 C                                       1.4077886
    10   6 C       11   6 C                                       1.3685046
    11   6 C       12   6 C                                       1.4013457
    12   6 C       13  17 Cl                                      1.7293779 (max)
     8   6 C       14   6 C                                       1.4107745
    12   6 C       14   6 C                                       1.3658682
     2   6 C       15   6 C                                       1.5323955
    15   6 C       16   6 C                                       1.5264299
    16   6 C       17   6 C                                       1.5286994
    17   6 C       18   7 N                                       1.4511016
    18   7 N       19   6 C                                       1.4569930
    19   6 C       20   6 C                                       1.5266710
    18   7 N       21   6 C                                       1.4589638
    21   6 C       22   6 C                                       1.5368568
    22   6 C       23   8 O                                       1.4030091
     1   6 C       24   1 H                                       1.0857376
     1   6 C       25   1 H                                       1.0882039
     1   6 C       26   1 H                                       1.0874945
     2   6 C       27   1 H                                       1.0951549
     3   7 N       28   1 H                                       1.0073465
     5   6 C       29   1 H                                       1.0772523
     6   6 C       30   1 H                                       1.0830025
    10   6 C       31   1 H                                       1.0809179
    11   6 C       32   1 H                                       1.0786124
    14   6 C       33   1 H                                       1.0776030
    15   6 C       34   1 H                                       1.0928884
    15   6 C       35   1 H                                       1.0935847
    16   6 C       36   1 H                                       1.0895876
    16   6 C       37   1 H                                       1.0910951
    17   6 C       38   1 H                                       1.0913241
    17   6 C       39   1 H                                       1.1054535
    19   6 C       40   1 H                                       1.0919351
    19   6 C       41   1 H                                       1.1033094
    20   6 C       42   1 H                                       1.0867322
    20   6 C       43   1 H                                       1.0868018
    20   6 C       44   1 H                                       1.0870436
    21   6 C       45   1 H                                       1.0953660
    21   6 C       46   1 H                                       1.0939208
    22   6 C       47   1 H                                       1.0996614
    22   6 C       48   1 H                                       1.0922719
    23   8 O       49   1 H                                       0.9678698 (min)

 * 7 distinct bonds (by element types)

   Z      Z             #   av. dist./Å        max./Å        min./Å
   1 H    6 C          24     1.0897898     1.1054535     1.0772523
   6 C    6 C          15     1.4517688     1.5368568     1.3658682
   1 H    7 N           1     1.0073465     1.0073465     1.0073465
   6 C    7 N           7     1.4040757     1.4589638     1.3071663
   1 H    8 O           1     0.9678698     0.9678698     0.9678698
   6 C    8 O           1     1.4030091     1.4030091     1.4030091
   6 C   17 Cl          1     1.7293779     1.7293779     1.7293779


optimized geometry written to: xtbopt.xyz


           -------------------------------------------------
          | TOTAL ENERGY              -69.208431378450 Eh   |
          | GRADIENT NORM               0.000468770473 Eh/α |
          | HOMO-LUMO GAP               2.570994894280 eV   |
           -------------------------------------------------

------------------------------------------------------------------------
 * finished run on 2025/05/15 at 16:05:15.541     
------------------------------------------------------------------------
 total:
 * wall-time:     0 d,  0 h,  0 min,  1.995 sec
 *  cpu-time:     0 d,  0 h,  0 min,  1.491 sec
 * ratio c/w:     0.747 speedup
 SCF:
 * wall-time:     0 d,  0 h,  0 min,  0.081 sec
 *  cpu-time:     0 d,  0 h,  0 min,  0.074 sec
 * ratio c/w:     0.920 speedup
 ANC optimizer:
 * wall-time:     0 d,  0 h,  0 min,  1.900 sec
 *  cpu-time:     0 d,  0 h,  0 min,  1.404 sec
 * ratio c/w:     0.739 speedup



----- Single-point -----
      -----------------------------------------------------------      
     |                   =====================                   |     
     |                           x T B                           |     
     |                   =====================                   |     
     |                         S. Grimme                         |     
     |          Mulliken Center for Theoretical Chemistry        |     
     |                    University of Bonn                     |     
      -----------------------------------------------------------      

   * xtb version 6.7.1 (edcfbbe) compiled by 'conda@3ef47c1a292c' on 2024-11-25

   xtb is free software: you can redistribute it and/or modify it under
   the terms of the GNU Lesser General Public License as published by
   the Free Software Foundation, either version 3 of the License, or
   (at your option) any later version.
   
   xtb is distributed in the hope that it will be useful,
   but WITHOUT ANY WARRANTY; without even the implied warranty of
   MERCHANTABILITY or FITNESS FOR A PARTICULAR PURPOSE.  See the
   GNU Lesser General Public License for more details.
   
   Cite this work as:
   * C. Bannwarth, E. Caldeweyher, S. Ehlert, A. Hansen, P. Pracht,
     J. Seibert, S. Spicher, S. Grimme, WIREs Comput. Mol. Sci., 2020, 11,
     e01493. DOI: 10.1002/wcms.1493
   
   for GFN2-xTB:
   * C. Bannwarth, S. Ehlert and S. Grimme., J. Chem. Theory Comput., 2019,
     15, 1652-1671. DOI: 10.1021/acs.jctc.8b01176
   for GFN1-xTB:
   * S. Grimme, C. Bannwarth, P. Shushkov, J. Chem. Theory Comput., 2017,
     13, 1989-2009. DOI: 10.1021/acs.jctc.7b00118
   for GFN0-xTB:
   * P. Pracht, E. Caldeweyher, S. Ehlert, S. Grimme, ChemRxiv, 2019, preprint.
     DOI: 10.26434/chemrxiv.8326202.v1
   for GFN-FF:
   * S. Spicher and S. Grimme, Angew. Chem. Int. Ed., 2020, 59, 15665-15673.
     DOI: 10.1002/anie.202004239
   
   for ALPB and GBSA implicit solvation:
   * S. Ehlert, M. Stahn, S. Spicher, S. Grimme, J. Chem. Theory Comput.,
     2021, 17, 4250-4261. DOI: 10.1021/acs.jctc.1c00471
   
   for ddCOSMO and CPCM-X implicit solvation:
   * M. Stahn, S. Ehlert, S. Grimme, J. Phys. Chem. A,
     2023, XX, XXXX-XXXX. DOI: 10.1021/acs.jpca.3c04382
   
   for DFT-D4:
   * E. Caldeweyher, C. Bannwarth and S. Grimme, J. Chem. Phys., 2017,
     147, 034112. DOI: 10.1063/1.4993215
   * E. Caldeweyher, S. Ehlert, A. Hansen, H. Neugebauer, S. Spicher,
     C. Bannwarth and S. Grimme, J. Chem. Phys., 2019, 150, 154122.
     DOI: 10.1063/1.5090222
   * E. Caldeweyher, J.-M. Mewes, S. Ehlert and S. Grimme, Phys. Chem. Chem. Phys.
     2020, 22, 8499-8512. DOI: 10.1039/D0CP00502A
   
   for sTDA-xTB:
   * S. Grimme and C. Bannwarth, J. Chem. Phys., 2016, 145, 054103.
     DOI: 10.1063/1.4959605
   
   in the mass-spec context:
   * V. Asgeirsson, C. Bauer and S. Grimme, Chem. Sci., 2017, 8, 4879.
     DOI: 10.1039/c7sc00601b
   * J. Koopman and S. Grimme, ACS Omega 2019, 4, 12, 15120-15133.
     DOI: 10.1021/acsomega.9b02011
   
   for metadynamics refer to:
   * S. Grimme, J. Chem. Theory Comput., 2019, 155, 2847-2862
     DOI: 10.1021/acs.jctc.9b00143
   
   for SPH calculations refer to:
   * S. Spicher and S. Grimme, J. Chem. Theory Comput., 2021, 17, 1701-1714
     DOI: 10.1021/acs.jctc.0c01306
   
   for ONIOM refer to:
   * C. Plett, A. Katbashev, S. Ehlert, S. Grimme, M. Bursch,
     Phys. Chem. Chem. Phys., 2023, 25, 17860-17868. DOI: 10.1039/D3CP02178E
   
   for DIPRO refer to:
   * J. Kohn, N. Gildemeister, S. Grimme, D. Fazzi, A. Hansen,
     J. Chem. Phys., 2023, just accepted.
   
   for PTB refer to:
   * S. Grimme, M. Mueller, A. Hansen, J. Chem. Phys., 2023, 158, 124111.
     DOI: 10.1063/5.0137838
   
   with help from (in alphabetical order)
   P. Atkinson, C. Bannwarth, F. Bohle, G. Brandenburg, E. Caldeweyher
   M. Checinski, S. Dohm, S. Ehlert, S. Ehrlich, I. Gerasimov, C. Hölzer
   A. Katbashev, J. Kohn, J. Koopman, C. Lavigne, S. Lehtola, F. März, M. Müller,
   F. Musil, H. Neugebauer, J. Pisarek, C. Plett, P. Pracht, F. Pultar,
   J. Seibert, P. Shushkov, S. Spicher, M. Stahn, M. Steiner, T. Strunk,
   J. Stückrath, T. Rose, and J. Unsleber
   
 * started run on 2025/05/15 at 16:05:15.557     
   ID    Z sym.   atoms
    1    6 C      1, 2, 4-6, 8-12, 14-17, 19-22
    2    7 N      3, 7, 18
    3   17 Cl     13
    4    8 O      23
    5    1 H      24-49

           -------------------------------------------------
          |                Calculation Setup                |
           -------------------------------------------------

          program call               : xtb /rds/general/user/hgt20/home/callum/QDESCP/Hydroxychloroquine_rdkit_conf_14/Hydroxychloroquine_rdkit_conf_14.xyz --acc 1 --gfn 2 --chrg 0 --uhf 0 --etemp 300 --input /rds/general/user/hgt20/home/callum/QDESCP/Hydroxychloroquine_rdkit_conf_14/Hydroxychloroquine_rdkit_conf_14_xtb.inp -P 1
          hostname                   : login-c
          coordinate file            : /rds/general/user/hgt20/home/callum/QDESCP/Hydroxychloroquine_rdkit_conf_14/Hydroxychloroquine_rdkit_conf_14.xyz
          omp threads                :                     1


           -------------------------------------------------
          |                 G F N 2 - x T B                 |
           -------------------------------------------------

        Reference                      10.1021/acs.jctc.8b01176
      * Hamiltonian:
        H0-scaling (s, p, d)           1.850000    2.230000    2.230000
        zeta-weighting                 0.500000
      * Dispersion:
        s8                             2.700000
        a1                             0.520000
        a2                             5.000000
        s9                             5.000000
      * Repulsion:
        kExp                           1.500000    1.000000
        rExp                           1.000000
      * Coulomb:
        alpha                          2.000000
        third order                    shell-resolved
        anisotropic                    true
        a3                             3.000000
        a5                             4.000000
        cn-shift                       1.200000
        cn-exp                         4.000000
        max-rad                        5.000000

q/qsh data taken from xtbrestart
CAMM data taken from xtbrestart

          ...................................................
          :                      SETUP                      :
          :.................................................:
          :  # basis functions                 124          :
          :  # atomic orbitals                 123          :
          :  # shells                           73          :
          :  # electrons                       126          :
          :  max. iterations                   250          :
          :  Hamiltonian                  GFN2-xTB          :
          :  restarted?                       true          :
          :  GBSA solvation                  false          :
          :  PC potential                    false          :
          :  electronic temp.          300.0000000     K    :
          :  accuracy                    1.0000000          :
          :  -> integral cutoff          0.2500000E+02      :
          :  -> integral neglect         0.1000000E-07      :
          :  -> SCF convergence          0.1000000E-05 Eh   :
          :  -> wf. convergence          0.1000000E-03 e    :
          :  Broyden damping             0.4000000          :
[...]
     2020, 22, 8499-8512. DOI: 10.1039/D0CP00502A
   
   for sTDA-xTB:
   * S. Grimme and C. Bannwarth, J. Chem. Phys., 2016, 145, 054103.
     DOI: 10.1063/1.4959605
   
   in the mass-spec context:
   * V. Asgeirsson, C. Bauer and S. Grimme, Chem. Sci., 2017, 8, 4879.
     DOI: 10.1039/c7sc00601b
   * J. Koopman and S. Grimme, ACS Omega 2019, 4, 12, 15120-15133.
     DOI: 10.1021/acsomega.9b02011
   
   for metadynamics refer to:
   * S. Grimme, J. Chem. Theory Comput., 2019, 155, 2847-2862
     DOI: 10.1021/acs.jctc.9b00143
   
   for SPH calculations refer to:
   * S. Spicher and S. Grimme, J. Chem. Theory Comput., 2021, 17, 1701-1714
     DOI: 10.1021/acs.jctc.0c01306
   
   for ONIOM refer to:
   * C. Plett, A. Katbashev, S. Ehlert, S. Grimme, M. Bursch,
     Phys. Chem. Chem. Phys., 2023, 25, 17860-17868. DOI: 10.1039/D3CP02178E
   
   for DIPRO refer to:
   * J. Kohn, N. Gildemeister, S. Grimme, D. Fazzi, A. Hansen,
     J. Chem. Phys., 2023, just accepted.
   
   for PTB refer to:
   * S. Grimme, M. Mueller, A. Hansen, J. Chem. Phys., 2023, 158, 124111.
     DOI: 10.1063/5.0137838
   
   with help from (in alphabetical order)
   P. Atkinson, C. Bannwarth, F. Bohle, G. Brandenburg, E. Caldeweyher
   M. Checinski, S. Dohm, S. Ehlert, S. Ehrlich, I. Gerasimov, C. Hölzer
   A. Katbashev, J. Kohn, J. Koopman, C. Lavigne, S. Lehtola, F. März, M. Müller,
   F. Musil, H. Neugebauer, J. Pisarek, C. Plett, P. Pracht, F. Pultar,
   J. Seibert, P. Shushkov, S. Spicher, M. Stahn, M. Steiner, T. Strunk,
   J. Stückrath, T. Rose, and J. Unsleber
   
 * started run on 2025/05/15 at 16:05:17.583     
   ID    Z sym.   atoms
    1    6 C      1, 2, 4-6, 8-12, 14-17, 19-22
    2    7 N      3, 7, 18
    3   17 Cl     13
    4    8 O      23
    5    1 H      24-49

           -------------------------------------------------
          |                Calculation Setup                |
           -------------------------------------------------

          program call               : xtb /rds/general/user/hgt20/home/callum/QDESCP/Hydroxychloroquine_rdkit_conf_14/Hydroxychloroquine_rdkit_conf_14.xyz --acc 1 --gfn 2 --chrg 0 --uhf 2 --etemp 300 --input /rds/general/user/hgt20/home/callum/QDESCP/Hydroxychloroquine_rdkit_conf_14/Hydroxychloroquine_rdkit_conf_14_xtb.inp -P 1
          hostname                   : login-c
          coordinate file            : /rds/general/user/hgt20/home/callum/QDESCP/Hydroxychloroquine_rdkit_conf_14/Hydroxychloroquine_rdkit_conf_14.xyz
          omp threads                :                     1


           -------------------------------------------------
          |                 G F N 2 - x T B                 |
           -------------------------------------------------

        Reference                      10.1021/acs.jctc.8b01176
      * Hamiltonian:
        H0-scaling (s, p, d)           1.850000    2.230000    2.230000
        zeta-weighting                 0.500000
      * Dispersion:
        s8                             2.700000
        a1                             0.520000
        a2                             5.000000
        s9                             5.000000
      * Repulsion:
        kExp                           1.500000    1.000000
        rExp                           1.000000
      * Coulomb:
        alpha                          2.000000
        third order                    shell-resolved
        anisotropic                    true
        a3                             3.000000
        a5                             4.000000
        cn-shift                       1.200000
        cn-exp                         4.000000
        max-rad                        5.000000


          ...................................................
          :                      SETUP                      :
          :.................................................:
          :  # basis functions                 124          :
          :  # atomic orbitals                 123          :
          :  # shells                           73          :
          :  # electrons                       126          :
          :  max. iterations                   250          :
          :  Hamiltonian                  GFN2-xTB          :
          :  restarted?                      false          :
          :  GBSA solvation                  false          :
          :  PC potential                    false          :
          :  electronic temp.          300.0000000     K    :
          :  accuracy                    1.0000000          :
          :  -> integral cutoff          0.2500000E+02      :
          :  -> integral neglect         0.1000000E-07      :
          :  -> SCF convergence          0.1000000E-05 Eh   :
          :  -> wf. convergence          0.1000000E-03 e    :
          :  Broyden damping             0.4000000          :
          :  net charge                          0          :
          :  unpaired electrons                  2          :
          ...................................................

 iter      E             dE          RMSdq      gap      omega  full diag
   1    -69.8644515 -0.698645E+02  0.349E+00    0.48       0.0  T
   2    -69.9140300 -0.495785E-01  0.245E+00    0.88       1.0  T
   3    -69.9368279 -0.227979E-01  0.183E+00    0.67       1.0  T
   4    -70.0084432 -0.716153E-01  0.926E-01    0.75       1.0  T
   5    -70.0186814 -0.102381E-01  0.716E-01    0.71       1.0  T
   6    -70.0292518 -0.105705E-01  0.497E-01    0.70       1.0  T
   7    -70.0433753 -0.141235E-01  0.184E-01    0.70       1.0  T
   8    -70.0445869 -0.121154E-02  0.903E-02    0.71       1.0  T
   9    -70.0319096  0.126773E-01  0.341E-01    0.71       1.0  T
  10    -70.0445223 -0.126128E-01  0.797E-02    0.71       1.0  T
  11    -70.0448501 -0.327797E-03  0.654E-02    0.70       1.0  T
  12    -70.0446263  0.223871E-03  0.904E-02    0.71       1.0  T
  13    -70.0450083 -0.381992E-03  0.392E-02    0.71       1.0  T
  14    -70.0451031 -0.948224E-04  0.835E-03    0.70       1.7  T
  15    -70.0451085 -0.538653E-05  0.301E-03    0.70       4.7  T
  16    -70.0451089 -0.411850E-06  0.203E-03    0.70       7.0  T
  17    -70.0451091 -0.177373E-06  0.672E-04    0.70      21.3  T
  18    -70.0451091 -0.142133E-07  0.474E-04    0.70      30.1  T

   *** convergence criteria satisfied after 18 iterations ***

         #    Occupation            Energy/Eh            Energy/eV
      -------------------------------------------------------------
         1        2.0000           -1.0400731             -28.3018
       ...           ...                  ...                  ...
        58        2.0000           -0.4038098             -10.9882
        59        2.0000           -0.4017898             -10.9333
        60        2.0000           -0.3840310             -10.4500
        61        1.9656           -0.3726734             -10.1410
        62        1.7696           -0.3706513             -10.0859
        63        1.2648           -0.3685357             -10.0284
        64        1.0000           -0.2546751              -6.9301 (HOMO)
        65        0.0000           -0.2287724              -6.2252 (LUMO)
        66                         -0.1897841              -5.1643
        67                         -0.1442813              -3.9261
        68                         -0.1204775              -3.2784
        69                         -0.0604359              -1.6445
       ...                                ...                  ...
       123                          0.6917272              18.8229
      -------------------------------------------------------------
                  HL-Gap            0.0259027 Eh            0.7048 eV
             Fermi-level           -0.3056147 Eh           -8.3162 eV

 transition dipole moment (au) for excitation:          63          64
     X       Y       Z   
  -1.4598   0.0783   0.8579  total (au/Debye):    1.695   4.308
 dE (eV)             :    3.098
 oscillator strength :  0.30843E+00

 SCC (total)                   0 d,  0 h,  0 min,  0.106 sec
 SCC setup                      ...        0 min,  0.000 sec (  0.413%)
 Dispersion                     ...        0 min,  0.001 sec (  0.541%)
 classical contributions        ...        0 min,  0.000 sec (  0.181%)
 integral evaluation            ...        0 min,  0.008 sec (  7.975%)
 iterations                     ...        0 min,  0.047 sec ( 44.823%)
 molecular gradient             ...        0 min,  0.041 sec ( 39.128%)
 printout                       ...        0 min,  0.007 sec (  6.932%)

         :::::::::::::::::::::::::::::::::::::::::::::::::::::
         ::                     SUMMARY                     ::
         :::::::::::::::::::::::::::::::::::::::::::::::::::::
         :: total energy             -69.100752243077 Eh    ::
         :: gradient norm              0.108255286839 Eh/a0 ::
         :: HOMO-LUMO gap              0.704849351627 eV    ::
         ::.................................................::
         :: SCC energy               -70.045174722024 Eh    ::
         :: -> isotropic ES            0.049766915990 Eh    ::
         :: -> anisotropic ES          0.009810459397 Eh    ::
         :: -> anisotropic XC          0.033546549495 Eh    ::
         :: -> dispersion             -0.048214376582 Eh    ::
         :: repulsion energy           0.944422478948 Eh    ::
         :: add. restraining           0.000000000000 Eh    ::
         :: total charge              -0.000000000006 e     ::
         :::::::::::::::::::::::::::::::::::::::::::::::::::::

           -------------------------------------------------
          |                Property Printout                |
           -------------------------------------------------

    * Orbital Energies and Occupations

         #    Occupation            Energy/Eh            Energy/eV
      -------------------------------------------------------------
         1        2.0000           -1.0400731             -28.3018
       ...           ...                  ...                  ...
        52        2.0000           -0.4509779             -12.2717
        53        2.0000           -0.4442804             -12.0895
        54        2.0000           -0.4356376             -11.8543
        55        2.0000           -0.4275459             -11.6341
        56        2.0000           -0.4243688             -11.5477
        57        2.0000           -0.4167870             -11.3414
        58        2.0000           -0.4038098             -10.9882
        59        2.0000           -0.4017898             -10.9333
        60        2.0000           -0.3840310             -10.4500
        61        1.9656           -0.3726734             -10.1410
        62        1.7696           -0.3706513             -10.0859
        63        1.2648           -0.3685357             -10.0284
        64        1.0000           -0.2546751              -6.9301 (HOMO)
        65        0.0000           -0.2287724              -6.2252 (LUMO)
        66                         -0.1897841              -5.1643
        67                         -0.1442813              -3.9261
        68                         -0.1204775              -3.2784
        69                         -0.0604359              -1.6445
        70                         -0.0297527              -0.8096
        71                         -0.0070120              -0.1908
        72                          0.0316161               0.8603
        73                          0.0361027               0.9824
        74                          0.0369134               1.0045
        75                          0.0369731               1.0061
       ...                                ...                  ...
       123                          0.6917272              18.8229
      -------------------------------------------------------------
                  HL-Gap            0.0259027 Eh            0.7048 eV
             Fermi-level           -0.3056147 Eh           -8.3162 eV

     #   Z          covCN         q      C6AA      α(0)
     1   6 C        3.754    -0.115    22.750     6.801
     2   6 C        3.786     0.044    19.854     6.346
     3   7 N        2.695    -0.152    24.294     7.320
     4   6 C        2.902     0.045    26.990     8.518
     5   6 C        2.913    -0.058    29.448     8.899
     6   6 C        2.906     0.035    27.222     8.555
     7   7 N        1.843    -0.204    26.261     7.595
     8   6 C        2.981     0.091    25.980     8.361
     9   6 C        2.983    -0.022    28.546     8.764
    10   6 C        2.919    -0.062    29.542     8.913
    11   6 C        2.951    -0.047    29.157     8.856
    12   6 C        2.885     0.085    26.102     8.376
    13  17 Cl       0.969    -0.190   105.141    15.687
    14   6 C        2.962    -0.065    29.616     8.926
    15   6 C        3.808    -0.069    21.823     6.650
    16   6 C        3.802    -0.066    21.762     6.642
    17   6 C        3.755     0.008    20.490     6.454
    18   7 N        2.728    -0.174    24.754     7.389
    19   6 C        3.749     0.009    20.491     6.456
    20   6 C        3.752    -0.111    22.693     6.793
    21   6 C        3.748    -0.008    20.780     6.502
    22   6 C        3.675     0.074    19.570     6.339
    23   8 O        1.655    -0.444    21.713     6.290
    24   1 H        0.925     0.047     2.361     2.403
    25   1 H        0.925     0.043     2.415     2.430
    26   1 H        0.925     0.050     2.321     2.382
    27   1 H        0.924     0.052     2.292     2.368
    28   1 H        0.860     0.167     1.288     1.778
    29   1 H        0.926     0.033     2.548     2.496
    30   1 H        0.925     0.033     2.540     2.492
    31   1 H        0.926     0.019     2.755     2.596
    32   1 H        0.926     0.042     2.417     2.431
    33   1 H        0.926     0.060     2.196     2.317
    34   1 H        0.924     0.044     2.397     2.421
    35   1 H        0.924     0.037     2.488     2.467
    36   1 H        0.925     0.042     2.424     2.435
    37   1 H        0.924     0.047     2.359     2.402
    38   1 H        0.924     0.042     2.420     2.433
    39   1 H        0.922     0.011     2.875     2.651
    40   1 H        0.924     0.044     2.393     2.419
    41   1 H        0.923     0.015     2.807     2.620
    42   1 H        0.925     0.040     2.444     2.445
    43   1 H        0.925     0.045     2.386     2.416
    44   1 H        0.925     0.045     2.378     2.412
    45   1 H        0.924     0.028     2.616     2.529
    46   1 H        0.924     0.039     2.464     2.455
    47   1 H        0.923     0.022     2.704     2.572
    48   1 H        0.924     0.046     2.376     2.410
    49   1 H        0.805     0.303     0.712     1.326

 Mol. C6AA /au·bohr⁶  :      25096.816402
 Mol. C8AA /au·bohr⁸  :     598122.882686
 Mol. α(0) /au        :        243.540072


Wiberg/Mayer (AO) data.
largest (>0.10) Wiberg bond orders for each atom

 ---------------------------------------------------------------------------
     #   Z sym  total        # sym  WBO       # sym  WBO       # sym  WBO
 ---------------------------------------------------------------------------
     1   6 C    3.982 --     2 C    0.987    25 H    0.986    26 H    0.983
                            24 H    0.981
     2   6 C    3.970 --     3 N    0.995    15 C    0.990     1 C    0.987
                            27 H    0.955
     3   7 N    3.338 --     4 C    1.200     2 C    0.995    28 H    0.930
     4   6 C    3.873 --     5 C    1.234     3 N    1.200     9 C    1.187
     5   6 C    3.863 --     6 C    1.451     4 C    1.234    29 H    0.962
     6   6 C    3.947 --     5 C    1.451     7 N    1.334    30 H    0.957
     7   7 N    2.882 --     6 C    1.334     8 C    1.280
     8   6 C    3.959 --     7 N    1.280    14 C    1.266     9 C    1.227
     9   6 C    3.953 --    10 C    1.311     8 C    1.227     4 C    1.187
    10   6 C    3.899 --    11 C    1.344     9 C    1.311    31 H    0.956
    11   6 C    3.947 --    12 C    1.417    10 C    1.344    32 H    0.969
    12   6 C    3.887 --    11 C    1.417    14 C    1.331    13 Cl   0.960
    13  17 Cl   1.083 --    12 C    0.960
    14   6 C    3.854 --    12 C    1.331     8 C    1.266    33 H    0.964
    15   6 C    3.992 --    16 C    1.006     2 C    0.990    35 H    0.975
                            34 H    0.975
    16   6 C    3.993 --    15 C    1.006    17 C    1.000    37 H    0.976
                            36 H    0.971
    17   6 C    3.983 --    18 N    1.006    16 C    1.000    38 H    0.968
                            39 H    0.962
    18   7 N    3.128 --    17 C    1.006    21 C    1.003    19 C    0.999
    19   6 C    3.982 --    20 C    1.013    18 N    0.999    40 H    0.972
                            41 H    0.967
    20   6 C    3.994 --    19 C    1.013    44 H    0.986    43 H    0.985
                            42 H    0.983
    21   6 C    3.983 --    18 N    1.003    22 C    0.986    46 H    0.970
                            45 H    0.968
    22   6 C    3.961 --    23 O    1.010    21 C    0.986    48 H    0.973
                            47 H    0.967
    23   8 O    1.955 --    22 C    1.010    49 H    0.882
    24   1 H    0.996 --     1 C    0.981
    25   1 H    0.998 --     1 C    0.986
    26   1 H    0.997 --     1 C    0.983
    27   1 H    0.995 --     2 C    0.955
    28   1 H    0.971 --     3 N    0.930
    29   1 H    0.995 --     5 C    0.962
    30   1 H    0.989 --     6 C    0.957
    31   1 H    0.995 --    10 C    0.956
    32   1 H    0.997 --    11 C    0.969
    33   1 H    0.994 --    14 C    0.964
    34   1 H    0.998 --    15 C    0.975
    35   1 H    0.999 --    15 C    0.975
    36   1 H    0.998 --    16 C    0.971
    37   1 H    0.998 --    16 C    0.976
    38   1 H    0.998 --    17 C    0.968
    39   1 H    0.995 --    17 C    0.962
    40   1 H    0.998 --    19 C    0.972
    41   1 H    0.995 --    19 C    0.967
    42   1 H    0.998 --    20 C    0.983
    43   1 H    0.998 --    20 C    0.985
    44   1 H    0.998 --    20 C    0.986
    45   1 H    0.997 --    21 C    0.968
    46   1 H    0.997 --    21 C    0.970
    47   1 H    0.999 --    22 C    0.967
    48   1 H    0.997 --    22 C    0.973
    49   1 H    0.908 --    23 O    0.882
 ---------------------------------------------------------------------------

Topologies differ in total number of bonds
Writing topology from bond orders to xtbtopo.mol

molecular dipole:
                 x           y           z       tot (Debye)
 q only:       -2.895       0.494       0.498
   full:       -2.886       0.507       1.218       8.066
molecular quadrupole (traceless):
                xx          xy          yy          xz          yz          zz
 q only:      -45.566      20.653      25.013     -11.886       3.446      20.553
  q+dip:      -49.917      19.866      24.312     -14.010       2.315      25.606
   full:      -50.415      20.728      27.335     -12.781       3.405      23.079


           -------------------------------------------------
          | TOTAL ENERGY              -69.100752243077 Eh   |
          | GRADIENT NORM               0.108255286839 Eh/α |
          | HOMO-LUMO GAP               0.704849351627 eV   |
           -------------------------------------------------

------------------------------------------------------------------------
 * finished run on 2025/05/15 at 16:05:17.703     
------------------------------------------------------------------------
 total:
 * wall-time:     0 d,  0 h,  0 min,  0.120 sec
 *  cpu-time:     0 d,  0 h,  0 min,  0.107 sec
 * ratio c/w:     0.891 speedup
 SCF:
 * wall-time:     0 d,  0 h,  0 min,  0.106 sec
 *  cpu-time:     0 d,  0 h,  0 min,  0.094 sec
 * ratio c/w:     0.891 speedup


