----- Optimization -----
      -----------------------------------------------------------      
     |                   =====================                   |     
     |                           x T B                           |     
     |                   =====================                   |     
     |                         S. Grimme                         |     
     |          Mulliken Center for Theoretical Chemistry        |     
     |                    University of Bonn                     |     
      -----------------------------------------------------------      

   * xtb version 6.7.1 (edcfbbe) compiled by 'conda@3ef47c1a292c' on 2024-11-25

   xtb is free software: you can redistribute it and/or modify it under
   the terms of the GNU Lesser General Public License as published by
   the Free Software Foundation, either version 3 of the License, or
   (at your option) any later version.
   
   xtb is distributed in the hope that it will be useful,
   but WITHOUT ANY WARRANTY; without even the implied warranty of
   MERCHANTABILITY or FITNESS FOR A PARTICULAR PURPOSE.  See the
   GNU Lesser General Public License for more details.
   
   Cite this work as:
   * C. Bannwarth, E. Caldeweyher, S. Ehlert, A. Hansen, P. Pracht,
     J. Seibert, S. Spicher, S. Grimme, WIREs Comput. Mol. Sci., 2020, 11,
     e01493. DOI: 10.1002/wcms.1493
   
   for GFN2-xTB:
   * C. Bannwarth, S. Ehlert and S. Grimme., J. Chem. Theory Comput., 2019,
     15, 1652-1671. DOI: 10.1021/acs.jctc.8b01176
   for GFN1-xTB:
   * S. Grimme, C. Bannwarth, P. Shushkov, J. Chem. Theory Comput., 2017,
     13, 1989-2009. DOI: 10.1021/acs.jctc.7b00118
   for GFN0-xTB:
   * P. Pracht, E. Caldeweyher, S. Ehlert, S. Grimme, ChemRxiv, 2019, preprint.
     DOI: 10.26434/chemrxiv.8326202.v1
   for GFN-FF:
   * S. Spicher and S. Grimme, Angew. Chem. Int. Ed., 2020, 59, 15665-15673.
     DOI: 10.1002/anie.202004239
   
   for ALPB and GBSA implicit solvation:
   * S. Ehlert, M. Stahn, S. Spicher, S. Grimme, J. Chem. Theory Comput.,
     2021, 17, 4250-4261. DOI: 10.1021/acs.jctc.1c00471
   
   for ddCOSMO and CPCM-X implicit solvation:
   * M. Stahn, S. Ehlert, S. Grimme, J. Phys. Chem. A,
     2023, XX, XXXX-XXXX. DOI: 10.1021/acs.jpca.3c04382
   
   for DFT-D4:
   * E. Caldeweyher, C. Bannwarth and S. Grimme, J. Chem. Phys., 2017,
     147, 034112. DOI: 10.1063/1.4993215
   * E. Caldeweyher, S. Ehlert, A. Hansen, H. Neugebauer, S. Spicher,
     C. Bannwarth and S. Grimme, J. Chem. Phys., 2019, 150, 154122.
     DOI: 10.1063/1.5090222
   * E. Caldeweyher, J.-M. Mewes, S. Ehlert and S. Grimme, Phys. Chem. Chem. Phys.
     2020, 22, 8499-8512. DOI: 10.1039/D0CP00502A
   
   for sTDA-xTB:
   * S. Grimme and C. Bannwarth, J. Chem. Phys., 2016, 145, 054103.
     DOI: 10.1063/1.4959605
   
   in the mass-spec context:
   * V. Asgeirsson, C. Bauer and S. Grimme, Chem. Sci., 2017, 8, 4879.
     DOI: 10.1039/c7sc00601b
   * J. Koopman and S. Grimme, ACS Omega 2019, 4, 12, 15120-15133.
     DOI: 10.1021/acsomega.9b02011
   
   for metadynamics refer to:
   * S. Grimme, J. Chem. Theory Comput., 2019, 155, 2847-2862
     DOI: 10.1021/acs.jctc.9b00143
   
   for SPH calculations refer to:
   * S. Spicher and S. Grimme, J. Chem. Theory Comput., 2021, 17, 1701-1714
     DOI: 10.1021/acs.jctc.0c01306
   
   for ONIOM refer to:
   * C. Plett, A. Katbashev, S. Ehlert, S. Grimme, M. Bursch,
     Phys. Chem. Chem. Phys., 2023, 25, 17860-17868. DOI: 10.1039/D3CP02178E
   
   for DIPRO refer to:
   * J. Kohn, N. Gildemeister, S. Grimme, D. Fazzi, A. Hansen,
     J. Chem. Phys., 2023, just accepted.
   
   for PTB refer to:
   * S. Grimme, M. Mueller, A. Hansen, J. Chem. Phys., 2023, 158, 124111.
     DOI: 10.1063/5.0137838
   
   with help from (in alphabetical order)
   P. Atkinson, C. Bannwarth, F. Bohle, G. Brandenburg, E. Caldeweyher
   M. Checinski, S. Dohm, S. Ehlert, S. Ehrlich, I. Gerasimov, C. Hölzer
   A. Katbashev, J. Kohn, J. Koopman, C. Lavigne, S. Lehtola, F. März, M. Müller,
   F. Musil, H. Neugebauer, J. Pisarek, C. Plett, P. Pracht, F. Pultar,
   J. Seibert, P. Shushkov, S. Spicher, M. Stahn, M. Steiner, T. Strunk,
   J. Stückrath, T. Rose, and J. Unsleber
   
 * started run on 2025/05/15 at 16:04:42.747     
   ID    Z sym.   atoms
    1    8 O      1, 9, 13, 20, 23, 28
    2    6 C      2-5, 7, 8, 10-12, 14-19, 21, 22, 24-27, 29
    3    7 N      6
    4    1 H      30-54

           -------------------------------------------------
          |                Calculation Setup                |
           -------------------------------------------------

          program call               : xtb /rds/general/user/hgt20/home/callum/QDESCP/Colchicine_rdkit_conf_3/Colchicine_rdkit_conf_3.xyz --opt normal --acc 1 --gfn 2 --chrg 0 --uhf 0 -P 1
          hostname                   : login-c
          coordinate file            : /rds/general/user/hgt20/home/callum/QDESCP/Colchicine_rdkit_conf_3/Colchicine_rdkit_conf_3.xyz
          omp threads                :                     1


           -------------------------------------------------
          |                 G F N 2 - x T B                 |
           -------------------------------------------------

        Reference                      10.1021/acs.jctc.8b01176
      * Hamiltonian:
        H0-scaling (s, p, d)           1.850000    2.230000    2.230000
        zeta-weighting                 0.500000
      * Dispersion:
        s8                             2.700000
        a1                             0.520000
        a2                             5.000000
        s9                             5.000000
      * Repulsion:
        kExp                           1.500000    1.000000
        rExp                           1.000000
      * Coulomb:
        alpha                          2.000000
        third order                    shell-resolved
        anisotropic                    true
        a3                             3.000000
        a5                             4.000000
        cn-shift                       1.200000
        cn-exp                         4.000000
        max-rad                        5.000000


          ...................................................
          :                      SETUP                      :
          :.................................................:
          :  # basis functions                 141          :
          :  # atomic orbitals                 141          :
          :  # shells                           83          :
          :  # electrons                       154          :
          :  max. iterations                   250          :
          :  Hamiltonian                  GFN2-xTB          :
          :  restarted?                      false          :
          :  GBSA solvation                  false          :
          :  PC potential                    false          :
          :  electronic temp.          300.0000000     K    :
          :  accuracy                    1.0000000          :
          :  -> integral cutoff          0.2500000E+02      :
          :  -> integral neglect         0.1000000E-07      :
          :  -> SCF convergence          0.1000000E-05 Eh   :
          :  -> wf. convergence          0.1000000E-03 e    :
          :  Broyden damping             0.4000000          :
          :  net charge                          0          :
          :  unpaired electrons                  0          :
          ...................................................

 iter      E             dE          RMSdq      gap      omega  full diag
   1    -88.0468794 -0.880469E+02  0.451E+00    2.46       0.0  T
   2    -88.1820155 -0.135136E+00  0.243E+00    2.18       1.0  T
   3    -88.1723248  0.969074E-02  0.127E+00    2.35       1.0  T
   4    -88.1860252 -0.137004E-01  0.532E-01    2.31       1.0  T
   5    -88.1971205 -0.110953E-01  0.148E-01    2.28       1.0  T
   6    -88.1978694 -0.748857E-03  0.723E-02    2.29       1.0  T
   7    -88.1979282 -0.588609E-04  0.358E-02    2.29       1.0  T
   8    -88.1979491 -0.209018E-04  0.151E-02    2.29       1.0  T
   9    -88.1979594 -0.102636E-04  0.603E-03    2.29       2.3  T
  10    -88.1979607 -0.125637E-05  0.271E-03    2.29       5.0  T
  11    -88.1979608 -0.159630E-06  0.102E-03    2.29      13.4  T
  12    -88.1979608 -0.467013E-08  0.429E-04    2.29      31.8  T
  13    -88.1979608 -0.319237E-08  0.158E-04    2.29      86.1  T

   *** convergence criteria satisfied after 13 iterations ***

         #    Occupation            Energy/Eh            Energy/eV
      -------------------------------------------------------------
         1        2.0000           -0.7228914             -19.6709
       ...           ...                  ...                  ...
        71        2.0000           -0.4090327             -11.1303
        72        2.0000           -0.4021187             -10.9422
        73        2.0000           -0.3997582             -10.8780
        74        2.0000           -0.3962394             -10.7822
        75        2.0000           -0.3935083             -10.7079
        76        2.0000           -0.3874754             -10.5437
        77        2.0000           -0.3808456             -10.3633 (HOMO)
        78                         -0.2967986              -8.0763 (LUMO)
        79                         -0.2697997              -7.3416
        80                         -0.2420230              -6.5858
        81                         -0.2397760              -6.5246
        82                         -0.2121868              -5.7739
       ...                                ...                  ...
       141                          0.8030570              21.8523
      -------------------------------------------------------------
                  HL-Gap            0.0840470 Eh            2.2870 eV
             Fermi-level           -0.3388221 Eh           -9.2198 eV

 SCC (total)                   0 d,  0 h,  0 min,  0.130 sec
 SCC setup                      ...        0 min,  0.001 sec (  0.404%)
 Dispersion                     ...        0 min,  0.001 sec (  0.544%)
 classical contributions        ...        0 min,  0.000 sec (  0.180%)
 integral evaluation            ...        0 min,  0.012 sec (  9.191%)
 iterations                     ...        0 min,  0.044 sec ( 34.138%)
 molecular gradient             ...        0 min,  0.072 sec ( 55.327%)
 printout                       ...        0 min,  0.000 sec (  0.211%)

         :::::::::::::::::::::::::::::::::::::::::::::::::::::
         ::                     SUMMARY                     ::
         :::::::::::::::::::::::::::::::::::::::::::::::::::::
         :: total energy             -87.111270789966 Eh    ::
         :: gradient norm              0.155686749645 Eh/a0 ::
         :: HOMO-LUMO gap              2.287035296667 eV    ::
         ::.................................................::
         :: SCC energy               -88.196260741214 Eh    ::
         :: -> isotropic ES            0.129506832740 Eh    ::
         :: -> anisotropic ES          0.011271902420 Eh    ::
         :: -> anisotropic XC          0.019888343407 Eh    ::
         :: -> dispersion             -0.063364090106 Eh    ::
         :: repulsion energy           1.084989951248 Eh    ::
         :: add. restraining           0.000000000000 Eh    ::
         :: total charge               0.000000000000 e     ::
         :::::::::::::::::::::::::::::::::::::::::::::::::::::

      ----------------------------------------------------------- 
     |                   =====================                   |
     |                        A N C O P T                        |
     |                   =====================                   |
     |               Approximate Normal Coordinate               |
     |                Rational Function Optimizer                |
      ----------------------------------------------------------- 
      ----------------------------------------------------------- 
     |                   =====================                   |
     |                        A N C O P T                        |
     |                   =====================                   |
     |               Approximate Normal Coordinate               |
     |                Rational Function Optimizer                |
      ----------------------------------------------------------- 

          ...................................................
          :                      SETUP                      :
          :.................................................:
          :   optimization level            normal          :
          :   max. optcycles                   200          :
          :   ANC micro-cycles                  20          :
          :   degrees of freedom               156          :
          :.................................................:
          :   RF solver                   davidson          :
          :   write xtbopt.log                true          :
          :   linear?                        false          :
          :   energy convergence         0.5000000E-05 Eh   :
          :   grad. convergence          0.1000000E-02 Eh/α :
          :   maxmium RF displ.          1.0000000          :
          :   Hlow (freq-cutoff)         0.1000000E-01      :
          :   Hmax (freq-cutoff)         5.0000000          :
          :   S6 in model hess.         20.0000000          :
          ...................................................

generating ANC from exact Hessian ...
Using Lindh-Hessian (1995)
 Shifting diagonal of input Hessian by    9.7528669036057759E-003
 Lowest  eigenvalues of input Hessian
    0.000000    0.000000    0.000000    0.000000    0.000000    0.000000
    0.010000    0.010152    0.010329    0.010595    0.010925    0.011121
    0.011783    0.012206    0.012441    0.012638    0.012681    0.014101
 Highest eigenvalues
    2.036791    2.046324    2.109840    2.127046    2.252573    2.315569


........................................................................
.............................. CYCLE    1 ..............................
........................................................................

 iter      E             dE          RMSdq      gap      omega  full diag
   1    -88.1979608 -0.881980E+02  0.679E-05    2.29       0.0  T
   2    -88.1979608 -0.554508E-10  0.459E-05    2.29     296.2  T
   3    -88.1979608 -0.562466E-10  0.290E-05    2.29     468.8  T
     SCC iter.                  ...        0 min,  0.058 sec
     gradient                   ...        0 min,  0.038 sec
 * total energy  :   -87.1112708 Eh     change       -0.3613110E-09 Eh
   gradient norm :     0.1556878 Eh/α   predicted     0.0000000E+00 (-100.00%)
   displ. norm   :     0.3772744 α      lambda       -0.3436044E-01
   maximum displ.:     0.0943055 α      in ANC's #47, #60, #46, ...

........................................................................
.............................. CYCLE    2 ..............................
........................................................................

 iter      E             dE          RMSdq      gap      omega  full diag
   1    -88.2232868 -0.882233E+02  0.248E-01    2.32       0.0  T
   2    -88.2234485 -0.161719E-03  0.163E-01    2.33       1.0  T
   3    -88.2231820  0.266522E-03  0.101E-01    2.32       1.0  T
   4    -88.2235802 -0.398266E-03  0.195E-02    2.33       1.0  T
   5    -88.2235983 -0.180541E-04  0.859E-03    2.32       1.6  T
   6    -88.2236024 -0.409744E-05  0.283E-03    2.33       4.8  T
   7    -88.2236024 -0.306945E-07  0.155E-03    2.33       8.8  T
   8    -88.2236025 -0.446298E-07  0.675E-04    2.33      20.1  T
   9    -88.2236025 -0.157747E-07  0.281E-04    2.33      48.4  T
     SCC iter.                  ...        0 min,  0.076 sec
     gradient                   ...        0 min,  0.090 sec
 * total energy  :   -87.1346740 Eh     change       -0.2340326E-01 Eh
   gradient norm :     0.0562062 Eh/α   predicted    -0.1963938E-01 ( -16.08%)
   displ. norm   :     0.4017484 α      lambda       -0.1068485E-01
   maximum displ.:     0.1567641 α      in ANC's #29, #21, #26, ...

........................................................................
.............................. CYCLE    3 ..............................
........................................................................

 iter      E             dE          RMSdq      gap      omega  full diag
   1    -88.2393178 -0.882393E+02  0.185E-01    2.38       0.0  T
   2    -88.2394420 -0.124232E-03  0.117E-01    2.37       1.0  T
   3    -88.2393581  0.839371E-04  0.749E-02    2.37       1.0  T
   4    -88.2395215 -0.163356E-03  0.157E-02    2.37       1.0  T
   5    -88.2395322 -0.107589E-04  0.610E-03    2.37       2.2  T
   6    -88.2395342 -0.198294E-05  0.259E-03    2.37       5.2  T
   7    -88.2395343 -0.129289E-06  0.148E-03    2.37       9.2  T
   8    -88.2395344 -0.228271E-07  0.639E-04    2.37      21.3  T
   9    -88.2395344 -0.176013E-07  0.238E-04    2.37      57.1  T
     SCC iter.                  ...        0 min,  0.078 sec
     gradient                   ...        0 min,  0.039 sec
 * total energy  :   -87.1413971 Eh     change       -0.6723068E-02 Eh
   gradient norm :     0.0143576 Eh/α   predicted    -0.6212711E-02 (  -7.59%)
   displ. norm   :     0.3730022 α      lambda       -0.2920045E-02
   maximum displ.:     0.1352532 α      in ANC's #21, #29, #9, ...

........................................................................
.............................. CYCLE    4 ..............................
........................................................................

 iter      E             dE          RMSdq      gap      omega  full diag
   1    -88.2412569 -0.882413E+02  0.134E-01    2.41       0.0  T
   2    -88.2413315 -0.745930E-04  0.787E-02    2.38       1.0  T
   3    -88.2412751  0.564339E-04  0.462E-02    2.40       1.0  T
   4    -88.2413500 -0.749623E-04  0.138E-02    2.39       1.0  T
   5    -88.2413608 -0.107972E-04  0.330E-03    2.39       4.1  T
   6    -88.2413611 -0.221031E-06  0.200E-03    2.39       6.8  T
   7    -88.2413612 -0.117668E-06  0.106E-03    2.39      12.8  T
   8    -88.2413612 -0.233365E-07  0.278E-04    2.39      49.0  T
   9    -88.2413612 -0.115374E-08  0.136E-04    2.39      99.9  T
     SCC iter.                  ...        0 min,  0.030 sec
     gradient                   ...        0 min,  0.090 sec
 * total energy  :   -87.1435014 Eh     change       -0.2104241E-02 Eh
   gradient norm :     0.0183665 Eh/α   predicted    -0.1663260E-02 ( -20.96%)
   displ. norm   :     0.4385797 α      lambda       -0.2140598E-02
   maximum displ.:     0.1511141 α      in ANC's #21, #7, #9, ...

........................................................................
.............................. CYCLE    5 ..............................
........................................................................

 iter      E             dE          RMSdq      gap      omega  full diag
   1    -88.2419359 -0.882419E+02  0.141E-01    2.40       0.0  T
   2    -88.2419515 -0.155798E-04  0.833E-02    2.39       1.0  T
   3    -88.2419058  0.456651E-04  0.354E-02    2.40       1.0  T
   4    -88.2419583 -0.525521E-04  0.597E-03    2.39       2.3  T
   5    -88.2419595 -0.119132E-05  0.241E-03    2.39       5.6  T
   6    -88.2419596 -0.176396E-07  0.129E-03    2.39      10.5  T
   7    -88.2419596 -0.262696E-07  0.630E-04    2.39      21.6  T
   8    -88.2419596 -0.199784E-07  0.237E-04    2.39      57.4  T
     SCC iter.                  ...        0 min,  0.077 sec
     gradient                   ...        0 min,  0.090 sec
 * total energy  :   -87.1450062 Eh     change       -0.1504830E-02 Eh
   gradient norm :     0.0164665 Eh/α   predicted    -0.1276203E-02 ( -15.19%)
   displ. norm   :     0.3917137 α      lambda       -0.1285454E-02
   maximum displ.:     0.1491426 α      in ANC's #7, #9, #11, ...

........................................................................
.............................. CYCLE    6 ..............................
........................................................................

 iter      E             dE          RMSdq      gap      omega  full diag
   1    -88.2424599 -0.882425E+02  0.119E-01    2.39       0.0  T
   2    -88.2424689 -0.904420E-05  0.703E-02    2.38       1.0  T
   3    -88.2424448  0.240849E-04  0.218E-02    2.39       1.0  T
   4    -88.2424717 -0.268632E-04  0.506E-03    2.38       2.7  T
   5    -88.2424727 -0.106350E-05  0.205E-03    2.38       6.6  T
   6    -88.2424728 -0.128531E-07  0.117E-03    2.38      11.6  T
   7    -88.2424728 -0.266684E-07  0.557E-04    2.38      24.4  T
   8    -88.2424728 -0.163615E-07  0.170E-04    2.38      79.9  T
     SCC iter.                  ...        0 min,  0.077 sec
     gradient                   ...        0 min,  0.039 sec
 * total energy  :   -87.1459559 Eh     change       -0.9497395E-03 Eh
   gradient norm :     0.0121174 Eh/α   predicted    -0.7413472E-03 ( -21.94%)
   displ. norm   :     0.4006252 α      lambda       -0.1008051E-02
   maximum displ.:     0.1537847 α      in ANC's #7, #6, #13, ...

........................................................................
.............................. CYCLE    7 ..............................
........................................................................

 iter      E             dE          RMSdq      gap      omega  full diag
   1    -88.2448596 -0.882449E+02  0.106E-01    2.37       0.0  T
   2    -88.2448671 -0.751890E-05  0.637E-02    2.37       1.0  T
   3    -88.2447972  0.698282E-04  0.359E-02    2.37       1.0  T
   4    -88.2448752 -0.779520E-04  0.522E-03    2.37       2.6  T
   5    -88.2448765 -0.130537E-05  0.218E-03    2.37       6.2  T
   6    -88.2448766 -0.828222E-07  0.125E-03    2.37      10.9  T
   7    -88.2448766 -0.291614E-07  0.487E-04    2.37      27.9  T
   8    -88.2448766 -0.824085E-08  0.174E-04    2.37      78.4  T
     SCC iter.                  ...        0 min,  0.072 sec
     gradient                   ...        0 min,  0.086 sec
 * total energy  :   -87.1466930 Eh     change       -0.7371078E-03 Eh
   gradient norm :     0.0092250 Eh/α   predicted    -0.5849219E-03 ( -20.65%)
   displ. norm   :     0.4159148 α      lambda       -0.7384052E-03
   maximum displ.:     0.1584314 α      in ANC's #6, #7, #5, ...

........................................................................
.............................. CYCLE    8 ..............................
........................................................................

 iter      E             dE          RMSdq      gap      omega  full diag
   1    -88.2451565 -0.882452E+02  0.999E-02    2.37       0.0  T
   2    -88.2451663 -0.974741E-05  0.596E-02    2.37       1.0  T
   3    -88.2451398  0.264957E-04  0.251E-02    2.37       1.0  T
   4    -88.2451696 -0.298757E-04  0.501E-03    2.37       2.7  T
   5    -88.2451706 -0.923852E-06  0.210E-03    2.37       6.5  T
   6    -88.2451707 -0.116231E-06  0.119E-03    2.37      11.5  T
   7    -88.2451707 -0.181264E-07  0.609E-04    2.37      22.3  T
   8    -88.2451707 -0.151347E-07  0.165E-04    2.37      82.6  T
     SCC iter.                  ...        0 min,  0.026 sec
     gradient                   ...        0 min,  0.084 sec
 * total energy  :   -87.1472306 Eh     change       -0.5375883E-03 Eh
   gradient norm :     0.0092267 Eh/α   predicted    -0.4330746E-03 ( -19.44%)
   displ. norm   :     0.3897901 α      lambda       -0.5479908E-03
   maximum displ.:     0.1613408 α      in ANC's #6, #7, #11, ...

........................................................................
.............................. CYCLE    9 ..............................
........................................................................

 iter      E             dE          RMSdq      gap      omega  full diag
   1    -88.2465802 -0.882466E+02  0.866E-02    2.37       0.0  T
   2    -88.2465888 -0.859256E-05  0.541E-02    2.38       1.0  T
   3    -88.2465231  0.656903E-04  0.370E-02    2.37       1.0  T
   4    -88.2466049 -0.817271E-04  0.626E-03    2.38       2.2  T
   5    -88.2466071 -0.225393E-05  0.194E-03    2.38       7.0  T
   6    -88.2466072 -0.103073E-06  0.111E-03    2.38      12.3  T
   7    -88.2466072 -0.222278E-07  0.392E-04    2.38      34.7  T
   8    -88.2466072 -0.238765E-08  0.157E-04    2.38      86.4  T
     SCC iter.                  ...        0 min,  0.074 sec
     gradient                   ...        0 min,  0.089 sec
 * total energy  :   -87.1476069 Eh     change       -0.3762886E-03 Eh
   gradient norm :     0.0082662 Eh/α   predicted    -0.3156335E-03 ( -16.12%)
   displ. norm   :     0.3453841 α      lambda       -0.3268189E-03
   maximum displ.:     0.1452897 α      in ANC's #6, #11, #8, ...

........................................................................
.............................. CYCLE   10 ..............................
........................................................................

 iter      E             dE          RMSdq      gap      omega  full diag
   1    -88.2453144 -0.882453E+02  0.786E-02    2.39       0.0  T
   2    -88.2453193 -0.492264E-05  0.469E-02    2.38       1.0  T
   3    -88.2453126  0.674342E-05  0.126E-02    2.39       1.1  T
   4    -88.2453208 -0.819084E-05  0.233E-03    2.39       5.8  T
   5    -88.2453210 -0.175945E-06  0.116E-03    2.39      11.7  T
   6    -88.2453210 -0.105678E-07  0.608E-04    2.39      22.4  T
   7    -88.2453210 -0.416843E-08  0.244E-04    2.39      55.7  T
     SCC iter.                  ...        0 min,  0.023 sec
     gradient                   ...        0 min,  0.090 sec
 * total energy  :   -87.1478328 Eh     change       -0.2259208E-03 Eh
   gradient norm :     0.0054134 Eh/α   predicted    -0.1829137E-03 ( -19.04%)
   displ. norm   :     0.2741103 α      lambda       -0.2320970E-03
   maximum displ.:     0.1191084 α      in ANC's #6, #11, #1, ...

........................................................................
.............................. CYCLE   11 ..............................
........................................................................

 iter      E             dE          RMSdq      gap      omega  full diag
   1    -88.2465187 -0.882465E+02  0.626E-02    2.39       0.0  T
   2    -88.2465220 -0.336140E-05  0.373E-02    2.40       1.0  T
   3    -88.2464963  0.257763E-04  0.205E-02    2.39       1.0  T
   4    -88.2465254 -0.291648E-04  0.340E-03    2.40       4.0  T
   5    -88.2465261 -0.679892E-06  0.116E-03    2.40      11.8  T
   6    -88.2465261 -0.422453E-07  0.668E-04    2.40      20.4  T
   7    -88.2465262 -0.904434E-08  0.285E-04    2.40      47.7  T
     SCC iter.                  ...        0 min,  0.023 sec
     gradient                   ...        0 min,  0.084 sec
 * total energy  :   -87.1479980 Eh     change       -0.1651213E-03 Eh
   gradient norm :     0.0045873 Eh/α   predicted    -0.1247683E-03 ( -24.44%)
   displ. norm   :     0.3157507 α      lambda       -0.2128100E-03
   maximum displ.:     0.1290274 α      in ANC's #11, #6, #1, ...

........................................................................
.............................. CYCLE   12 ..............................
........................................................................

 iter      E             dE          RMSdq      gap      omega  full diag
   1    -88.2452509 -0.882453E+02  0.717E-02    2.40       0.0  T
   2    -88.2452552 -0.429069E-05  0.425E-02    2.41       1.0  T
   3    -88.2452408  0.143353E-04  0.157E-02    2.40       1.0  T
   4    -88.2452568 -0.159607E-04  0.304E-03    2.40       4.5  T
   5    -88.2452572 -0.441717E-06  0.118E-03    2.40      11.5  T
   6    -88.2452573 -0.397565E-07  0.666E-04    2.40      20.4  T
   7    -88.2452573 -0.812906E-08  0.362E-04    2.40      37.6  T
     SCC iter.                  ...        0 min,  0.023 sec
     gradient                   ...        0 min,  0.090 sec
 * total energy  :   -87.1481432 Eh     change       -0.1452106E-03 Eh
   gradient norm :     0.0060900 Eh/α   predicted    -0.1170202E-03 ( -19.41%)
   displ. norm   :     0.2947350 α      lambda       -0.2327286E-03
   maximum displ.:     0.1197630 α      in ANC's #3, #1, #11, ...

........................................................................
.............................. CYCLE   13 ..............................
........................................................................

 iter      E             dE          RMSdq      gap      omega  full diag
   1    -88.2466952 -0.882467E+02  0.645E-02    2.41       0.0  T
   2    -88.2466977 -0.242500E-05  0.383E-02    2.41       1.0  T
   3    -88.2466928  0.484610E-05  0.101E-02    2.41       1.3  T
   4    -88.2466984 -0.560969E-05  0.232E-03    2.41       5.9  T
   5    -88.2466986 -0.160383E-06  0.108E-03    2.41      12.6  T
   6    -88.2466986 -0.145506E-07  0.503E-04    2.41      27.1  T
   7    -88.2466986 -0.295763E-08  0.199E-04    2.41      68.2  T
     SCC iter.                  ...        0 min,  0.070 sec
     gradient                   ...        0 min,  0.086 sec
 * total energy  :   -87.1482948 Eh     change       -0.1516415E-03 Eh
   gradient norm :     0.0072923 Eh/α   predicted    -0.1264776E-03 ( -16.59%)
   displ. norm   :     0.2807098 α      lambda       -0.1893344E-03
   maximum displ.:     0.1237874 α      in ANC's #1, #3, #11, ...

........................................................................
.............................. CYCLE   14 ..............................
........................................................................

 iter      E             dE          RMSdq      gap      omega  full diag
   1    -88.2460647 -0.882461E+02  0.552E-02    2.40       0.0  T
   2    -88.2460663 -0.164512E-05  0.331E-02    2.40       1.0  T
   3    -88.2460645  0.177568E-05  0.618E-03    2.40       2.2  T
   4    -88.2460667 -0.217883E-05  0.157E-03    2.40       8.7  T
   5    -88.2460668 -0.716033E-07  0.799E-04    2.40      17.0  T
   6    -88.2460668 -0.665771E-08  0.393E-04    2.40      34.7  T
     SCC iter.                  ...        0 min,  0.020 sec
     gradient                   ...        0 min,  0.090 sec
 * total energy  :   -87.1484448 Eh     change       -0.1499933E-03 Eh
   gradient norm :     0.0061938 Eh/α   predicted    -0.1021349E-03 ( -31.91%)
   displ. norm   :     0.3438508 α      lambda       -0.2808835E-03
   maximum displ.:     0.1592409 α      in ANC's #1, #3, #7, ...

........................................................................
.............................. CYCLE   15 ..............................
........................................................................

 iter      E             dE          RMSdq      gap      omega  full diag
   1    -88.2470645 -0.882471E+02  0.647E-02    2.39       0.0  T
   2    -88.2470665 -0.199742E-05  0.390E-02    2.38       1.0  T
   3    -88.2470546  0.118763E-04  0.138E-02    2.39       1.0  T
   4    -88.2470680 -0.133681E-04  0.241E-03    2.38       5.6  T
   5    -88.2470681 -0.159007E-06  0.136E-03    2.38      10.0  T
   6    -88.2470682 -0.424365E-07  0.674E-04    2.38      20.2  T
   7    -88.2470682 -0.173797E-07  0.258E-04    2.38      52.8  T
     SCC iter.                  ...        0 min,  0.074 sec
     gradient                   ...        0 min,  0.089 sec
 * total energy  :   -87.1486433 Eh     change       -0.1984506E-03 Eh
   gradient norm :     0.0053118 Eh/α   predicted    -0.1570521E-03 ( -20.86%)
   displ. norm   :     0.3879017 α      lambda       -0.2238431E-03
   maximum displ.:     0.1812505 α      in ANC's #1, #3, #11, ...

........................................................................
.............................. CYCLE   16 ..............................
........................................................................

 iter      E             dE          RMSdq      gap      omega  full diag
   1    -88.2444733 -0.882445E+02  0.791E-02    2.37       0.0  T
   2    -88.2444793 -0.600068E-05  0.476E-02    2.37       1.0  T
   3    -88.2444586  0.207192E-04  0.186E-02    2.37       1.0  T
   4    -88.2444818 -0.231429E-04  0.398E-03    2.37       3.4  T
   5    -88.2444825 -0.777334E-06  0.157E-03    2.37       8.7  T
   6    -88.2444826 -0.494221E-07  0.886E-04    2.37      15.4  T
   7    -88.2444826 -0.185177E-07  0.432E-04    2.37      31.5  T
     SCC iter.                  ...        0 min,  0.023 sec
     gradient                   ...        0 min,  0.089 sec
 * total energy  :   -87.1487771 Eh     change       -0.1338521E-03 Eh
   gradient norm :     0.0085047 Eh/α   predicted    -0.1287652E-03 (  -3.80%)
   displ. norm   :     0.2609355 α      lambda       -0.2322085E-03
   maximum displ.:     0.1333867 α      in ANC's #1, #3, #7, ...

........................................................................
.............................. CYCLE   17 ..............................
........................................................................

 iter      E             dE          RMSdq      gap      omega  full diag
   1    -88.2474996 -0.882475E+02  0.564E-02    2.36       0.0  T
   2    -88.2475040 -0.442429E-05  0.336E-02    2.36       1.0  T
   3    -88.2474966  0.740201E-05  0.131E-02    2.36       1.0  T
   4    -88.2475053 -0.867544E-05  0.322E-03    2.36       4.2  T
   5    -88.2475057 -0.421310E-06  0.124E-03    2.36      10.9  T
   6    -88.2475057 -0.195867E-07  0.635E-04    2.36      21.4  T
   7    -88.2475057 -0.431257E-08  0.278E-04    2.36      48.9  T
     SCC iter.                  ...        0 min,  0.074 sec
     gradient                   ...        0 min,  0.085 sec
 * total energy  :   -87.1489201 Eh     change       -0.1430122E-03 Eh
   gradient norm :     0.0070803 Eh/α   predicted    -0.1240107E-03 ( -13.29%)
   displ. norm   :     0.3488689 α      lambda       -0.1601844E-03
   maximum displ.:     0.1745077 α      in ANC's #1, #3, #11, ...

........................................................................
.............................. CYCLE   18 ..............................
........................................................................

 iter      E             dE          RMSdq      gap      omega  full diag
   1    -88.2456284 -0.882456E+02  0.636E-02    2.36       0.0  T
   2    -88.2456317 -0.331281E-05  0.381E-02    2.36       1.0  T
   3    -88.2456259  0.578916E-05  0.115E-02    2.36       1.2  T
   4    -88.2456329 -0.698101E-05  0.207E-03    2.36       6.6  T
   5    -88.2456330 -0.112417E-06  0.108E-03    2.36      12.6  T
   6    -88.2456330 -0.124154E-07  0.628E-04    2.36      21.7  T
   7    -88.2456330 -0.103083E-07  0.226E-04    2.36      60.2  T
     SCC iter.                  ...        0 min,  0.023 sec
     gradient                   ...        0 min,  0.089 sec
 * total energy  :   -87.1490284 Eh     change       -0.1082881E-03 Eh
   gradient norm :     0.0065644 Eh/α   predicted    -0.8984144E-04 ( -17.03%)
   displ. norm   :     0.3008936 α      lambda       -0.2237652E-03
   maximum displ.:     0.1568306 α      in ANC's #1, #3, #6, ...

........................................................................
.............................. CYCLE   19 ..............................
........................................................................

 iter      E             dE          RMSdq      gap      omega  full diag
   1    -88.2484502 -0.882485E+02  0.633E-02    2.37       0.0  T
   2    -88.2484536 -0.342997E-05  0.377E-02    2.37       1.0  T
   3    -88.2484486  0.504582E-05  0.114E-02    2.37       1.2  T
   4    -88.2484547 -0.610759E-05  0.216E-03    2.37       6.3  T
   5    -88.2484548 -0.144526E-06  0.118E-03    2.37      11.6  T
   6    -88.2484549 -0.241430E-07  0.681E-04    2.37      20.0  T
   7    -88.2484549 -0.151648E-07  0.278E-04    2.37      49.0  T
     SCC iter.                  ...        0 min,  0.072 sec
     gradient                   ...        0 min,  0.089 sec
 * total energy  :   -87.1491253 Eh     change       -0.9693839E-04 Eh
   gradient norm :     0.0060834 Eh/α   predicted    -0.1220130E-03 (  25.87%)
   displ. norm   :     0.2164835 α      lambda       -0.9243512E-04
   maximum displ.:     0.1156450 α      in ANC's #1, #3, #11, ...

........................................................................
.............................. CYCLE   20 ..............................
........................................................................

 iter      E             dE          RMSdq      gap      omega  full diag
   1    -88.2469600 -0.882470E+02  0.397E-02    2.37       0.0  T
   2    -88.2469612 -0.121213E-05  0.239E-02    2.37       1.0  T
   3    -88.2469587  0.249216E-05  0.718E-03    2.37       1.9  T
   4    -88.2469615 -0.275814E-05  0.189E-03    2.37       7.2  T
   5    -88.2469616 -0.154924E-06  0.804E-04    2.37      16.9  T
   6    -88.2469617 -0.178027E-07  0.408E-04    2.37      33.4  T
     SCC iter.                  ...        0 min,  0.020 sec
     gradient                   ...        0 min,  0.090 sec
 * total energy  :   -87.1491892 Eh     change       -0.6389031E-04 Eh
   gradient norm :     0.0053915 Eh/α   predicted    -0.4838696E-04 ( -24.27%)
   displ. norm   :     0.1626829 α      lambda       -0.1107734E-03
   maximum displ.:     0.0917956 α      in ANC's #1, #3, #24, ...
 * RMSD in coord.:     0.6647455 α      energy gain  -0.3791844E-01 Eh

generating ANC from exact Hessian ...
Using Lindh-Hessian (1995)
 Shifting diagonal of input Hessian by    9.7077116277413250E-003
 Lowest  eigenvalues of input Hessian
    0.000000    0.000000    0.000000    0.000000    0.000000    0.000000
    0.010000    0.010122    0.010218    0.010557    0.010721    0.011156
    0.011979    0.012639    0.012700    0.013004    0.013202    0.014237
 Highest eigenvalues
    1.971487    2.059933    2.092929    2.114536    2.227844    2.338697


........................................................................
.............................. CYCLE   21 ..............................
........................................................................

 iter      E             dE          RMSdq      gap      omega  full diag
   1    -88.2473654 -0.882474E+02  0.318E-02    2.37       0.0  T
   2    -88.2473678 -0.243432E-05  0.194E-02    2.37       1.0  T
   3    -88.2473649  0.289684E-05  0.893E-03    2.37       1.5  T
   4    -88.2473681 -0.315911E-05  0.288E-03    2.37       4.7  T
   5    -88.2473685 -0.429867E-06  0.818E-04    2.37      16.6  T
   6    -88.2473686 -0.200659E-07  0.460E-04    2.37      29.6  T
     SCC iter.                  ...        0 min,  0.020 sec
     gradient                   ...        0 min,  0.090 sec
 * total energy  :   -87.1492614 Eh     change       -0.7216180E-04 Eh
   gradient norm :     0.0048756 Eh/α   predicted     0.0000000E+00 (-100.00%)
   displ. norm   :     0.0435853 α      lambda       -0.6689491E-04
   maximum displ.:     0.0159730 α      in ANC's #14, #16, #17, ...

........................................................................
.............................. CYCLE   22 ..............................
........................................................................

 iter      E             dE          RMSdq      gap      omega  full diag
   1    -88.2479063 -0.882479E+02  0.132E-02    2.37       0.0  T
   2    -88.2479067 -0.388351E-06  0.794E-03    2.37       1.7  T
   3    -88.2479062  0.516151E-06  0.327E-03    2.37       4.2  T
   4    -88.2479067 -0.576955E-06  0.107E-03    2.37      12.7  T
   5    -88.2479068 -0.633251E-07  0.349E-04    2.37      39.0  T
   6    -88.2479068 -0.184217E-08  0.221E-04    2.37      61.7  T
     SCC iter.                  ...        0 min,  0.072 sec
     gradient                   ...        0 min,  0.090 sec
 * total energy  :   -87.1493142 Eh     change       -0.5279070E-04 Eh
   gradient norm :     0.0020407 Eh/α   predicted    -0.3375002E-04 ( -36.07%)
   displ. norm   :     0.1172569 α      lambda       -0.9344232E-04
   maximum displ.:     0.0429919 α      in ANC's #14, #16, #5, ...

........................................................................
.............................. CYCLE   23 ..............................
........................................................................

 iter      E             dE          RMSdq      gap      omega  full diag
   1    -88.2483039 -0.882483E+02  0.278E-02    2.36       0.0  T
   2    -88.2483048 -0.816011E-06  0.166E-02    2.36       1.0  T
   3    -88.2483038  0.982756E-06  0.445E-03    2.36       3.1  T
   4    -88.2483049 -0.115099E-05  0.132E-03    2.36      10.3  T
   5    -88.2483050 -0.727722E-07  0.611E-04    2.36      22.3  T
   6    -88.2483050 -0.611743E-08  0.324E-04    2.36      42.0  T
     SCC iter.                  ...        0 min,  0.020 sec
     gradient                   ...        0 min,  0.090 sec
 * total energy  :   -87.1493807 Eh     change       -0.6655257E-04 Eh
   gradient norm :     0.0026710 Eh/α   predicted    -0.4736404E-04 ( -28.83%)
   displ. norm   :     0.1642331 α      lambda       -0.7993665E-04
   maximum displ.:     0.0587597 α      in ANC's #5, #14, #7, ...

........................................................................
.............................. CYCLE   24 ..............................
........................................................................

 iter      E             dE          RMSdq      gap      omega  full diag
   1    -88.2480709 -0.882481E+02  0.344E-02    2.36       0.0  T
   2    -88.2480714 -0.530264E-06  0.205E-02    2.36       1.0  T
   3    -88.2480706  0.802657E-06  0.440E-03    2.36       3.1  T
   4    -88.2480716 -0.999323E-06  0.115E-03    2.36      11.9  T
   5    -88.2480716 -0.191452E-07  0.660E-04    2.36      20.6  T
   6    -88.2480716 -0.921321E-08  0.344E-04    2.36      39.5  T
     SCC iter.                  ...        0 min,  0.065 sec
     gradient                   ...        0 min,  0.038 sec
 * total energy  :   -87.1494440 Eh     change       -0.6325429E-04 Eh
   gradient norm :     0.0044719 Eh/α   predicted    -0.4104803E-04 ( -35.11%)
   displ. norm   :     0.2948317 α      lambda       -0.1211753E-03
   maximum displ.:     0.1127645 α      in ANC's #5, #7, #14, ...

........................................................................
.............................. CYCLE   25 ..............................
........................................................................

 iter      E             dE          RMSdq      gap      omega  full diag
   1    -88.2468045 -0.882468E+02  0.580E-02    2.36       0.0  T
   2    -88.2468058 -0.135770E-05  0.347E-02    2.36       1.0  T
   3    -88.2468031  0.273935E-05  0.873E-03    2.36       1.6  T
   4    -88.2468064 -0.331724E-05  0.199E-03    2.36       6.8  T
   5    -88.2468065 -0.576819E-07  0.111E-03    2.36      12.3  T
   6    -88.2468065 -0.200636E-07  0.562E-04    2.36      24.2  T
   7    -88.2468065 -0.119488E-07  0.194E-04    2.36      70.2  T
     SCC iter.                  ...        0 min,  0.023 sec
     gradient                   ...        0 min,  0.084 sec
 * total energy  :   -87.1495281 Eh     change       -0.8406145E-04 Eh
   gradient norm :     0.0053223 Eh/α   predicted    -0.6585517E-04 ( -21.66%)
   displ. norm   :     0.2082820 α      lambda       -0.8021002E-04
   maximum displ.:     0.0872996 α      in ANC's #5, #7, #1, ...

........................................................................
.............................. CYCLE   26 ..............................
........................................................................

 iter      E             dE          RMSdq      gap      omega  full diag
   1    -88.2467499 -0.882467E+02  0.386E-02    2.36       0.0  T
   2    -88.2467511 -0.124844E-05  0.231E-02    2.37       1.0  T
   3    -88.2467487  0.237299E-05  0.801E-03    2.37       1.7  T
   4    -88.2467515 -0.273402E-05  0.180E-03    2.37       7.6  T
   5    -88.2467516 -0.996640E-07  0.755E-04    2.37      18.0  T
   6    -88.2467516 -0.499250E-08  0.418E-04    2.37      32.6  T
     SCC iter.                  ...        0 min,  0.020 sec
     gradient                   ...        0 min,  0.084 sec
 * total energy  :   -87.1495880 Eh     change       -0.5994510E-04 Eh
   gradient norm :     0.0042617 Eh/α   predicted    -0.4184669E-04 ( -30.19%)
   displ. norm   :     0.1866232 α      lambda       -0.9361039E-04
   maximum displ.:     0.0862826 α      in ANC's #5, #7, #3, ...

........................................................................
.............................. CYCLE   27 ..............................
........................................................................

 iter      E             dE          RMSdq      gap      omega  full diag
   1    -88.2484460 -0.882484E+02  0.341E-02    2.37       0.0  T
   2    -88.2484481 -0.214696E-05  0.204E-02    2.37       1.0  T
   3    -88.2484455  0.260142E-05  0.868E-03    2.37       1.6  T
   4    -88.2484485 -0.299313E-05  0.231E-03    2.37       5.9  T
   5    -88.2484487 -0.216141E-06  0.722E-04    2.37      18.8  T
   6    -88.2484487 -0.864213E-08  0.399E-04    2.37      34.1  T
     SCC iter.                  ...        0 min,  0.070 sec
     gradient                   ...        0 min,  0.084 sec
 * total energy  :   -87.1496510 Eh     change       -0.6301148E-04 Eh
   gradient norm :     0.0031036 Eh/α   predicted    -0.4845146E-04 ( -23.11%)
   displ. norm   :     0.1834382 α      lambda       -0.5356767E-04
   maximum displ.:     0.0879187 α      in ANC's #5, #7, #3, ...

........................................................................
.............................. CYCLE   28 ..............................
........................................................................

 iter      E             dE          RMSdq      gap      omega  full diag
   1    -88.2485334 -0.882485E+02  0.349E-02    2.38       0.0  T
   2    -88.2485342 -0.825937E-06  0.208E-02    2.38       1.0  T
   3    -88.2485315  0.267490E-05  0.777E-03    2.38       1.8  T
   4    -88.2485345 -0.294345E-05  0.166E-03    2.38       8.2  T
   5    -88.2485346 -0.121433E-06  0.705E-04    2.38      19.3  T
   6    -88.2485346 -0.119235E-07  0.370E-04    2.38      36.8  T
     SCC iter.                  ...        0 min,  0.020 sec
     gradient                   ...        0 min,  0.084 sec
 * total energy  :   -87.1496931 Eh     change       -0.4207230E-04 Eh
   gradient norm :     0.0038453 Eh/α   predicted    -0.2770281E-04 ( -34.15%)
   displ. norm   :     0.2146563 α      lambda       -0.7616630E-04
   maximum displ.:     0.1080856 α      in ANC's #5, #7, #3, ...

........................................................................
.............................. CYCLE   29 ..............................
........................................................................

 iter      E             dE          RMSdq      gap      omega  full diag
   1    -88.2493696 -0.882494E+02  0.437E-02    2.38       0.0  T
   2    -88.2493705 -0.937703E-06  0.259E-02    2.38       1.0  T
   3    -88.2493687  0.183952E-05  0.657E-03    2.38       2.1  T
   4    -88.2493707 -0.209107E-05  0.164E-03    2.38       8.3  T
   5    -88.2493708 -0.900279E-07  0.825E-04    2.38      16.5  T
   6    -88.2493709 -0.170188E-07  0.414E-04    2.38      32.8  T
     SCC iter.                  ...        0 min,  0.071 sec
     gradient                   ...        0 min,  0.038 sec
 * total energy  :   -87.1497490 Eh     change       -0.5593878E-04 Eh
   gradient norm :     0.0043066 Eh/α   predicted    -0.3984813E-04 ( -28.76%)
   displ. norm   :     0.3023195 α      lambda       -0.7637091E-04
   maximum displ.:     0.1526126 α      in ANC's #5, #7, #3, ...

........................................................................
.............................. CYCLE   30 ..............................
........................................................................

 iter      E             dE          RMSdq      gap      omega  full diag
   1    -88.2478677 -0.882479E+02  0.616E-02    2.38       0.0  T
   2    -88.2478690 -0.132525E-05  0.368E-02    2.38       1.0  T
   3    -88.2478666  0.234906E-05  0.739E-03    2.38       1.8  T
   4    -88.2478695 -0.291158E-05  0.165E-03    2.38       8.2  T
   5    -88.2478696 -0.172124E-07  0.975E-04    2.38      14.0  T
   6    -88.2478696 -0.239106E-07  0.469E-04    2.38      29.0  T
     SCC iter.                  ...        0 min,  0.020 sec
     gradient                   ...        0 min,  0.083 sec
 * total energy  :   -87.1498024 Eh     change       -0.5338515E-04 Eh
   gradient norm :     0.0048047 Eh/α   predicted    -0.4167588E-04 ( -21.93%)
   displ. norm   :     0.2607966 α      lambda       -0.1019196E-03
   maximum displ.:     0.1376743 α      in ANC's #5, #3, #1, ...

........................................................................
.............................. CYCLE   31 ..............................
........................................................................

 iter      E             dE          RMSdq      gap      omega  full diag
   1    -88.2489250 -0.882489E+02  0.558E-02    2.38       0.0  T
   2    -88.2489268 -0.173519E-05  0.332E-02    2.38       1.0  T
   3    -88.2489208  0.599644E-05  0.985E-03    2.38       1.4  T
   4    -88.2489274 -0.661907E-05  0.246E-03    2.38       5.5  T
   5    -88.2489276 -0.234656E-06  0.118E-03    2.38      11.5  T
   6    -88.2489277 -0.358350E-07  0.566E-04    2.38      24.1  T
   7    -88.2489277 -0.529054E-08  0.257E-04    2.38      52.9  T
     SCC iter.                  ...        0 min,  0.023 sec
     gradient                   ...        0 min,  0.083 sec
 * total energy  :   -87.1498705 Eh     change       -0.6810903E-04 Eh
   gradient norm :     0.0035499 Eh/α   predicted    -0.5443180E-04 ( -20.08%)
   displ. norm   :     0.3112352 α      lambda       -0.8223566E-04
   maximum displ.:     0.1671609 α      in ANC's #5, #1, #3, ...

........................................................................
.............................. CYCLE   32 ..............................
........................................................................

 iter      E             dE          RMSdq      gap      omega  full diag
   1    -88.2477977 -0.882478E+02  0.637E-02    2.38       0.0  T
   2    -88.2477996 -0.196887E-05  0.382E-02    2.38       1.0  T
   3    -88.2477891  0.105486E-04  0.125E-02    2.38       1.1  T
   4    -88.2478006 -0.115390E-04  0.268E-03    2.38       5.1  T
   5    -88.2478009 -0.282100E-06  0.131E-03    2.38      10.4  T
   6    -88.2478010 -0.461545E-07  0.573E-04    2.38      23.7  T
   7    -88.2478010 -0.428219E-08  0.262E-04    2.38      51.9  T
     SCC iter.                  ...        0 min,  0.072 sec
     gradient                   ...        0 min,  0.038 sec
 * total energy  :   -87.1499294 Eh     change       -0.5889799E-04 Eh
   gradient norm :     0.0037981 Eh/α   predicted    -0.4511024E-04 ( -23.41%)
   displ. norm   :     0.2510624 α      lambda       -0.1227389E-03
   maximum displ.:     0.1291830 α      in ANC's #5, #1, #3, ...

........................................................................
.............................. CYCLE   33 ..............................
........................................................................

 iter      E             dE          RMSdq      gap      omega  full diag
   1    -88.2491654 -0.882492E+02  0.514E-02    2.37       0.0  T
   2    -88.2491679 -0.253800E-05  0.312E-02    2.37       1.0  T
   3    -88.2491476  0.203242E-04  0.183E-02    2.37       1.0  T
   4    -88.2491704 -0.228375E-04  0.285E-03    2.37       4.8  T
   5    -88.2491707 -0.325973E-06  0.132E-03    2.37      10.3  T
   6    -88.2491708 -0.501420E-07  0.670E-04    2.37      20.3  T
   7    -88.2491708 -0.444459E-08  0.352E-04    2.37      38.6  T
     SCC iter.                  ...        0 min,  0.023 sec
     gradient                   ...        0 min,  0.084 sec
 * total energy  :   -87.1499986 Eh     change       -0.6918210E-04 Eh
   gradient norm :     0.0041710 Eh/α   predicted    -0.6523902E-04 (  -5.70%)
   displ. norm   :     0.2801547 α      lambda       -0.6248971E-04
   maximum displ.:     0.1521332 α      in ANC's #5, #1, #3, ...

........................................................................
.............................. CYCLE   34 ..............................
........................................................................

 iter      E             dE          RMSdq      gap      omega  full diag
   1    -88.2480549 -0.882481E+02  0.562E-02    2.37       0.0  T
   2    -88.2480562 -0.129586E-05  0.338E-02    2.37       1.0  T
   3    -88.2480492  0.698121E-05  0.103E-02    2.37       1.3  T
   4    -88.2480568 -0.756808E-05  0.235E-03    2.37       5.8  T
   5    -88.2480571 -0.271822E-06  0.107E-03    2.37      12.7  T
   6    -88.2480571 -0.270866E-07  0.456E-04    2.37      29.9  T
   7    -88.2480571 -0.306309E-08  0.168E-04    2.37      81.1  T
     SCC iter.                  ...        0 min,  0.023 sec
     gradient                   ...        0 min,  0.083 sec
 * total energy  :   -87.1500341 Eh     change       -0.3550793E-04 Eh
   gradient norm :     0.0052247 Eh/α   predicted    -0.3369745E-04 (  -5.10%)
   displ. norm   :     0.1353508 α      lambda       -0.8398127E-04
   maximum displ.:     0.0554750 α      in ANC's #5, #1, #4, ...

........................................................................
.............................. CYCLE   35 ..............................
........................................................................

 iter      E             dE          RMSdq      gap      omega  full diag
   1    -88.2491317 -0.882491E+02  0.299E-02    2.38       0.0  T
   2    -88.2491327 -0.986773E-06  0.178E-02    2.38       1.0  T
   3    -88.2491313  0.134900E-05  0.561E-03    2.38       2.4  T
   4    -88.2491329 -0.151996E-05  0.153E-03    2.38       8.9  T
   5    -88.2491330 -0.128902E-06  0.637E-04    2.38      21.4  T
   6    -88.2491330 -0.105744E-07  0.355E-04    2.38      38.4  T
     SCC iter.                  ...        0 min,  0.065 sec
     gradient                   ...        0 min,  0.038 sec
 * total energy  :   -87.1500955 Eh     change       -0.6136335E-04 Eh
   gradient norm :     0.0033650 Eh/α   predicted    -0.4276132E-04 ( -30.31%)
   displ. norm   :     0.2372328 α      lambda       -0.7546652E-04
   maximum displ.:     0.1147795 α      in ANC's #5, #1, #4, ...

........................................................................
.............................. CYCLE   36 ..............................
........................................................................

 iter      E             dE          RMSdq      gap      omega  full diag
   1    -88.2488114 -0.882488E+02  0.462E-02    2.38       0.0  T
   2    -88.2488130 -0.152381E-05  0.276E-02    2.38       1.0  T
   3    -88.2488103  0.264604E-05  0.754E-03    2.38       1.8  T
   4    -88.2488133 -0.298647E-05  0.187E-03    2.38       7.3  T
   5    -88.2488135 -0.171253E-06  0.870E-04    2.38      15.6  T
   6    -88.2488135 -0.210599E-07  0.455E-04    2.38      29.9  T
     SCC iter.                  ...        0 min,  0.020 sec
     gradient                   ...        0 min,  0.085 sec
 * total energy  :   -87.1501505 Eh     change       -0.5501107E-04 Eh
   gradient norm :     0.0033905 Eh/α   predicted    -0.3985838E-04 ( -27.54%)
   displ. norm   :     0.2209161 α      lambda       -0.6811749E-04
   maximum displ.:     0.0971089 α      in ANC's #1, #5, #4, ...

........................................................................
.............................. CYCLE   37 ..............................
........................................................................

 iter      E             dE          RMSdq      gap      omega  full diag
   1    -88.2489219 -0.882489E+02  0.418E-02    2.38       0.0  T
   2    -88.2489232 -0.130316E-05  0.250E-02    2.38       1.0  T
   3    -88.2489217  0.147925E-05  0.587E-03    2.38       2.3  T
   4    -88.2489235 -0.175031E-05  0.150E-03    2.38       9.1  T
   5    -88.2489236 -0.816301E-07  0.801E-04    2.38      17.0  T
   6    -88.2489236 -0.189689E-07  0.419E-04    2.38      32.5  T
     SCC iter.                  ...        0 min,  0.020 sec
     gradient                   ...        0 min,  0.083 sec
 * total energy  :   -87.1501995 Eh     change       -0.4903062E-04 Eh
   gradient norm :     0.0036081 Eh/α   predicted    -0.3572553E-04 ( -27.14%)
   displ. norm   :     0.3776772 α      lambda       -0.8205207E-04
   maximum displ.:     0.1822370 α      in ANC's #5, #1, #4, ...

........................................................................
.............................. CYCLE   38 ..............................
........................................................................

 iter      E             dE          RMSdq      gap      omega  full diag
   1    -88.2470587 -0.882471E+02  0.669E-02    2.38       0.0  T
   2    -88.2470611 -0.235467E-05  0.402E-02    2.38       1.0  T
   3    -88.2470563  0.473195E-05  0.947E-03    2.38       1.4  T
   4    -88.2470616 -0.529773E-05  0.240E-03    2.38       5.7  T
   5    -88.2470619 -0.257628E-06  0.131E-03    2.38      10.4  T
   6    -88.2470619 -0.722141E-07  0.544E-04    2.38      25.0  T
   7    -88.2470620 -0.492216E-08  0.213E-04    2.38      63.8  T
     SCC iter.                  ...        0 min,  0.068 sec
     gradient                   ...        0 min,  0.039 sec
 * total energy  :   -87.1502461 Eh     change       -0.4658695E-04 Eh
   gradient norm :     0.0056901 Eh/α   predicted    -0.4687871E-04 (   0.63%)
   displ. norm   :     0.2028601 α      lambda       -0.1247548E-03
   maximum displ.:     0.0889159 α      in ANC's #4, #1, #2, ...

........................................................................
.............................. CYCLE   39 ..............................
........................................................................

 iter      E             dE          RMSdq      gap      omega  full diag
   1    -88.2488404 -0.882488E+02  0.400E-02    2.38       0.0  T
   2    -88.2488425 -0.202480E-05  0.238E-02    2.38       1.0  T
   3    -88.2488411  0.137526E-05  0.609E-03    2.38       2.2  T
   4    -88.2488427 -0.164578E-05  0.198E-03    2.38       6.9  T
   5    -88.2488429 -0.162274E-06  0.103E-03    2.38      13.2  T
   6    -88.2488429 -0.403680E-07  0.508E-04    2.38      26.8  T
   7    -88.2488429 -0.425804E-08  0.246E-04    2.38      55.3  T
     SCC iter.                  ...        0 min,  0.023 sec
     gradient                   ...        0 min,  0.084 sec
 * total energy  :   -87.1503070 Eh     change       -0.6086157E-04 Eh
   gradient norm :     0.0047419 Eh/α   predicted    -0.6494463E-04 (   6.71%)
   displ. norm   :     0.3578536 α      lambda       -0.1379535E-03
   maximum displ.:     0.1692830 α      in ANC's #1, #5, #4, ...

........................................................................
.............................. CYCLE   40 ..............................
........................................................................

 iter      E             dE          RMSdq      gap      omega  full diag
   1    -88.2479934 -0.882480E+02  0.681E-02    2.37       0.0  T
   2    -88.2479972 -0.378714E-05  0.410E-02    2.37       1.0  T
   3    -88.2479887  0.850227E-05  0.132E-02    2.37       1.0  T
   4    -88.2479981 -0.934672E-05  0.332E-03    2.37       4.1  T
   5    -88.2479986 -0.513686E-06  0.141E-03    2.37       9.6  T
   6    -88.2479987 -0.665930E-07  0.633E-04    2.37      21.5  T
   7    -88.2479987 -0.542323E-08  0.316E-04    2.37      43.1  T
     SCC iter.                  ...        0 min,  0.023 sec
     gradient                   ...        0 min,  0.084 sec
 * total energy  :   -87.1503623 Eh     change       -0.5529881E-04 Eh
   gradient norm :     0.0080438 Eh/α   predicted    -0.7781541E-04 (  40.72%)
   displ. norm   :     0.0897242 α      lambda       -0.1360337E-03
   maximum displ.:     0.0326369 α      in ANC's #7, #9, #10, ...

........................................................................
.............................. CYCLE   41 ..............................
........................................................................

 iter      E             dE          RMSdq      gap      omega  full diag
   1    -88.2491273 -0.882491E+02  0.255E-02    2.37       0.0  T
   2    -88.2491288 -0.149520E-05  0.147E-02    2.36       1.0  T
   3    -88.2491275  0.123820E-05  0.628E-03    2.37       2.2  T
   4    -88.2491290 -0.144498E-05  0.185E-03    2.36       7.4  T
   5    -88.2491291 -0.162057E-06  0.499E-04    2.36      27.3  T
   6    -88.2491291 -0.468957E-08  0.263E-04    2.36      51.8  T
     SCC iter.                  ...        0 min,  0.065 sec
     gradient                   ...        0 min,  0.038 sec
 * total energy  :   -87.1504561 Eh     change       -0.9383357E-04 Eh
   gradient norm :     0.0051687 Eh/α   predicted    -0.6856415E-04 ( -26.93%)
   displ. norm   :     0.3157447 α      lambda       -0.1209581E-03
   maximum displ.:     0.1519999 α      in ANC's #1, #5, #4, ...

........................................................................
.............................. CYCLE   42 ..............................
........................................................................

 iter      E             dE          RMSdq      gap      omega  full diag
   1    -88.2481293 -0.882481E+02  0.560E-02    2.36       0.0  T
   2    -88.2481322 -0.291542E-05  0.336E-02    2.36       1.0  T
   3    -88.2481267  0.548791E-05  0.116E-02    2.36       1.2  T
   4    -88.2481329 -0.619749E-05  0.270E-03    2.36       5.0  T
   5    -88.2481332 -0.306169E-06  0.119E-03    2.36      11.4  T
   6    -88.2481332 -0.377032E-07  0.588E-04    2.36      23.1  T
   7    -88.2481333 -0.485791E-08  0.284E-04    2.36      47.9  T
     SCC iter.                  ...        0 min,  0.023 sec
     gradient                   ...        0 min,  0.078 sec
 * total energy  :   -87.1505404 Eh     change       -0.8426671E-04 Eh
   gradient norm :     0.0061467 Eh/α   predicted    -0.6650930E-04 ( -21.07%)
   displ. norm   :     0.2616479 α      lambda       -0.1577657E-03
   maximum displ.:     0.1166837 α      in ANC's #1, #2, #7, ...
 * RMSD in coord.:     0.5779859 α      energy gain  -0.1351123E-02 Eh

generating ANC from exact Hessian ...
Using Lindh-Hessian (1995)
 Shifting diagonal of input Hessian by    9.7053350210904894E-003
 Lowest  eigenvalues of input Hessian
    0.000000    0.000000    0.000000    0.000000    0.000000    0.000000
    0.010000    0.010125    0.010208    0.010544    0.010655    0.011143
    0.012332    0.012617    0.012770    0.013106    0.013311    0.014188
 Highest eigenvalues
    1.970540    2.059781    2.096007    2.119525    2.224016    2.340395


........................................................................
.............................. CYCLE   43 ..............................
........................................................................

 iter      E             dE          RMSdq      gap      omega  full diag
   1    -88.2497301 -0.882497E+02  0.514E-02    2.35       0.0  T
   2    -88.2497327 -0.254087E-05  0.308E-02    2.35       1.0  T
   3    -88.2497276  0.513229E-05  0.115E-02    2.35       1.2  T
   4    -88.2497336 -0.603897E-05  0.229E-03    2.35       5.9  T
   5    -88.2497338 -0.171217E-06  0.110E-03    2.35      12.4  T
   6    -88.2497338 -0.185416E-07  0.563E-04    2.35      24.2  T
   7    -88.2497338 -0.402588E-08  0.260E-04    2.35      52.4  T
     SCC iter.                  ...        0 min,  0.063 sec
     gradient                   ...        0 min,  0.039 sec
 * total energy  :   -87.1506384 Eh     change       -0.9803595E-04 Eh
   gradient norm :     0.0052497 Eh/α   predicted     0.0000000E+00 (-100.00%)
   displ. norm   :     0.0697924 α      lambda       -0.1007508E-03
   maximum displ.:     0.0367619 α      in ANC's #7, #13, #12, ...

........................................................................
.............................. CYCLE   44 ..............................
........................................................................

 iter      E             dE          RMSdq      gap      omega  full diag
   1    -88.2502267 -0.882502E+02  0.195E-02    2.35       0.0  T
   2    -88.2502274 -0.617902E-06  0.117E-02    2.36       1.2  T
   3    -88.2502266  0.809431E-06  0.445E-03    2.35       3.1  T
   4    -88.2502275 -0.925700E-06  0.117E-03    2.36      11.7  T
   5    -88.2502276 -0.684988E-07  0.376E-04    2.36      36.2  T
   6    -88.2502276 -0.322026E-08  0.205E-04    2.36      66.3  T
     SCC iter.                  ...        0 min,  0.020 sec
     gradient                   ...        0 min,  0.039 sec
 * total energy  :   -87.1507328 Eh     change       -0.9440731E-04 Eh
   gradient norm :     0.0028243 Eh/α   predicted    -0.5384162E-04 ( -42.97%)
   displ. norm   :     0.3675951 α      lambda       -0.4178722E-03
   maximum displ.:     0.2076581 α      in ANC's #7, #13, #12, ...

........................................................................
.............................. CYCLE   45 ..............................
........................................................................

 iter      E             dE          RMSdq      gap      omega  full diag
   1    -88.2494471 -0.882494E+02  0.914E-02    2.36       0.0  T
   2    -88.2494587 -0.116461E-04  0.549E-02    2.37       1.0  T
   3    -88.2494371  0.216007E-04  0.219E-02    2.36       1.0  T
   4    -88.2494616 -0.244756E-04  0.529E-03    2.36       2.6  T
   5    -88.2494631 -0.148039E-05  0.197E-03    2.36       6.9  T
   6    -88.2494632 -0.118212E-06  0.104E-03    2.36      13.0  T
   7    -88.2494632 -0.254681E-07  0.538E-04    2.36      25.3  T
   8    -88.2494632 -0.706537E-08  0.193E-04    2.36      70.6  T
     SCC iter.                  ...        0 min,  0.026 sec
     gradient                   ...        0 min,  0.078 sec
 * total energy  :   -87.1510383 Eh     change       -0.3055028E-03 Eh
   gradient norm :     0.0075580 Eh/α   predicted    -0.2372230E-03 ( -22.35%)
   displ. norm   :     0.3881310 α      lambda       -0.3133816E-03
   maximum displ.:     0.2335872 α      in ANC's #7, #13, #12, ...

........................................................................
.............................. CYCLE   46 ..............................
........................................................................

 iter      E             dE          RMSdq      gap      omega  full diag
   1    -88.2463848 -0.882464E+02  0.897E-02    2.37       0.0  T
   2    -88.2463953 -0.105109E-04  0.541E-02    2.37       1.0  T
   3    -88.2463724  0.229052E-04  0.225E-02    2.37       1.0  T
   4    -88.2463985 -0.261393E-04  0.504E-03    2.37       2.7  T
   5    -88.2463998 -0.133814E-05  0.225E-03    2.37       6.0  T
   6    -88.2464000 -0.205016E-06  0.105E-03    2.37      13.0  T
   7    -88.2464001 -0.219699E-07  0.514E-04    2.37      26.4  T
   8    -88.2464001 -0.554051E-08  0.182E-04    2.37      74.9  T
     SCC iter.                  ...        0 min,  0.026 sec
     gradient                   ...        0 min,  0.084 sec
 * total energy  :   -87.1511938 Eh     change       -0.1555313E-03 Eh
   gradient norm :     0.0155097 Eh/α   predicted    -0.1802997E-03 (  15.92%)
   displ. norm   :     0.1131444 α      lambda       -0.3739170E-03
   maximum displ.:     0.0730891 α      in ANC's #7, #5, #13, ...

........................................................................
.............................. CYCLE   47 ..............................
........................................................................

 iter      E             dE          RMSdq      gap      omega  full diag
   1    -88.2483941 -0.882484E+02  0.292E-02    2.37       0.0  T
   2    -88.2483959 -0.174380E-05  0.174E-02    2.37       1.0  T
   3    -88.2483934  0.245406E-05  0.930E-03    2.37       1.5  T
   4    -88.2483967 -0.324056E-05  0.196E-03    2.37       6.9  T
   5    -88.2483969 -0.210484E-06  0.976E-04    2.37      13.9  T
   6    -88.2483969 -0.429227E-07  0.379E-04    2.37      35.9  T
     SCC iter.                  ...        0 min,  0.065 sec
     gradient                   ...        0 min,  0.039 sec
 * total energy  :   -87.1515022 Eh     change       -0.3084025E-03 Eh
   gradient norm :     0.0103218 Eh/α   predicted    -0.1894637E-03 ( -38.57%)
   displ. norm   :     0.4792192 α      lambda       -0.7417328E-03
   maximum displ.:     0.3249804 α      in ANC's #7, #13, #5, ...

........................................................................
.............................. CYCLE   48 ..............................
........................................................................

 iter      E             dE          RMSdq      gap      omega  full diag
   1    -88.2482064 -0.882482E+02  0.108E-01    2.36       0.0  T
   2    -88.2482246 -0.181952E-04  0.659E-02    2.36       1.0  T
   3    -88.2481875  0.371201E-04  0.332E-02    2.36       1.0  T
   4    -88.2482328 -0.452822E-04  0.668E-03    2.36       2.0  T
   5    -88.2482353 -0.254339E-05  0.326E-03    2.36       4.2  T
   6    -88.2482358 -0.512505E-06  0.117E-03    2.36      11.6  T
   7    -88.2482358 -0.951488E-08  0.566E-04    2.36      24.1  T
   8    -88.2482358 -0.626002E-08  0.154E-04    2.36      88.5  T
     SCC iter.                  ...        0 min,  0.027 sec
     gradient                   ...        0 min,  0.079 sec
 * total energy  :   -87.1520541 Eh     change       -0.5518203E-03 Eh
   gradient norm :     0.0103530 Eh/α   predicted    -0.4560979E-03 ( -17.35%)
   displ. norm   :     0.3382431 α      lambda       -0.7962047E-03
   maximum displ.:     0.2319519 α      in ANC's #7, #5, #13, ...

........................................................................
.............................. CYCLE   49 ..............................
........................................................................

 iter      E             dE          RMSdq      gap      omega  full diag
   1    -88.2534483 -0.882534E+02  0.906E-02    2.35       0.0  T
   2    -88.2534696 -0.212625E-04  0.541E-02    2.34       1.0  T
   3    -88.2534516  0.179631E-04  0.287E-02    2.35       1.0  T
   4    -88.2534758 -0.241719E-04  0.666E-03    2.35       2.0  T
   5    -88.2534778 -0.201734E-05  0.305E-03    2.35       4.5  T
   6    -88.2534782 -0.411925E-06  0.120E-03    2.35      11.4  T
   7    -88.2534783 -0.155403E-07  0.616E-04    2.35      22.1  T
   8    -88.2534783 -0.738974E-08  0.210E-04    2.35      64.7  T
     SCC iter.                  ...        0 min,  0.026 sec
     gradient                   ...        0 min,  0.080 sec
 * total energy  :   -87.1525090 Eh     change       -0.4549041E-03 Eh
   gradient norm :     0.0119118 Eh/α   predicted    -0.4436592E-03 (  -2.47%)
   displ. norm   :     0.6052208 α      lambda       -0.7822062E-03
   maximum displ.:     0.4176697 α      in ANC's #7, #5, #13, ...

........................................................................
.............................. CYCLE   50 ..............................
........................................................................

 iter      E             dE          RMSdq      gap      omega  full diag
   1    -88.2448265 -0.882448E+02  0.148E-01    2.34       0.0  T
   2    -88.2448497 -0.231736E-04  0.900E-02    2.34       1.0  T
   3    -88.2448117  0.379991E-04  0.335E-02    2.34       1.0  T
   4    -88.2448572 -0.454991E-04  0.698E-03    2.34       1.9  T
   5    -88.2448586 -0.142206E-05  0.428E-03    2.34       3.2  T
   6    -88.2448594 -0.796450E-06  0.179E-03    2.34       7.6  T
   7    -88.2448594 -0.488867E-07  0.687E-04    2.34      19.8  T
   8    -88.2448595 -0.108044E-07  0.248E-04    2.34      54.8  T
     SCC iter.                  ...        0 min,  0.066 sec
     gradient                   ...        0 min,  0.039 sec
 * total energy  :   -87.1523819 Eh     change        0.1270389E-03 Eh
   gradient norm :     0.0272622 Eh/α   predicted    -0.5343645E-03 (-520.63%)
   displ. norm   :     0.2276800 α      lambda       -0.1512969E-02
   maximum displ.:     0.1542261 α      in ANC's #7, #13, #12, ...

........................................................................
.............................. CYCLE   51 ..............................
........................................................................

 iter      E             dE          RMSdq      gap      omega  full diag
   1    -88.2519895 -0.882520E+02  0.692E-02    2.34       0.0  T
   2    -88.2519931 -0.357264E-05  0.416E-02    2.34       1.0  T
   3    -88.2519851  0.798402E-05  0.127E-02    2.34       1.1  T
   4    -88.2519946 -0.955167E-05  0.388E-03    2.34       3.5  T
   5    -88.2519951 -0.444315E-06  0.226E-03    2.34       6.0  T
   6    -88.2519952 -0.993667E-07  0.101E-03    2.34      13.5  T
   7    -88.2519952 -0.229168E-07  0.320E-04    2.34      42.5  T
   8    -88.2519952 -0.210771E-08  0.177E-04    2.34      76.9  T
     SCC iter.                  ...        0 min,  0.059 sec
     gradient                   ...        0 min,  0.039 sec
 * total energy  :   -87.1531536 Eh     change       -0.7717075E-03 Eh
   gradient norm :     0.0092209 Eh/α   predicted    -0.7957024E-03 (   3.11%)
   displ. norm   :     0.2025444 α      lambda       -0.3844378E-03
   maximum displ.:     0.1106659 α      in ANC's #7, #5, #2, ...

........................................................................
.............................. CYCLE   52 ..............................
........................................................................

 iter      E             dE          RMSdq      gap      omega  full diag
   1    -88.2530718 -0.882531E+02  0.551E-02    2.34       0.0  T
   2    -88.2530748 -0.297142E-05  0.334E-02    2.34       1.0  T
   3    -88.2530712  0.359017E-05  0.120E-02    2.34       1.1  T
   4    -88.2530759 -0.463996E-05  0.182E-03    2.34       7.5  T
   5    -88.2530759 -0.230343E-07  0.102E-03    2.34      13.4  T
   6    -88.2530759 -0.245623E-07  0.551E-04    2.34      24.7  T
   7    -88.2530759 -0.603009E-08  0.238E-04    2.34      57.1  T
     SCC iter.                  ...        0 min,  0.023 sec
     gradient                   ...        0 min,  0.071 sec
 * total energy  :   -87.1534878 Eh     change       -0.3342097E-03 Eh
   gradient norm :     0.0062697 Eh/α   predicted    -0.2001058E-03 ( -40.13%)
   displ. norm   :     0.5983744 α      lambda       -0.8569497E-03
   maximum displ.:     0.3333584 α      in ANC's #7, #5, #2, ...

........................................................................
.............................. CYCLE   53 ..............................
........................................................................

 iter      E             dE          RMSdq      gap      omega  full diag
   1    -88.2499843 -0.882500E+02  0.156E-01    2.34       0.0  T
   2    -88.2500026 -0.183887E-04  0.949E-02    2.34       1.0  T
   3    -88.2499758  0.268508E-04  0.316E-02    2.34       1.0  T
   4    -88.2500098 -0.339638E-04  0.505E-03    2.34       2.7  T
   5    -88.2500099 -0.115872E-06  0.328E-03    2.34       4.1  T
   6    -88.2500102 -0.354032E-06  0.146E-03    2.34       9.3  T
   7    -88.2500103 -0.337304E-07  0.631E-04    2.34      21.6  T
   8    -88.2500103 -0.132045E-07  0.215E-04    2.34      63.3  T
     SCC iter.                  ...        0 min,  0.026 sec
     gradient                   ...        0 min,  0.072 sec
 * total energy  :   -87.1539822 Eh     change       -0.4944103E-03 Eh
   gradient norm :     0.0123584 Eh/α   predicted    -0.5818780E-03 (  17.69%)
   displ. norm   :     0.1214967 α      lambda       -0.3424950E-03
   maximum displ.:     0.0609779 α      in ANC's #5, #2, #11, ...

........................................................................
.............................. CYCLE   54 ..............................
........................................................................

 iter      E             dE          RMSdq      gap      omega  full diag
   1    -88.2526552 -0.882527E+02  0.321E-02    2.34       0.0  T
   2    -88.2526569 -0.162431E-05  0.192E-02    2.34       1.0  T
   3    -88.2526549  0.193418E-05  0.908E-03    2.34       1.5  T
   4    -88.2526575 -0.255896E-05  0.184E-03    2.34       7.4  T
   5    -88.2526576 -0.906307E-07  0.103E-03    2.34      13.2  T
   6    -88.2526576 -0.284434E-07  0.477E-04    2.34      28.5  T
   7    -88.2526576 -0.224583E-08  0.212E-04    2.34      64.1  T
     SCC iter.                  ...        0 min,  0.023 sec
     gradient                   ...        0 min,  0.072 sec
 * total energy  :   -87.1542369 Eh     change       -0.2546421E-03 Eh
   gradient norm :     0.0060468 Eh/α   predicted    -0.1737834E-03 ( -31.75%)
   displ. norm   :     0.4219080 α      lambda       -0.4079420E-03
   maximum displ.:     0.2163902 α      in ANC's #5, #7, #2, ...

........................................................................
.............................. CYCLE   55 ..............................
........................................................................

 iter      E             dE          RMSdq      gap      omega  full diag
   1    -88.2527873 -0.882528E+02  0.104E-01    2.34       0.0  T
   2    -88.2527946 -0.725408E-05  0.632E-02    2.34       1.0  T
   3    -88.2527773  0.172961E-04  0.239E-02    2.34       1.0  T
   4    -88.2527984 -0.210873E-04  0.356E-03    2.34       3.8  T
   5    -88.2527985 -0.189286E-06  0.238E-03    2.34       5.7  T
   6    -88.2527988 -0.210867E-06  0.887E-04    2.34      15.3  T
   7    -88.2527988 -0.117517E-07  0.402E-04    2.34      33.8  T
     SCC iter.                  ...        0 min,  0.023 sec
     gradient                   ...        0 min,  0.074 sec
 * total energy  :   -87.1545144 Eh     change       -0.2775030E-03 Eh
   gradient norm :     0.0064676 Eh/α   predicted    -0.2402928E-03 ( -13.41%)
   displ. norm   :     0.2392519 α      lambda       -0.2452859E-03
   maximum displ.:     0.1146405 α      in ANC's #5, #2, #15, ...

........................................................................
.............................. CYCLE   56 ..............................
........................................................................

 iter      E             dE          RMSdq      gap      omega  full diag
   1    -88.2552131 -0.882552E+02  0.598E-02    2.34       0.0  T
   2    -88.2552154 -0.229843E-05  0.360E-02    2.34       1.0  T
   3    -88.2552102  0.515143E-05  0.127E-02    2.34       1.1  T
   4    -88.2552166 -0.634892E-05  0.188E-03    2.34       7.2  T
   5    -88.2552166 -0.368293E-07  0.120E-03    2.34      11.4  T
   6    -88.2552166 -0.313133E-07  0.627E-04    2.34      21.7  T
   7    -88.2552166 -0.133355E-07  0.242E-04    2.34      56.3  T
     SCC iter.                  ...        0 min,  0.023 sec
     gradient                   ...        0 min,  0.066 sec
 * total energy  :   -87.1546648 Eh     change       -0.1503886E-03 Eh
   gradient norm :     0.0034140 Eh/α   predicted    -0.1296676E-03 ( -13.78%)
[...]
     DOI: 10.1021/acsomega.9b02011
   
   for metadynamics refer to:
   * S. Grimme, J. Chem. Theory Comput., 2019, 155, 2847-2862
     DOI: 10.1021/acs.jctc.9b00143
   
   for SPH calculations refer to:
   * S. Spicher and S. Grimme, J. Chem. Theory Comput., 2021, 17, 1701-1714
     DOI: 10.1021/acs.jctc.0c01306
   
   for ONIOM refer to:
   * C. Plett, A. Katbashev, S. Ehlert, S. Grimme, M. Bursch,
     Phys. Chem. Chem. Phys., 2023, 25, 17860-17868. DOI: 10.1039/D3CP02178E
   
   for DIPRO refer to:
   * J. Kohn, N. Gildemeister, S. Grimme, D. Fazzi, A. Hansen,
     J. Chem. Phys., 2023, just accepted.
   
   for PTB refer to:
   * S. Grimme, M. Mueller, A. Hansen, J. Chem. Phys., 2023, 158, 124111.
     DOI: 10.1063/5.0137838
   
   with help from (in alphabetical order)
   P. Atkinson, C. Bannwarth, F. Bohle, G. Brandenburg, E. Caldeweyher
   M. Checinski, S. Dohm, S. Ehlert, S. Ehrlich, I. Gerasimov, C. Hölzer
   A. Katbashev, J. Kohn, J. Koopman, C. Lavigne, S. Lehtola, F. März, M. Müller,
   F. Musil, H. Neugebauer, J. Pisarek, C. Plett, P. Pracht, F. Pultar,
   J. Seibert, P. Shushkov, S. Spicher, M. Stahn, M. Steiner, T. Strunk,
   J. Stückrath, T. Rose, and J. Unsleber
   
 * started run on 2025/05/15 at 16:04:56.836     
   ID    Z sym.   atoms
    1    8 O      1, 9, 13, 20, 23, 28
    2    6 C      2-5, 7, 8, 10-12, 14-19, 21, 22, 24-27, 29
    3    7 N      6
    4    1 H      30-54

           -------------------------------------------------
          |                Calculation Setup                |
           -------------------------------------------------

          program call               : xtb /rds/general/user/hgt20/home/callum/QDESCP/Colchicine_rdkit_conf_3/Colchicine_rdkit_conf_3.xyz --acc 1 --gfn 2 --chrg 0 --uhf 2 --etemp 300 --input /rds/general/user/hgt20/home/callum/QDESCP/Colchicine_rdkit_conf_3/Colchicine_rdkit_conf_3_xtb.inp -P 1
          hostname                   : login-c
          coordinate file            : /rds/general/user/hgt20/home/callum/QDESCP/Colchicine_rdkit_conf_3/Colchicine_rdkit_conf_3.xyz
          omp threads                :                     1


           -------------------------------------------------
          |                 G F N 2 - x T B                 |
           -------------------------------------------------

        Reference                      10.1021/acs.jctc.8b01176
      * Hamiltonian:
        H0-scaling (s, p, d)           1.850000    2.230000    2.230000
        zeta-weighting                 0.500000
      * Dispersion:
        s8                             2.700000
        a1                             0.520000
        a2                             5.000000
        s9                             5.000000
      * Repulsion:
        kExp                           1.500000    1.000000
        rExp                           1.000000
      * Coulomb:
        alpha                          2.000000
        third order                    shell-resolved
        anisotropic                    true
        a3                             3.000000
        a5                             4.000000
        cn-shift                       1.200000
        cn-exp                         4.000000
        max-rad                        5.000000


          ...................................................
          :                      SETUP                      :
          :.................................................:
          :  # basis functions                 141          :
          :  # atomic orbitals                 141          :
          :  # shells                           83          :
          :  # electrons                       154          :
          :  max. iterations                   250          :
          :  Hamiltonian                  GFN2-xTB          :
          :  restarted?                      false          :
          :  GBSA solvation                  false          :
          :  PC potential                    false          :
          :  electronic temp.          300.0000000     K    :
          :  accuracy                    1.0000000          :
          :  -> integral cutoff          0.2500000E+02      :
          :  -> integral neglect         0.1000000E-07      :
          :  -> SCF convergence          0.1000000E-05 Eh   :
          :  -> wf. convergence          0.1000000E-03 e    :
          :  Broyden damping             0.4000000          :
          :  net charge                          0          :
          :  unpaired electrons                  2          :
          ...................................................

 iter      E             dE          RMSdq      gap      omega  full diag
   1    -87.9761990 -0.879762E+02  0.428E+00    0.22       0.0  T
   2    -88.0078874 -0.316884E-01  0.266E+00    0.35       1.0  T
   3    -87.8613185  0.146569E+00  0.214E+00    0.46       1.0  T
   4    -88.1338201 -0.272502E+00  0.788E-01    0.25       1.0  T
   5    -88.1548239 -0.210039E-01  0.456E-01    0.13       1.0  T
   6    -88.1634364 -0.861253E-02  0.270E-01    0.20       1.0  T
   7    -88.1654051 -0.196866E-02  0.143E-01    0.18       1.0  T
   8    -88.1652790  0.126085E-03  0.897E-02    0.13       1.0  T
   9    -88.1657878 -0.508809E-03  0.322E-02    0.17       1.0  T
  10    -88.1658300 -0.421829E-04  0.120E-02    0.16       1.1  T
  11    -88.1658334 -0.336789E-05  0.699E-03    0.16       1.9  T
  12    -88.1658354 -0.196631E-05  0.340E-03    0.16       4.0  T
  13    -88.1658357 -0.297252E-06  0.111E-03    0.16      12.2  T
  14    -88.1658357 -0.375986E-07  0.359E-04    0.16      37.9  T
  15    -88.1658357 -0.142958E-08  0.207E-04    0.16      65.8  T

   *** convergence criteria satisfied after 15 iterations ***

         #    Occupation            Energy/Eh            Energy/eV
      -------------------------------------------------------------
         1        2.0000           -0.7329402             -19.9443
       ...           ...                  ...                  ...
        72        2.0000           -0.3976913             -10.8217
        73        2.0000           -0.3901029             -10.6152
        74        2.0000           -0.3863717             -10.5137
        75        1.9998           -0.3805042             -10.3540
        76        1.9993           -0.3795656             -10.3285
        77        1.0009           -0.3659714              -9.9586
        78        0.9571           -0.2728603              -7.4249 (HOMO)
        79        0.0429           -0.2669619              -7.2644 (LUMO)
        80                         -0.2293457              -6.2408
        81                         -0.2252071              -6.1282
        82                         -0.2007400              -5.4624
        83                         -0.1351454              -3.6775
       ...                                ...                  ...
       141                          0.7040162              19.1573
      -------------------------------------------------------------
                  HL-Gap            0.0058983 Eh            0.1605 eV
             Fermi-level           -0.3212644 Eh           -8.7420 eV

 transition dipole moment (au) for excitation:          77          78
     X       Y       Z   
   0.8031   1.4808   1.1771  total (au/Debye):    2.055   5.223
 dE (eV)             :    2.534
 oscillator strength :  0.37074E+00

 SCC (total)                   0 d,  0 h,  0 min,  0.141 sec
 SCC setup                      ...        0 min,  0.001 sec (  0.374%)
 Dispersion                     ...        0 min,  0.001 sec (  0.543%)
 classical contributions        ...        0 min,  0.000 sec (  0.168%)
 integral evaluation            ...        0 min,  0.012 sec (  8.639%)
 iterations                     ...        0 min,  0.055 sec ( 39.288%)
 molecular gradient             ...        0 min,  0.040 sec ( 28.503%)
 printout                       ...        0 min,  0.032 sec ( 22.480%)

         :::::::::::::::::::::::::::::::::::::::::::::::::::::
         ::                     SUMMARY                     ::
         :::::::::::::::::::::::::::::::::::::::::::::::::::::
         :: total energy             -87.065753462640 Eh    ::
         :: gradient norm              0.133102665379 Eh/a0 ::
         :: HOMO-LUMO gap              0.160502097619 eV    ::
         ::.................................................::
         :: SCC energy               -88.164168528356 Eh    ::
         :: -> isotropic ES            0.120703111219 Eh    ::
         :: -> anisotropic ES          0.008338259781 Eh    ::
         :: -> anisotropic XC          0.017379292341 Eh    ::
         :: -> dispersion             -0.065389566077 Eh    ::
         :: repulsion energy           1.098415065716 Eh    ::
         :: add. restraining           0.000000000000 Eh    ::
         :: total charge               0.000000000002 e     ::
         :::::::::::::::::::::::::::::::::::::::::::::::::::::

           -------------------------------------------------
          |                Property Printout                |
           -------------------------------------------------

    * Orbital Energies and Occupations

         #    Occupation            Energy/Eh            Energy/eV
      -------------------------------------------------------------
         1        2.0000           -0.7329402             -19.9443
       ...           ...                  ...                  ...
        66        2.0000           -0.4438413             -12.0775
        67        2.0000           -0.4390716             -11.9477
        68        2.0000           -0.4318727             -11.7519
        69        2.0000           -0.4281624             -11.6509
        70        2.0000           -0.4215810             -11.4718
        71        2.0000           -0.4142078             -11.2712
        72        2.0000           -0.3976913             -10.8217
        73        2.0000           -0.3901029             -10.6152
        74        2.0000           -0.3863717             -10.5137
        75        1.9998           -0.3805042             -10.3540
        76        1.9993           -0.3795656             -10.3285
        77        1.0009           -0.3659714              -9.9586
        78        0.9571           -0.2728603              -7.4249 (HOMO)
        79        0.0429           -0.2669619              -7.2644 (LUMO)
        80                         -0.2293457              -6.2408
        81                         -0.2252071              -6.1282
        82                         -0.2007400              -5.4624
        83                         -0.1351454              -3.6775
        84                         -0.1276837              -3.4745
        85                         -0.1033357              -2.8119
        86                         -0.0130916              -0.3562
        87                          0.0035326               0.0961
        88                          0.0147629               0.4017
        89                          0.0200894               0.5467
       ...                                ...                  ...
       141                          0.7040162              19.1573
      -------------------------------------------------------------
                  HL-Gap            0.0058983 Eh            0.1605 eV
             Fermi-level           -0.3212644 Eh           -8.7420 eV

     #   Z          covCN         q      C6AA      α(0)
     1   8 O        0.860    -0.396    21.594     6.230
     2   6 C        2.817     0.207    23.605     7.960
     3   6 C        2.904    -0.088    30.198     9.010
     4   6 C        2.951     0.007    27.871     8.659
     5   6 C        3.797     0.044    19.834     6.342
     6   7 N        2.692    -0.186    25.022     7.429
     7   6 C        2.745     0.278    22.292     7.731
     8   6 C        3.758    -0.140    23.245     6.874
     9   8 O        0.858    -0.438    22.445     6.352
    10   6 C        3.805    -0.067    21.781     6.644
    11   6 C        3.810    -0.062    21.682     6.628
    12   6 C        2.832     0.097    25.844     8.331
    13   8 O        1.709    -0.222    17.691     5.679
    14   6 C        3.636     0.030    20.444     6.506
    15   6 C        2.897    -0.046    29.133     8.850
    16   6 C        2.906    -0.040    29.001     8.830
    17   6 C        2.957     0.011    27.775     8.644
    18   6 C        2.991    -0.025    28.627     8.777
    19   6 C        2.852     0.117    25.424     8.264
    20   8 O        1.706    -0.256    18.235     5.765
    21   6 C        3.634     0.035    20.376     6.497
    22   6 C        2.855     0.081    26.197     8.389
    23   8 O        1.703    -0.289    18.806     5.855
    24   6 C        3.640     0.040    20.256     6.473
    25   6 C        2.975     0.009    27.806     8.650
    26   6 C        2.919    -0.087    30.179     9.009
    27   6 C        2.861     0.118    25.400     8.261
    28   8 O        1.705    -0.256    18.241     5.766
    29   6 C        3.643     0.034    20.339     6.483
    30   1 H        0.925     0.056     2.246     2.344
    31   1 H        0.923     0.055     2.264     2.353
    32   1 H        0.860     0.174     1.247     1.749
    33   1 H        0.925     0.053     2.286     2.364
    34   1 H        0.925     0.044     2.399     2.422
    35   1 H        0.925     0.069     2.099     2.266
    36   1 H        0.924     0.046     2.374     2.409
    37   1 H        0.925     0.079     1.989     2.206
    38   1 H        0.924     0.047     2.364     2.404
    39   1 H        0.924     0.046     2.370     2.407
    40   1 H        0.925     0.062     2.180     2.309
    41   1 H        0.924     0.057     2.237     2.339
    42   1 H        0.924     0.083     1.947     2.182
    43   1 H        0.925     0.058     2.220     2.330
    44   1 H        0.925     0.047     2.363     2.404
    45   1 H        0.924     0.046     2.374     2.410
    46   1 H        0.924     0.061     2.192     2.315
    47   1 H        0.924     0.061     2.188     2.313
    48   1 H        0.924     0.054     2.270     2.356
    49   1 H        0.924     0.056     2.251     2.346
    50   1 H        0.924     0.028     2.608     2.526
    51   1 H        0.926     0.052     2.299     2.371
    52   1 H        0.925     0.065     2.145     2.290
    53   1 H        0.924     0.046     2.368     2.406
    54   1 H        0.924     0.048     2.349     2.397

 Mol. C6AA /au·bohr⁶  :      31581.483768
 Mol. C8AA /au·bohr⁸  :     736939.798885
 Mol. α(0) /au        :        273.107032


Wiberg/Mayer (AO) data.
largest (>0.10) Wiberg bond orders for each atom

 ---------------------------------------------------------------------------
     #   Z sym  total        # sym  WBO       # sym  WBO       # sym  WBO
 ---------------------------------------------------------------------------
     1   8 O    1.952 --     2 C    1.669
     2   6 C    3.924 --     1 O    1.669     3 C    1.073    12 C    1.067
     3   6 C    3.841 --     4 C    1.492     2 C    1.073    30 H    0.956
     4   6 C    3.963 --     3 C    1.492    17 C    1.282     5 C    0.990
     5   6 C    3.968 --     4 C    0.990    10 C    0.974     6 N    0.970
                            31 H    0.953
     6   7 N    3.438 --     7 C    1.255     5 C    0.970    32 H    0.934
                             9 O    0.194
     7   6 C    3.951 --     9 O    1.684     6 N    1.255     8 C    0.972
     8   6 C    3.994 --    35 H    0.984    33 H    0.974     7 C    0.972
                            34 H    0.970
     9   8 O    2.001 --     7 C    1.684     6 N    0.194
    10   6 C    3.985 --    11 C    0.986    36 H    0.975     5 C    0.974
                            37 H    0.965
    11   6 C    3.995 --    25 C    1.017    10 C    0.986    39 H    0.974
                            38 H    0.966
    12   6 C    3.746 --    15 C    1.248    13 O    1.152     2 C    1.067
    13   8 O    2.289 --    12 C    1.152    14 C    0.976
    14   6 C    3.928 --    40 H    0.979    13 O    0.976    41 H    0.969
                            42 H    0.963
    15   6 C    3.941 --    16 C    1.505    12 C    1.248    43 H    0.960
    16   6 C    3.914 --    15 C    1.505    17 C    1.205    44 H    0.965
    17   6 C    3.871 --     4 C    1.282    16 C    1.205    18 C    1.079
    18   6 C    3.956 --    25 C    1.333    19 C    1.264    17 C    1.079
    19   6 C    3.927 --    22 C    1.356    18 C    1.264    20 O    1.075
    20   8 O    2.249 --    19 C    1.075    21 C    0.976
    21   6 C    3.937 --    46 H    0.978    45 H    0.977    20 O    0.976
                            47 H    0.975
    22   6 C    3.923 --    19 C    1.356    27 C    1.281    23 O    1.022
    23   8 O    2.151 --    22 C    1.022    24 C    0.973
    24   6 C    3.944 --    50 H    0.980    48 H    0.979    49 H    0.974
                            23 O    0.973
    25   6 C    3.972 --    26 C    1.423    18 C    1.333    11 C    1.017
    26   6 C    3.964 --    25 C    1.423    27 C    1.355    51 H    0.960
    27   6 C    3.892 --    26 C    1.355    22 C    1.281    28 O    1.068
    28   8 O    2.221 --    27 C    1.068    29 C    0.982
    29   6 C    3.942 --    28 O    0.982    52 H    0.979    54 H    0.975
                            53 H    0.975
    30   1 H    0.996 --     3 C    0.956
    31   1 H    0.996 --     5 C    0.953
    32   1 H    0.970 --     6 N    0.934
    33   1 H    0.997 --     8 C    0.974
    34   1 H    0.998 --     8 C    0.970
    35   1 H    0.995 --     8 C    0.984
    36   1 H    0.997 --    10 C    0.975
    37   1 H    0.993 --    10 C    0.965
    38   1 H    0.997 --    11 C    0.966
    39   1 H    0.997 --    11 C    0.974
    40   1 H    0.996 --    14 C    0.979
    41   1 H    0.993 --    14 C    0.969
    42   1 H    0.986 --    14 C    0.963
    43   1 H    0.996 --    15 C    0.960
    44   1 H    0.997 --    16 C    0.965
    45   1 H    0.996 --    21 C    0.977
    46   1 H    0.996 --    21 C    0.978
    47   1 H    0.995 --    21 C    0.975
    48   1 H    0.996 --    24 C    0.979
    49   1 H    0.996 --    24 C    0.974
    50   1 H    0.999 --    24 C    0.980
    51   1 H    0.997 --    26 C    0.960
    52   1 H    0.995 --    29 C    0.979
    53   1 H    0.995 --    29 C    0.975
    54   1 H    0.996 --    29 C    0.975
 ---------------------------------------------------------------------------

Topologies differ in total number of bonds
Writing topology from bond orders to xtbtopo.mol

molecular dipole:
                 x           y           z       tot (Debye)
 q only:        1.724       0.271      -0.366
   full:        2.038       0.291      -0.161       5.248
molecular quadrupole (traceless):
                xx          xy          yy          xz          yz          zz
 q only:       -9.111       4.952       0.523      17.750      -6.706       8.587
  q+dip:       -8.864       7.324      -0.744      17.567      -7.528       9.608
   full:      -10.170       6.768      -1.144      17.987      -9.401      11.314


           -------------------------------------------------
          | TOTAL ENERGY              -87.065753462640 Eh   |
          | GRADIENT NORM               0.133102665379 Eh/α |
          | HOMO-LUMO GAP               0.160502097619 eV   |
           -------------------------------------------------

------------------------------------------------------------------------
 * finished run on 2025/05/15 at 16:04:56.995     
------------------------------------------------------------------------
 total:
 * wall-time:     0 d,  0 h,  0 min,  0.160 sec
 *  cpu-time:     0 d,  0 h,  0 min,  0.133 sec
 * ratio c/w:     0.830 speedup
 SCF:
 * wall-time:     0 d,  0 h,  0 min,  0.142 sec
 *  cpu-time:     0 d,  0 h,  0 min,  0.116 sec
 * ratio c/w:     0.819 speedup


