54
 energy: -87.155440287103 gnorm: 0.000795517400 xtb: 6.7.1 (edcfbbe)
O           -4.32249934596630       -3.03464186690284       -1.31792818930726
C           -3.30922428615049       -2.38583998299808       -1.57504562841649
C           -3.06560336749848       -1.15045389937619       -0.86067822112267
C           -1.95367292015832       -0.41749195401026       -0.58133870206559
C           -2.15738394923706        0.79982744669304        0.30231893165343
N           -1.32293956375590        0.67675919898392        1.49032950266301
C           -1.21432958921460        1.59678157751595        2.47086669412173
C           -0.23730242078629        1.17885647961649        3.55492732969469
O           -1.81885159741976        2.64797990403772        2.48737892514463
C           -1.91328763462496        2.11159052647692       -0.47026247846695
C           -0.67789147067250        2.08441026071909       -1.37606743497758
C           -2.37788650469043       -2.81724032265654       -2.63050264080207
O           -2.77680925876151       -3.64502162178056       -3.61746252905600
C           -4.14043225198188       -3.96179921771670       -3.82490707605773
C           -1.03574656297540       -2.53252349619970       -2.67091683497738
C           -0.25106147699702       -1.68034314429881       -1.88631309445800
C           -0.61590468386269       -0.71740764566547       -0.97980382179087
C            0.49018425730443        0.11231766880407       -0.43729927711558
C            1.53155149740458       -0.48947575675726        0.29210680824748
O            1.36261487304125       -1.83076550421504        0.47850908902716
C            2.26674461617800       -2.61066763997302        1.22825641530040
C            2.58118917755543        0.29736231632052        0.78036723734769
O            3.62173137351900       -0.31310972643383        1.45280133948737
C            4.02772183950512        0.23826137423565        2.69009864204323
C            0.48621047237279        1.48286759425382       -0.65129745752261
C            1.52319062565580        2.26050453577967       -0.16761924963927
C            2.57612502931713        1.68359672393777        0.52599825179862
O            3.64621917896700        2.38865899830540        0.99649208294107
C            3.67376527250910        3.78183986512154        0.80073691366968
H           -3.98513685866584       -0.82149374607667       -0.38677485845829
H           -3.20100124105373        0.83431595082047        0.64431467869153
H           -0.79890754657670       -0.17887993748735        1.57552355118367
H           -0.54610287465843        0.23625593643519        4.00060969178499
H            0.75213588149294        1.05664393454337        3.11862641104658
H           -0.20198067119207        1.94534674888723        4.32293848154238
H           -2.79551086811993        2.31629657216015       -1.07879389200868
H           -1.82084307461212        2.90748567473941        0.26804571294596
H           -0.89412502971368        1.48985263104263       -2.26736428987973
H           -0.44724327728144        3.10219848453057       -1.69254832969574
H           -4.15924622000239       -4.51352289315204       -4.76433640187939
H           -4.75083287368712       -3.06078355434382       -3.91426763696529
H           -4.53794604118507       -4.57765551387876       -3.01769695092479
H           -0.50467216744874       -3.07368123218152       -3.44552841968893
H            0.81090648527311       -1.74295992027448       -2.08580380518710
H            2.28983812922792       -2.30905974017690        2.27868004205853
H            1.87944421798940       -3.62788988593973        1.15586831254832
H            3.27655200599476       -2.56981908414625        0.81765667045127
H            4.56263013186204       -0.56081464930637        3.20414148770941
H            4.69174493286554        1.09314393405001        2.55304347801038
H            3.16836743659746        0.54530818145089        3.29426882410778
H            1.50419707212238        3.32164033942136       -0.35137656177430
H            4.59859895210410        4.12246562025290        1.26404723112940
H            3.68836357449001        4.03755172431817       -0.26319625627664
H            2.82414859559142        4.27312173250090        1.28487730221046
