51
 energy: -84.104826062352 gnorm: 0.000573255167 xtb: 6.7.1 (edcfbbe)
F           -7.75936183299499        0.24025801566920        3.52870434166514
C           -6.82015162237524        0.46064093812756        2.58933024255728
C           -5.87054557777346        1.44419941568095        2.80308983718636
C           -4.91567396928703        1.65906509663582        1.82936231629191
C           -4.89182707018623        0.89363818722624        0.66341268055921
C           -5.86832941913717       -0.08234784506963        0.47271085731576
C           -6.83826002647113       -0.30005400769776        1.43284212691586
C           -3.82511065439948        1.20008477310017       -0.33314554743240
C           -3.35093907953287        0.04592852661710       -1.20067839320840
C           -2.86549607868672       -1.13595697520622       -0.35250075661408
C           -1.54939412605093       -0.79070892484484        0.33888680839449
N           -0.54773704555055       -0.49620337413757       -0.66441213904901
C           -0.92005659282665        0.70070723414173       -1.39959182596949
C           -2.22902704159145        0.47259686438947       -2.15015686050676
C            0.80439212395171       -0.43632588870828       -0.14988022605767
C            1.79438586234242       -0.90225584205946       -1.22537284377870
N            3.16303978275044       -0.85723131779438       -0.73339691717490
C            3.60382982210330       -1.95786532591071       -0.02431594727781
N            4.89782661809114       -1.89129940429833        0.42951826610236
C            5.74115585030707       -0.82178772113613        0.24979275205001
C            7.04430792186879       -0.82673426837935        0.74408356607913
C            7.85547147263220        0.27090620651400        0.54209794916591
C            7.38611847190857        1.38363460994026       -0.14870139521436
C            6.09839529133506        1.39430936114508       -0.63943640749821
C            5.26464909707794        0.29314275629698       -0.44664269055342
C            3.89483647720314        0.30130750672736       -0.97050956656211
O            3.40992843679231        1.23034801420550       -1.57922348975620
O            2.91453465315588       -2.92882566796265        0.18648876666648
O           -3.37933466811892        2.32069699538530       -0.42518231129552
H           -5.89214939088445        2.02483598246948        3.71160646356645
H           -4.16639843852014        2.42559225449725        1.95773073319023
H           -5.89440752250809       -0.66309273798299       -0.43612425279854
H           -7.60526284773213       -1.04608804749488        1.29643501484759
H           -4.21585876719285       -0.27185896031671       -1.79521743896745
H           -2.69205441739329       -1.98926133933926       -1.00974488656376
H           -3.60946161465297       -1.41521682181992        0.39487872587772
H           -1.21544512897465       -1.65019215981050        0.92515187653449
H           -1.70771830231127        0.05968531348794        1.02974920355719
H           -0.13171237876419        0.93304591806028       -2.11678537258351
H           -1.02996026328909        1.56466684521430       -0.72385715936654
H           -2.07868185432337       -0.31271307582178       -2.89222692037303
H           -2.51024424325153        1.39365500726754       -2.66206005261355
H            1.08084892101995        0.57750257245565        0.18487648274975
H            0.89200350853621       -1.11546414286150        0.70190638693770
H            1.56139964603594       -1.93051475507387       -1.50368753716705
H            1.74386292287307       -0.25346392022965       -2.09987567764963
H            5.22316366682192       -2.70080807522489        0.94125966735081
H            7.40739744343795       -1.69089066655643        1.28070970231588
H            8.86472216163546        0.26333741836896        0.92536103258790
H            8.03102999584547        2.23524811422290       -0.29839099642121
H            5.70299982706154        2.24102733787357       -1.17896818800260
