31
 energy: -58.963342564899 gnorm: 0.000500932279 xtb: 6.7.1 (edcfbbe)
N           -4.64774605553198        1.87605206619680       -0.49309991241796
C           -3.82794428550074        0.88980797018728       -0.11020757549003
N           -4.35459536891193       -0.30311672489209        0.18032892088145
C           -3.55777120227700       -1.28488474404711        0.55693468472434
Cl          -4.33739585040472       -2.76103764156692        0.89829991074684
N           -2.24908408461095       -1.28478502218973        0.70236547524236
C           -1.71784237660350       -0.09494722535311        0.41438292831824
C           -2.43255558564489        1.03959025245415       -0.00050648173745
N           -1.55892960068619        2.07611357974654       -0.20686085617945
C           -0.38768721876282        1.59081570435869        0.06502543760038
N           -0.40711437270091        0.27627634328940        0.45058983293276
C            0.66334966742620       -0.62536926549346        0.81912376802271
C            1.08026180790973       -1.52396601774491       -0.35953803221668
C            2.61312071627257       -1.54802326696625       -0.27144582269654
C            2.91752433431813       -0.19663894296324        0.39684589853604
O            1.80023727422959        0.07471170315734        1.24793029390725
C            3.11166898091040        0.95223922033591       -0.60018571450366
O            3.29398403210112        2.16974550859683        0.07104492441214
O            3.10775363565211       -2.63312791770916        0.45862969712078
H           -4.26660876809364        2.78141161822628       -0.69918693235234
H           -5.63622380459351        1.70204653961686       -0.53141712774502
H            0.51614829044023        2.16263941448532        0.00955805852252
H            0.27139280879553       -1.21665779629941        1.66069342105752
H            0.75800852404359       -1.07832905822574       -1.30032826626597
H            0.65443805128073       -2.52104145622620       -0.27921573591431
H            3.08165142702225       -1.62515577653363       -1.25435605205581
H            3.79648810328180       -0.25588841961428        1.04792324254841
H            4.00754712758158        0.78098080958447       -1.20068831340558
H            2.24111163407847        1.00803902698649       -1.27233679374435
H            2.70800291286217        2.17355601094704        0.83999945371499
H            2.75890924611853       -2.60135649234277        1.35799766843568
