41
 energy: -74.033412281876 gnorm: 0.000545712141 xtb: 6.7.1 (edcfbbe)
O           -0.70629791390806       -1.49952805661950       -1.63063605415742
C           -0.49892660216614       -0.79100478564848       -0.67708579476420
C            0.71986827913863       -0.18543604263813       -0.18970359042664
C            2.04043475325699       -0.23231709547293       -0.66435251116989
O            2.26856061072227       -0.96010087611240       -1.76539128294868
C            3.57613713008983       -1.04396593824778       -2.28365816371449
C            3.00761037916267        0.47714930205928        0.04152692829406
C            0.39921505024961        0.54713570034197        0.96294091194744
C            1.36642211427264        1.24374716642669        1.66034347702212
Cl           0.97355694008913        2.14077572743193        3.07734159201784
C            2.68744304990434        1.20921683134722        1.18771477099995
O            3.57961260627141        1.91394365847306        1.90905141858978
C            4.92921800923496        1.94912335801301        1.50728180640166
O           -0.89392511389475        0.48062946929975        1.29681767351465
C           -1.58479479955568       -0.30143816094673        0.31933992122067
C           -2.33772072151615       -1.44436396907780        1.02018736919190
C           -1.35967968991167       -2.43246722043186        1.65105527613989
C           -3.26021363220687       -2.13695123756004        0.02260944312878
C           -2.53501868795955        0.59098100345407       -0.45019557569218
O           -1.99259883912973        1.80130361854142       -0.66130536272989
C           -2.73382395242386        2.75564234543230       -1.39110874320512
C           -3.73758824885455        0.16357344125136       -0.86735460292573
C           -4.23947374994598       -1.18163710433735       -0.62359340772349
O           -5.35942830206773       -1.52054186569518       -0.94310236722403
H            3.50015057830754       -1.68565604106483       -3.15947110719867
H            4.26497730482683       -1.49533039081914       -1.56285124274715
H            3.95182117516573       -0.06163385939112       -2.58618266118372
H            4.02825582250981        0.46624315429927       -0.29980106048762
H            5.04105791069508        2.39213898388847        0.51300799929210
H            5.43236671958054        2.57846024549130        2.23923449382176
H            5.37922711707810        0.95167628189843        1.51962258183893
H           -2.93739663025925       -0.98200965086801        1.81312069726638
H           -1.90722246803907       -3.19458702788045        2.19967254195006
H           -0.76227612406032       -2.92084337994169        0.88384969000798
H           -0.69370215819789       -1.92223306875596        2.34353244954790
H           -3.81584498779804       -2.94061053128005        0.50789466809796
H           -2.66211410939687       -2.57534387696618       -0.78098236450684
H           -2.11104396824010        3.64735365863041       -1.42551795483406
H           -2.93323770913932        2.40294381706915       -2.40672491101060
H           -3.67868369874755        2.98521573874530       -0.89194867446174
H           -4.40502344313429        0.81064667766179       -1.41527827718065
