57
 energy: -87.646123297926 gnorm: 0.000416775486 xtb: 6.7.1 (edcfbbe)
O           -2.82539713278646       -0.47839466425297       -1.99948855475102
C           -3.37148249267773       -0.26529962524722       -0.92965896075923
C           -2.78585342348532        0.41662762024156        0.20183905896309
C           -1.37378306629792        0.87546911565684        0.02647791097876
C           -0.39597207666840       -0.28440399374018        0.32853632732006
N            1.00493817170258        0.00407413350797        0.14022371955537
C            1.38595511983511        0.26616284541857       -1.23345284269521
C            2.90351735618737        0.16960054391898       -1.36368635732674
C            3.56239614772070        1.19366906250968       -0.43346073715199
C            3.06710007857437        0.95756103718549        0.99712722705943
C            1.54176808087609        1.01535344105362        1.02704301308819
C            5.04674242900066        1.12493662043319       -0.51100951356235
N            5.74156776249277        2.15011210453401       -0.89939220660073
O            7.07311248615956        1.83410280715973       -0.88297586799548
C            7.19862054395642        0.56386474347277       -0.46697783494612
C            5.92197259038953        0.02709067890983       -0.20274517200061
C            5.80092921709504       -1.28803917920377        0.24517270008869
C            6.94987316614879       -2.02417927783707        0.41628406386093
C            8.19754011802960       -1.45690695204438        0.14425121030218
F            9.28953345571595       -2.22249916631745        0.32969483409054
C            8.36818323200364       -0.16459132590739       -0.30021842591099
C           -3.51296164292653        0.57786566971879        1.34749646738405
N           -4.79129402819169        0.12799548274969        1.46286393369862
C           -5.32737232440807       -0.47614866388992        0.45610477397593
N           -4.68788933230643       -0.69270918733040       -0.71501695125679
C           -5.42360046791999       -1.32516941143155       -1.78741408054263
C           -6.75022960589773       -0.59379455701588       -1.98154256364319
C           -7.55519978462115       -0.53616059154030       -0.67107188732467
C           -6.72276008280019       -1.00083399354423        0.53335059533790
C           -2.98477473206990        1.26568990504540        2.56793864832388
H           -1.24055730513063        1.17204480157615       -1.01548120595288
H           -1.15821538606533        1.72286197602464        0.67667218342066
H           -0.65058993235098       -1.12247567007231       -0.32527568942958
H           -0.53196627703697       -0.60807569012005        1.36543641425898
H            1.06202987850693        1.26636367717701       -1.56992917829951
H            0.90828547703801       -0.47932913476790       -1.87226411214395
H            3.22032292237678       -0.83671473837239       -1.08949525698778
H            3.19933466003745        0.35716584357120       -2.39702388937558
H            3.27044665519036        2.20084415157378       -0.74968086642100
H            3.39080791386754       -0.02438835315537        1.34240014340054
H            3.47980460029345        1.71427873945414        1.66661221479468
H            1.18628348060011        0.81200166004950        2.04048027156628
H            1.21823222629034        2.03294740889731        0.74389171079062
H            4.83598257211818       -1.72132195072668        0.45285346868929
H            6.91307469874425       -3.04541364585563        0.76063789166850
H            9.34162276407381        0.24748860772623       -0.50267834346441
H           -4.79727486102098       -1.26549952025321       -2.68107603747394
H           -5.59375081633191       -2.37938115714605       -1.54529750002539
H           -7.31874669103755       -1.09494157920414       -2.76450670508592
H           -6.53086979805249        0.41786825691961       -2.32692380477932
H           -8.44468537153509       -1.16303333205394       -0.74035418463694
H           -7.88868922252570        0.48644074537502       -0.49279945549712
H           -7.17141619516941       -0.67292911909689        1.46943074181084
H           -6.67460495121113       -2.09348033496578        0.54235072745486
H           -2.74497226674355        2.30462787640553        2.34736179636061
H           -2.08189021442963        0.77661752390698        2.92665604878377
H           -3.74337832333042        1.23418773490921        3.34401008901760
