----- Optimization -----
      -----------------------------------------------------------      
     |                   =====================                   |     
     |                           x T B                           |     
     |                   =====================                   |     
     |                         S. Grimme                         |     
     |          Mulliken Center for Theoretical Chemistry        |     
     |                    University of Bonn                     |     
      -----------------------------------------------------------      

   * xtb version 6.7.1 (edcfbbe) compiled by 'conda@3ef47c1a292c' on 2024-11-25

   xtb is free software: you can redistribute it and/or modify it under
   the terms of the GNU Lesser General Public License as published by
   the Free Software Foundation, either version 3 of the License, or
   (at your option) any later version.
   
   xtb is distributed in the hope that it will be useful,
   but WITHOUT ANY WARRANTY; without even the implied warranty of
   MERCHANTABILITY or FITNESS FOR A PARTICULAR PURPOSE.  See the
   GNU Lesser General Public License for more details.
   
   Cite this work as:
   * C. Bannwarth, E. Caldeweyher, S. Ehlert, A. Hansen, P. Pracht,
     J. Seibert, S. Spicher, S. Grimme, WIREs Comput. Mol. Sci., 2020, 11,
     e01493. DOI: 10.1002/wcms.1493
   
   for GFN2-xTB:
   * C. Bannwarth, S. Ehlert and S. Grimme., J. Chem. Theory Comput., 2019,
     15, 1652-1671. DOI: 10.1021/acs.jctc.8b01176
   for GFN1-xTB:
   * S. Grimme, C. Bannwarth, P. Shushkov, J. Chem. Theory Comput., 2017,
     13, 1989-2009. DOI: 10.1021/acs.jctc.7b00118
   for GFN0-xTB:
   * P. Pracht, E. Caldeweyher, S. Ehlert, S. Grimme, ChemRxiv, 2019, preprint.
     DOI: 10.26434/chemrxiv.8326202.v1
   for GFN-FF:
   * S. Spicher and S. Grimme, Angew. Chem. Int. Ed., 2020, 59, 15665-15673.
     DOI: 10.1002/anie.202004239
   
   for ALPB and GBSA implicit solvation:
   * S. Ehlert, M. Stahn, S. Spicher, S. Grimme, J. Chem. Theory Comput.,
     2021, 17, 4250-4261. DOI: 10.1021/acs.jctc.1c00471
   
   for ddCOSMO and CPCM-X implicit solvation:
   * M. Stahn, S. Ehlert, S. Grimme, J. Phys. Chem. A,
     2023, XX, XXXX-XXXX. DOI: 10.1021/acs.jpca.3c04382
   
   for DFT-D4:
   * E. Caldeweyher, C. Bannwarth and S. Grimme, J. Chem. Phys., 2017,
     147, 034112. DOI: 10.1063/1.4993215
   * E. Caldeweyher, S. Ehlert, A. Hansen, H. Neugebauer, S. Spicher,
     C. Bannwarth and S. Grimme, J. Chem. Phys., 2019, 150, 154122.
     DOI: 10.1063/1.5090222
   * E. Caldeweyher, J.-M. Mewes, S. Ehlert and S. Grimme, Phys. Chem. Chem. Phys.
     2020, 22, 8499-8512. DOI: 10.1039/D0CP00502A
   
   for sTDA-xTB:
   * S. Grimme and C. Bannwarth, J. Chem. Phys., 2016, 145, 054103.
     DOI: 10.1063/1.4959605
   
   in the mass-spec context:
   * V. Asgeirsson, C. Bauer and S. Grimme, Chem. Sci., 2017, 8, 4879.
     DOI: 10.1039/c7sc00601b
   * J. Koopman and S. Grimme, ACS Omega 2019, 4, 12, 15120-15133.
     DOI: 10.1021/acsomega.9b02011
   
   for metadynamics refer to:
   * S. Grimme, J. Chem. Theory Comput., 2019, 155, 2847-2862
     DOI: 10.1021/acs.jctc.9b00143
   
   for SPH calculations refer to:
   * S. Spicher and S. Grimme, J. Chem. Theory Comput., 2021, 17, 1701-1714
     DOI: 10.1021/acs.jctc.0c01306
   
   for ONIOM refer to:
   * C. Plett, A. Katbashev, S. Ehlert, S. Grimme, M. Bursch,
     Phys. Chem. Chem. Phys., 2023, 25, 17860-17868. DOI: 10.1039/D3CP02178E
   
   for DIPRO refer to:
   * J. Kohn, N. Gildemeister, S. Grimme, D. Fazzi, A. Hansen,
     J. Chem. Phys., 2023, just accepted.
   
   for PTB refer to:
   * S. Grimme, M. Mueller, A. Hansen, J. Chem. Phys., 2023, 158, 124111.
     DOI: 10.1063/5.0137838
   
   with help from (in alphabetical order)
   P. Atkinson, C. Bannwarth, F. Bohle, G. Brandenburg, E. Caldeweyher
   M. Checinski, S. Dohm, S. Ehlert, S. Ehrlich, I. Gerasimov, C. Hölzer
   A. Katbashev, J. Kohn, J. Koopman, C. Lavigne, S. Lehtola, F. März, M. Müller,
   F. Musil, H. Neugebauer, J. Pisarek, C. Plett, P. Pracht, F. Pultar,
   J. Seibert, P. Shushkov, S. Spicher, M. Stahn, M. Steiner, T. Strunk,
   J. Stückrath, T. Rose, and J. Unsleber
   
 * started run on 2025/05/15 at 16:36:04.830     
   ID    Z sym.   atoms
    1    7 N      1, 23
    2    6 C      2-22, 24
    3    1 H      25-42

           -------------------------------------------------
          |                Calculation Setup                |
           -------------------------------------------------

          program call               : xtb /rds/general/user/hgt20/home/callum/QDESCP/Bifonazole_rdkit_conf_2/Bifonazole_rdkit_conf_2.xyz --opt normal --acc 1 --gfn 2 --chrg 0 --uhf 0 -P 1
          hostname                   : login-c
          coordinate file            : /rds/general/user/hgt20/home/callum/QDESCP/Bifonazole_rdkit_conf_2/Bifonazole_rdkit_conf_2.xyz
          omp threads                :                     1


           -------------------------------------------------
          |                 G F N 2 - x T B                 |
           -------------------------------------------------

        Reference                      10.1021/acs.jctc.8b01176
      * Hamiltonian:
        H0-scaling (s, p, d)           1.850000    2.230000    2.230000
        zeta-weighting                 0.500000
      * Dispersion:
        s8                             2.700000
        a1                             0.520000
        a2                             5.000000
        s9                             5.000000
      * Repulsion:
        kExp                           1.500000    1.000000
        rExp                           1.000000
      * Coulomb:
        alpha                          2.000000
        third order                    shell-resolved
        anisotropic                    true
        a3                             3.000000
        a5                             4.000000
        cn-shift                       1.200000
        cn-exp                         4.000000
        max-rad                        5.000000


          ...................................................
          :                      SETUP                      :
          :.................................................:
          :  # basis functions                 114          :
          :  # atomic orbitals                 114          :
          :  # shells                           66          :
          :  # electrons                       116          :
          :  max. iterations                   250          :
          :  Hamiltonian                  GFN2-xTB          :
          :  restarted?                      false          :
          :  GBSA solvation                  false          :
          :  PC potential                    false          :
          :  electronic temp.          300.0000000     K    :
          :  accuracy                    1.0000000          :
          :  -> integral cutoff          0.2500000E+02      :
          :  -> integral neglect         0.1000000E-07      :
          :  -> SCF convergence          0.1000000E-05 Eh   :
          :  -> wf. convergence          0.1000000E-03 e    :
          :  Broyden damping             0.4000000          :
          :  net charge                          0          :
          :  unpaired electrons                  0          :
          ...................................................

 iter      E             dE          RMSdq      gap      omega  full diag
   1    -63.0972180 -0.630972E+02  0.412E+00    3.75       0.0  T
   2    -63.1634819 -0.662639E-01  0.255E+00    3.12       1.0  T
   3    -63.1519944  0.114875E-01  0.107E+00    3.32       1.0  T
   4    -63.1675173 -0.155229E-01  0.400E-01    3.13       1.0  T
   5    -63.1737039 -0.618656E-02  0.893E-02    3.15       1.0  T
   6    -63.1738664 -0.162501E-03  0.369E-02    3.15       1.0  T
   7    -63.1739037 -0.372859E-04  0.183E-02    3.14       1.0  T
   8    -63.1739060 -0.235679E-05  0.605E-03    3.14       2.5  T
   9    -63.1739071 -0.109149E-05  0.141E-03    3.14      11.0  T
  10    -63.1739072 -0.402791E-07  0.661E-04    3.14      23.3  T
  11    -63.1739072 -0.126578E-07  0.254E-04    3.14      60.7  T

   *** convergence criteria satisfied after 11 iterations ***

         #    Occupation            Energy/Eh            Energy/eV
      -------------------------------------------------------------
         1        2.0000           -0.6732179             -18.3192
       ...           ...                  ...                  ...
        52        2.0000           -0.4119455             -11.2096
        53        2.0000           -0.4094313             -11.1412
        54        2.0000           -0.4060385             -11.0489
        55        2.0000           -0.4051190             -11.0238
        56        2.0000           -0.3932227             -10.7001
        57        2.0000           -0.3776790             -10.2772
        58        2.0000           -0.3682463             -10.0205 (HOMO)
        59                         -0.2526957              -6.8762 (LUMO)
        60                         -0.2377136              -6.4685
        61                         -0.2369138              -6.4468
        62                         -0.2347188              -6.3870
        63                         -0.2298014              -6.2532
       ...                                ...                  ...
       114                          0.6467719              17.5996
      -------------------------------------------------------------
                  HL-Gap            0.1155506 Eh            3.1443 eV
             Fermi-level           -0.3104710 Eh           -8.4483 eV

 SCC (total)                   0 d,  0 h,  0 min,  0.060 sec
 SCC setup                      ...        0 min,  0.000 sec (  0.634%)
 Dispersion                     ...        0 min,  0.001 sec (  0.908%)
 classical contributions        ...        0 min,  0.000 sec (  0.244%)
 integral evaluation            ...        0 min,  0.008 sec ( 13.187%)
 iterations                     ...        0 min,  0.025 sec ( 42.127%)
 molecular gradient             ...        0 min,  0.025 sec ( 42.598%)
 printout                       ...        0 min,  0.000 sec (  0.291%)

         :::::::::::::::::::::::::::::::::::::::::::::::::::::
         ::                     SUMMARY                     ::
         :::::::::::::::::::::::::::::::::::::::::::::::::::::
         :: total energy             -62.112088966656 Eh    ::
         :: gradient norm              0.053361377352 Eh/a0 ::
         :: HOMO-LUMO gap              3.144292513625 eV    ::
         ::.................................................::
         :: SCC energy               -63.173699301000 Eh    ::
         :: -> isotropic ES            0.013718069374 Eh    ::
         :: -> anisotropic ES          0.007640481933 Eh    ::
         :: -> anisotropic XC          0.045849631726 Eh    ::
         :: -> dispersion             -0.048589623944 Eh    ::
         :: repulsion energy           1.061610334345 Eh    ::
         :: add. restraining           0.000000000000 Eh    ::
         :: total charge              -0.000000000000 e     ::
         :::::::::::::::::::::::::::::::::::::::::::::::::::::

      ----------------------------------------------------------- 
     |                   =====================                   |
     |                        A N C O P T                        |
     |                   =====================                   |
     |               Approximate Normal Coordinate               |
     |                Rational Function Optimizer                |
      ----------------------------------------------------------- 
      ----------------------------------------------------------- 
     |                   =====================                   |
     |                        A N C O P T                        |
     |                   =====================                   |
     |               Approximate Normal Coordinate               |
     |                Rational Function Optimizer                |
      ----------------------------------------------------------- 

          ...................................................
          :                      SETUP                      :
          :.................................................:
          :   optimization level            normal          :
          :   max. optcycles                   200          :
          :   ANC micro-cycles                  20          :
          :   degrees of freedom               120          :
          :.................................................:
          :   RF solver                   davidson          :
          :   write xtbopt.log                true          :
          :   linear?                        false          :
          :   energy convergence         0.5000000E-05 Eh   :
          :   grad. convergence          0.1000000E-02 Eh/α :
          :   maxmium RF displ.          1.0000000          :
          :   Hlow (freq-cutoff)         0.1000000E-01      :
          :   Hmax (freq-cutoff)         5.0000000          :
          :   S6 in model hess.         20.0000000          :
          ...................................................

generating ANC from exact Hessian ...
Using Lindh-Hessian (1995)
 Shifting diagonal of input Hessian by    9.7316303610966645E-003
 Lowest  eigenvalues of input Hessian
    0.000000    0.000000    0.000000    0.000000    0.000000    0.000000
    0.010000    0.010352    0.010417    0.010867    0.011053    0.011892
    0.011961    0.012087    0.012313    0.016435    0.017442    0.020684
 Highest eigenvalues
    1.924799    1.934727    1.936906    1.962275    2.004382    2.090961


........................................................................
.............................. CYCLE    1 ..............................
........................................................................

 iter      E             dE          RMSdq      gap      omega  full diag
   1    -63.1739072 -0.631739E+02  0.973E-05    3.14       0.0  T
   2    -63.1739072 -0.150429E-09  0.635E-05    3.14     242.9  T
   3    -63.1739072 -0.154131E-09  0.297E-05    3.14     520.3  T
     SCC iter.                  ...        0 min,  0.007 sec
     gradient                   ...        0 min,  0.025 sec
 * total energy  :   -62.1120890 Eh     change       -0.6756480E-09 Eh
   gradient norm :     0.0533604 Eh/α   predicted     0.0000000E+00 (-100.00%)
   displ. norm   :     0.3116024 α      lambda       -0.9128697E-02
   maximum displ.:     0.1200746 α      in ANC's #16, #10, #17, ...

........................................................................
.............................. CYCLE    2 ..............................
........................................................................

 iter      E             dE          RMSdq      gap      omega  full diag
   1    -63.2374603 -0.632375E+02  0.155E-01    3.17       0.0  T
   2    -63.2374825 -0.221922E-04  0.935E-02    3.16       1.0  T
   3    -63.2374199  0.626836E-04  0.384E-02    3.17       1.0  T
   4    -63.2374937 -0.738235E-04  0.679E-03    3.17       2.3  T
   5    -63.2374956 -0.195826E-05  0.230E-03    3.17       6.7  T
   6    -63.2374957 -0.316219E-07  0.119E-03    3.17      12.9  T
   7    -63.2374957 -0.295823E-07  0.309E-04    3.17      49.9  T
   8    -63.2374957 -0.161418E-08  0.120E-04    3.17     128.6  T
     SCC iter.                  ...        0 min,  0.022 sec
     gradient                   ...        0 min,  0.025 sec
 * total energy  :   -62.1180322 Eh     change       -0.5943213E-02 Eh
   gradient norm :     0.0155618 Eh/α   predicted    -0.5008116E-02 ( -15.73%)
   displ. norm   :     0.3017017 α      lambda       -0.2101078E-02
   maximum displ.:     0.1193722 α      in ANC's #16, #10, #17, ...

........................................................................
.............................. CYCLE    3 ..............................
........................................................................

 iter      E             dE          RMSdq      gap      omega  full diag
   1    -63.2650527 -0.632651E+02  0.840E-02    3.18       0.0  T
   2    -63.2650664 -0.136962E-04  0.514E-02    3.17       1.0  T
   3    -63.2650500  0.164791E-04  0.230E-02    3.18       1.0  T
   4    -63.2650715 -0.215212E-04  0.512E-03    3.18       3.0  T
   5    -63.2650726 -0.115607E-05  0.128E-03    3.17      12.1  T
   6    -63.2650727 -0.238483E-07  0.674E-04    3.17      22.9  T
   7    -63.2650727 -0.648259E-08  0.187E-04    3.17      82.6  T
     SCC iter.                  ...        0 min,  0.015 sec
     gradient                   ...        0 min,  0.025 sec
 * total energy  :   -62.1193700 Eh     change       -0.1337787E-02 Eh
   gradient norm :     0.0062362 Eh/α   predicted    -0.1147025E-02 ( -14.26%)
   displ. norm   :     0.2585151 α      lambda       -0.6782452E-03
   maximum displ.:     0.1151275 α      in ANC's #8, #10, #7, ...

........................................................................
.............................. CYCLE    4 ..............................
........................................................................

 iter      E             dE          RMSdq      gap      omega  full diag
   1    -63.2697141 -0.632697E+02  0.669E-02    3.18       0.0  T
   2    -63.2697178 -0.368174E-05  0.400E-02    3.17       1.0  T
   3    -63.2697097  0.809800E-05  0.138E-02    3.18       1.1  T
   4    -63.2697191 -0.946061E-05  0.241E-03    3.18       6.4  T
   5    -63.2697194 -0.239984E-06  0.680E-04    3.18      22.7  T
   6    -63.2697194 -0.401922E-08  0.379E-04    3.18      40.7  T
     SCC iter.                  ...        0 min,  0.013 sec
     gradient                   ...        0 min,  0.025 sec
 * total energy  :   -62.1198577 Eh     change       -0.4877350E-03 Eh
   gradient norm :     0.0054636 Eh/α   predicted    -0.3620810E-03 ( -25.76%)
   displ. norm   :     0.2910041 α      lambda       -0.4524600E-03
   maximum displ.:     0.1605217 α      in ANC's #8, #7, #9, ...

........................................................................
.............................. CYCLE    5 ..............................
........................................................................

 iter      E             dE          RMSdq      gap      omega  full diag
   1    -63.2677780 -0.632678E+02  0.833E-02    3.17       0.0  T
   2    -63.2677793 -0.130256E-05  0.489E-02    3.17       1.0  T
   3    -63.2677767  0.260593E-05  0.819E-03    3.17       1.9  T
   4    -63.2677799 -0.315978E-05  0.156E-03    3.17       9.9  T
   5    -63.2677799 -0.393648E-07  0.741E-04    3.17      20.8  T
   6    -63.2677799  0.110603E-09  0.280E-04    3.17      55.2  T
     SCC iter.                  ...        0 min,  0.013 sec
     gradient                   ...        0 min,  0.025 sec
 * total energy  :   -62.1201666 Eh     change       -0.3089394E-03 Eh
   gradient norm :     0.0038049 Eh/α   predicted    -0.2453910E-03 ( -20.57%)
   displ. norm   :     0.2313085 α      lambda       -0.2216953E-03
   maximum displ.:     0.1381131 α      in ANC's #8, #7, #3, ...

........................................................................
.............................. CYCLE    6 ..............................
........................................................................

 iter      E             dE          RMSdq      gap      omega  full diag
   1    -63.2650809 -0.632651E+02  0.717E-02    3.16       0.0  T
   2    -63.2650815 -0.524236E-06  0.419E-02    3.16       1.0  T
   3    -63.2650812  0.226067E-06  0.327E-03    3.16       4.7  T
   4    -63.2650817 -0.437866E-06  0.108E-03    3.16      14.3  T
   5    -63.2650817 -0.869849E-08  0.440E-04    3.16      35.1  T
   6    -63.2650817 -0.115007E-08  0.124E-04    3.16     124.5  T
     SCC iter.                  ...        0 min,  0.013 sec
     gradient                   ...        0 min,  0.028 sec
 * total energy  :   -62.1203361 Eh     change       -0.1694447E-03 Eh
   gradient norm :     0.0035013 Eh/α   predicted    -0.1167852E-03 ( -31.08%)
   displ. norm   :     0.2496207 α      lambda       -0.2099667E-03
   maximum displ.:     0.1427121 α      in ANC's #8, #7, #3, ...

........................................................................
.............................. CYCLE    7 ..............................
........................................................................

 iter      E             dE          RMSdq      gap      omega  full diag
   1    -63.2631857 -0.632632E+02  0.825E-02    3.15       0.0  T
   2    -63.2631867 -0.105426E-05  0.482E-02    3.15       1.0  T
   3    -63.2631861  0.648882E-06  0.467E-03    3.15       3.3  T
   4    -63.2631870 -0.962622E-06  0.146E-03    3.15      10.6  T
   5    -63.2631871 -0.391637E-07  0.651E-04    3.15      23.7  T
   6    -63.2631871 -0.879353E-09  0.199E-04    3.15      77.6  T
     SCC iter.                  ...        0 min,  0.013 sec
     gradient                   ...        0 min,  0.025 sec
 * total energy  :   -62.1204990 Eh     change       -0.1629346E-03 Eh
   gradient norm :     0.0035139 Eh/α   predicted    -0.1115264E-03 ( -31.55%)
   displ. norm   :     0.2830186 α      lambda       -0.1935662E-03
   maximum displ.:     0.1564813 α      in ANC's #8, #7, #3, ...

........................................................................
.............................. CYCLE    8 ..............................
........................................................................

 iter      E             dE          RMSdq      gap      omega  full diag
   1    -63.2630222 -0.632630E+02  0.972E-02    3.14       0.0  T
   2    -63.2630232 -0.106378E-05  0.569E-02    3.14       1.0  T
   3    -63.2630223  0.914626E-06  0.526E-03    3.14       2.9  T
   4    -63.2630236 -0.126469E-05  0.153E-03    3.14      10.1  T
   5    -63.2630236 -0.524934E-07  0.692E-04    3.14      22.3  T
   6    -63.2630236 -0.407823E-09  0.264E-04    3.14      58.5  T
     SCC iter.                  ...        0 min,  0.013 sec
     gradient                   ...        0 min,  0.034 sec
 * total energy  :   -62.1206371 Eh     change       -0.1380947E-03 Eh
   gradient norm :     0.0030597 Eh/α   predicted    -0.1045388E-03 ( -24.30%)
   displ. norm   :     0.2227981 α      lambda       -0.1060128E-03
   maximum displ.:     0.1174507 α      in ANC's #8, #3, #7, ...

........................................................................
.............................. CYCLE    9 ..............................
........................................................................

 iter      E             dE          RMSdq      gap      omega  full diag
   1    -63.2644406 -0.632644E+02  0.788E-02    3.13       0.0  T
   2    -63.2644410 -0.471410E-06  0.462E-02    3.13       1.0  T
   3    -63.2644397  0.136987E-05  0.526E-03    3.13       2.9  T
   4    -63.2644413 -0.166982E-05  0.982E-04    3.13      15.7  T
   5    -63.2644413 -0.730423E-08  0.483E-04    3.13      31.9  T
   6    -63.2644413 -0.294507E-08  0.141E-04    3.13     109.4  T
     SCC iter.                  ...        0 min,  0.013 sec
     gradient                   ...        0 min,  0.025 sec
 * total energy  :   -62.1207106 Eh     change       -0.7350008E-04 Eh
   gradient norm :     0.0021448 Eh/α   predicted    -0.5564211E-04 ( -24.30%)
   displ. norm   :     0.1547698 α      lambda       -0.5559755E-04
   maximum displ.:     0.0744061 α      in ANC's #3, #8, #2, ...

........................................................................
.............................. CYCLE   10 ..............................
........................................................................

 iter      E             dE          RMSdq      gap      omega  full diag
   1    -63.2661557 -0.632662E+02  0.564E-02    3.12       0.0  T
   2    -63.2661560 -0.272927E-06  0.331E-02    3.12       1.0  T
   3    -63.2661548  0.121512E-05  0.475E-03    3.12       3.2  T
   4    -63.2661562 -0.140717E-05  0.655E-04    3.12      23.6  T
   5    -63.2661562 -0.781541E-08  0.348E-04    3.12      44.3  T
   6    -63.2661562 -0.828493E-09  0.121E-04    3.12     127.9  T
     SCC iter.                  ...        0 min,  0.013 sec
     gradient                   ...        0 min,  0.035 sec
 * total energy  :   -62.1207506 Eh     change       -0.4000820E-04 Eh
   gradient norm :     0.0016076 Eh/α   predicted    -0.2846532E-04 ( -28.85%)
   displ. norm   :     0.1902746 α      lambda       -0.3660070E-04
   maximum displ.:     0.0937027 α      in ANC's #3, #9, #8, ...

........................................................................
.............................. CYCLE   11 ..............................
........................................................................

 iter      E             dE          RMSdq      gap      omega  full diag
   1    -63.2672268 -0.632672E+02  0.690E-02    3.11       0.0  T
   2    -63.2672273 -0.434876E-06  0.405E-02    3.11       1.0  T
   3    -63.2672257  0.160667E-05  0.550E-03    3.11       2.8  T
   4    -63.2672275 -0.186375E-05  0.813E-04    3.11      19.0  T
   5    -63.2672275 -0.168159E-07  0.395E-04    3.11      39.0  T
   6    -63.2672275 -0.395872E-09  0.175E-04    3.11      88.1  T
     SCC iter.                  ...        0 min,  0.013 sec
     gradient                   ...        0 min,  0.025 sec
 * total energy  :   -62.1207866 Eh     change       -0.3597547E-04 Eh
   gradient norm :     0.0017376 Eh/α   predicted    -0.1859682E-04 ( -48.31%)
   displ. norm   :     0.0773996 α      lambda       -0.1923904E-04
   maximum displ.:     0.0587945 α      in ANC's #9, #3, #6, ...

........................................................................
.............................. CYCLE   12 ..............................
........................................................................

 iter      E             dE          RMSdq      gap      omega  full diag
   1    -63.2669249 -0.632669E+02  0.273E-02    3.10       0.0  T
   2    -63.2669249 -0.704948E-07  0.160E-02    3.11       1.0  T
   3    -63.2669249  0.382879E-07  0.124E-03    3.10      12.5  T
   4    -63.2669250 -0.692616E-07  0.343E-04    3.11      45.0  T
   5    -63.2669250 -0.745921E-09  0.155E-04    3.11      99.8  T
     SCC iter.                  ...        0 min,  0.027 sec
     gradient                   ...        0 min,  0.025 sec
 * total energy  :   -62.1208093 Eh     change       -0.2274064E-04 Eh
   gradient norm :     0.0012599 Eh/α   predicted    -0.9647855E-05 ( -57.57%)
   displ. norm   :     0.0810193 α      lambda       -0.1708436E-04
   maximum displ.:     0.0641618 α      in ANC's #9, #3, #7, ...

........................................................................
.............................. CYCLE   13 ..............................
........................................................................

 iter      E             dE          RMSdq      gap      omega  full diag
   1    -63.2660215 -0.632660E+02  0.275E-02    3.10       0.0  T
   2    -63.2660216 -0.129876E-06  0.161E-02    3.10       1.0  T
   3    -63.2660213  0.300930E-06  0.265E-03    3.10       5.8  T
   4    -63.2660217 -0.363742E-06  0.356E-04    3.10      43.3  T
   5    -63.2660217 -0.194107E-08  0.193E-04    3.10      79.9  T
     SCC iter.                  ...        0 min,  0.011 sec
     gradient                   ...        0 min,  0.025 sec
 * total energy  :   -62.1208257 Eh     change       -0.1640753E-04 Eh
   gradient norm :     0.0008124 Eh/α   predicted    -0.8567898E-05 ( -47.78%)
   displ. norm   :     0.0539397 α      lambda       -0.6356255E-05
   maximum displ.:     0.0422824 α      in ANC's #9, #3, #7, ...

........................................................................
.............................. CYCLE   14 ..............................
........................................................................

 iter      E             dE          RMSdq      gap      omega  full diag
   1    -63.2658872 -0.632659E+02  0.181E-02    3.10       0.0  T
   2    -63.2658872 -0.741729E-07  0.106E-02    3.10       1.5  T
   3    -63.2658872  0.793723E-07  0.155E-03    3.10      10.0  T
   4    -63.2658873 -0.106642E-06  0.351E-04    3.10      44.0  T
   5    -63.2658873 -0.175206E-08  0.165E-04    3.10      93.4  T
     SCC iter.                  ...        0 min,  0.011 sec
     gradient                   ...        0 min,  0.025 sec
 * total energy  :   -62.1208316 Eh     change       -0.5834815E-05 Eh
   gradient norm :     0.0004326 Eh/α   predicted    -0.3185490E-05 ( -45.41%)
   displ. norm   :     0.0307149 α      lambda       -0.1703684E-05
   maximum displ.:     0.0217040 α      in ANC's #9, #3, #1, ...

........................................................................
.............................. CYCLE   15 ..............................
........................................................................

 iter      E             dE          RMSdq      gap      omega  full diag
   1    -63.2660426 -0.632660E+02  0.977E-03    3.10       0.0  T
   2    -63.2660426 -0.922515E-08  0.573E-03    3.10       2.7  T
   3    -63.2660426  0.122882E-07  0.594E-04    3.10      26.0  T
   4    -63.2660426 -0.170759E-07  0.127E-04    3.10     121.5  T
     SCC iter.                  ...        0 min,  0.009 sec
     gradient                   ...        0 min,  0.047 sec
 * total energy  :   -62.1208335 Eh     change       -0.1931689E-05 Eh
   gradient norm :     0.0002046 Eh/α   predicted    -0.8550532E-06 ( -55.74%)
   displ. norm   :     0.0329918 α      lambda       -0.1134798E-05
   maximum displ.:     0.0211832 α      in ANC's #3, #9, #1, ...

   *** GEOMETRY OPTIMIZATION CONVERGED AFTER 15 ITERATIONS ***

------------------------------------------------------------------------
 total energy gain   :        -0.0087445 Eh       -5.4873 kcal/mol
 total RMSD          :         0.3205883 a0        0.1696 Å
 total power (kW/mol):        -1.5305872 (step)  -29.0828 (real)
------------------------------------------------------------------------

 ANCopt (total)                0 d,  0 h,  0 min,  0.789 sec
 optimizer setup                ...        0 min,  0.000 sec (  0.010%)
 model hessian                  ...        0 min,  0.011 sec (  1.427%)
 ANC generation                 ...        0 min,  0.002 sec (  0.194%)
 coordinate transformation      ...        0 min,  0.000 sec (  0.013%)
 single point calculation       ...        0 min,  0.771 sec ( 97.705%)
 optimization log               ...        0 min,  0.004 sec (  0.446%)
 hessian update                 ...        0 min,  0.000 sec (  0.025%)
 rational function              ...        0 min,  0.001 sec (  0.117%)

================
 final structure:
================
42
 xtb: 6.7.1 (edcfbbe)
N           -2.29107854972148       -1.88169711265691        0.23427403288209
C           -1.92881360471902       -0.77196174313733       -0.62041531890981
C           -0.46176912817775       -0.44101819954690       -0.42134391712094
C           -0.04772112274289        0.65001131047546        0.33004498375126
C            1.29870582762753        0.90643434150891        0.50801760849453
C            2.26464440436581        0.07251810180800       -0.04837951455136
C            3.69665685459450        0.34639128654037        0.14207486452218
C            4.58478380946027       -0.68808568453552        0.42658780178298
C            5.93085364875003       -0.42912343659362        0.60600149381836
C            6.41172799616360        0.86494105028476        0.49658706609850
C            5.53754074894896        1.90041655959579        0.21117602532924
C            4.18988209098221        1.64486128273922        0.03887230874796
C            1.84330985224740       -1.02784556691895       -0.79152393589927
C            0.49855864693178       -1.27741462060225       -0.97827787526058
C           -2.82217781745207        0.43154287806950       -0.39879007390373
C           -2.92789313682402        1.38107803828166       -1.40814060710753
C           -3.71450150207534        2.50452971830177       -1.23366137728642
C           -4.40730255148750        2.68922875192420       -0.04857777315466
C           -4.30571906743680        1.74729151616822        0.95990818555489
C           -3.51461119499062        0.62401560622805        0.78847136002916
C           -3.26690798679018       -2.80324441222167       -0.02347144390405
C           -3.31520624485113       -3.61813137845458        1.06942814618524
N           -2.39918277455968       -3.21539140991436        1.98839136722693
C           -1.80894834443368       -2.17714843768777        1.46495905037920
H           -2.06487543568893       -1.11142735808426       -1.65757098095135
H           -0.78092362920769        1.30412405573840        0.77868861197847
H            1.60538294517965        1.75238488297298        1.10540783925999
H            4.21150755201502       -1.69673752627364        0.52900881796579
H            6.60782491948652       -1.23970979494773        0.83334473212866
H            7.46396332738759        1.06586521694575        0.63361141642380
H            5.90825696847555        2.91119881954663        0.12102862333075
H            3.51388100750533        2.45350379166508       -0.19915331650352
H            2.57691540959883       -1.67905449372598       -1.24330880424900
H            0.18783129161898       -2.13311598141032       -1.56133626345085
H           -2.38540548720174        1.23785483980007       -2.33214756234910
H           -3.78894373780130        3.23611999839339       -2.02458607829820
H           -5.02426024794235        3.56491310634956        0.08750799909048
H           -4.84211523039650        1.88519993807861        1.88695361070375
H           -3.43966257181318       -0.10325627294362        1.58399410907935
H           -3.82487669437275       -2.79741124532888       -0.93756771864834
H           -3.94554796001619       -4.46494662321099        1.25277378617517
H           -1.02358328063458       -1.61770379321937        1.93313872061158

 Bond Distances (Angstroems)
 ---------------------------
N1-C2=1.4468         N1-C21=1.3667        N1-C24=1.3544        C2-N1=1.4468         C2-C3=1.5170         C2-C15=1.5151        
C2-H25=1.0997        C3-C2=1.5170         C3-C4=1.3879         C3-C14=1.3900        C4-C3=1.3879         C4-C5=1.3821         
C4-H26=1.0802        C5-C4=1.3821         C5-C6=1.3921         C5-H27=1.0801        C6-C5=1.3921         C6-C7=1.4704         
C6-C13=1.3930        C7-C6=1.4704         C7-C8=1.3928         C7-C12=1.3928        C8-C7=1.3928         C8-C9=1.3824         
C8-H28=1.0804        C9-C8=1.3824         C9-C10=1.3849        C9-H29=1.0803        C10-C9=1.3849        C10-C11=1.3849       
C10-H30=1.0800       C11-C10=1.3849       C11-C12=1.3825       C11-H31=1.0804       C12-C7=1.3928        C12-C11=1.3825       
C12-H32=1.0805       C13-C6=1.3930        C13-C14=1.3804       C13-H33=1.0800       C14-C3=1.3900        C14-C13=1.3804       
C14-H34=1.0811       C15-C2=1.5151        C15-C16=1.3898       C15-C20=1.3878       C16-C15=1.3898       C16-C17=1.3825       
C16-H35=1.0810       C17-C16=1.3825       C17-C18=1.3851       C17-H36=1.0800       C18-C17=1.3851       C18-C19=1.3837       
C18-H37=1.0798       C19-C18=1.3837       C19-C20=1.3846       C19-H38=1.0799       C20-C15=1.3878       C20-C19=1.3846       
C20-H39=1.0805       C21-N1=1.3667        C21-C22=1.3641       C21-H40=1.0710       C22-C21=1.3641       C22-N23=1.3586       
C22-H41=1.0715       N23-C22=1.3586       N23-C24=1.3040       C24-N1=1.3544        C24-N23=1.3040       C24-H42=1.0719       
H25-C2=1.0997        H26-C4=1.0802        H27-C5=1.0801        H28-C8=1.0804        H29-C9=1.0803        H30-C10=1.0800       
H31-C11=1.0804       H32-C12=1.0805       H33-C13=1.0800       H34-C14=1.0811       H35-C16=1.0810       H36-C17=1.0800       
H37-C18=1.0798       H38-C19=1.0799       H39-C20=1.0805       H40-C21=1.0710       H41-C22=1.0715       H42-C24=1.0719       
 C  H  Rav=1.0799 sigma=0.0058  Rmin=1.0710  Rmax=1.0997    18
 C  C  Rav=1.4012 sigma=0.0408  Rmin=1.3641  Rmax=1.5170    22
 N  C  Rav=1.3661 sigma=0.0460  Rmin=1.3040  Rmax=1.4468     5

 selected bond angles (degree)
 --------------------
C21-N1-C2=125.77               C24-N1-C2=127.95               C24-N1-C21=106.17              C3-C2-N1=109.39                
C15-C2-N1=112.04               C15-C2-C3=112.19               H25-C2-N1=106.82               H25-C2-C3=108.10               
H25-C2-C15=108.07              C4-C3-C2=122.07                C14-C3-C2=118.97               C14-C3-C4=118.94               
C5-C4-C3=120.41                H26-C4-C3=119.89               H26-C4-C5=119.70               C6-C5-C4=120.89                
H27-C5-C4=119.55               H27-C5-C6=119.55               C7-C6-C5=120.82                C13-C6-C5=118.46               
C13-C6-C7=120.72               C8-C7-C6=120.61                C12-C7-C6=120.59               C12-C7-C8=118.80               
C9-C8-C7=120.55                H28-C8-C7=119.50               H28-C8-C9=119.93               C10-C9-C8=120.19               
H29-C9-C8=119.80               H29-C9-C10=120.01              C11-C10-C9=119.72              H30-C10-C9=120.14              
H30-C10-C11=120.14             

 selected dihedral angles (degree)
 ---------------------------------
C3-C2-N1-C21=209.17           C3-C2-N1-C24= 33.53           C15-C2-N1-C21= 84.11          C15-C2-N1-C24=268.47          
H25-C2-N1-C21=325.95          H25-C2-N1-C24=150.31          C4-C3-C2-N1=256.87            C4-C3-C2-C15= 21.84           
C4-C3-C2-H25=140.91           C14-C3-C2-N1= 75.07           C14-C3-C2-C15=200.04          C14-C3-C2-H25=319.11          
C5-C4-C3-C2=178.89            C5-C4-C3-C14=  0.69           H26-C4-C3-C2=358.85           H26-C4-C3-C14=180.65          
C6-C5-C4-C3=359.35            C6-C5-C4-H26=179.39           H27-C5-C4-C3=180.74           H27-C5-C4-H26=  0.78          
C7-C6-C5-C4=180.01            C7-C6-C5-H27=358.62           C13-C6-C5-C4=  0.07           C13-C6-C5-H27=178.68          
C8-C7-C6-C5=137.49            C8-C7-C6-C13=317.43           C12-C7-C6-C5=317.37           C12-C7-C6-C13=137.32          
C9-C8-C7-C6=180.03            C9-C8-C7-C12=  0.14           H28-C8-C7-C6=358.65           H28-C8-C7-C12=178.77          
C10-C9-C8-C7=359.63           C10-C9-C8-H28=181.01          H29-C9-C8-C7=179.56           H29-C9-C8-H28=  0.94          
C11-C10-C9-C8=  0.23          C11-C10-C9-H29=180.30         H30-C10-C9-C8=180.21          H30-C10-C9-H29=  0.28         
           -------------------------------------------------
          |                Final Singlepoint                |
           -------------------------------------------------

          ...................................................
          :                      SETUP                      :
          :.................................................:
          :  # basis functions                 114          :
          :  # atomic orbitals                 114          :
          :  # shells                           66          :
          :  # electrons                       116          :
          :  max. iterations                   250          :
          :  Hamiltonian                  GFN2-xTB          :
          :  restarted?                      false          :
          :  GBSA solvation                  false          :
          :  PC potential                    false          :
          :  electronic temp.          300.0000000     K    :
          :  accuracy                    1.0000000          :
          :  -> integral cutoff          0.2500000E+02      :
          :  -> integral neglect         0.1000000E-07      :
          :  -> SCF convergence          0.1000000E-05 Eh   :
          :  -> wf. convergence          0.1000000E-03 e    :
          :  Broyden damping             0.4000000          :
          :  net charge                          0          :
          :  unpaired electrons                  0          :
          ...................................................

 iter      E             dE          RMSdq      gap      omega  full diag
   1    -63.2660426 -0.632660E+02  0.659E-05    3.10       0.0  T
   2    -63.2660426 -0.534612E-10  0.449E-05    3.10     343.5  T
   3    -63.2660426 -0.691713E-10  0.215E-05    3.10     717.0  T

   *** convergence criteria satisfied after 3 iterations ***

         #    Occupation            Energy/Eh            Energy/eV
      -------------------------------------------------------------
         1        2.0000           -0.6779737             -18.4486
       ...           ...                  ...                  ...
        52        2.0000           -0.4140230             -11.2661
        53        2.0000           -0.4099173             -11.1544
        54        2.0000           -0.4081506             -11.1063
        55        2.0000           -0.4070975             -11.0777
        56        2.0000           -0.3918411             -10.6625
        57        2.0000           -0.3788901             -10.3101
        58        2.0000           -0.3673454              -9.9960 (HOMO)
        59                         -0.2534370              -6.8964 (LUMO)
        60                         -0.2340631              -6.3692
        61                         -0.2336129              -6.3569
        62                         -0.2313505              -6.2954
        63                         -0.2262090              -6.1555
       ...                                ...                  ...
       114                          0.6837484              18.6057
      -------------------------------------------------------------
                  HL-Gap            0.1139083 Eh            3.0996 eV
             Fermi-level           -0.3103912 Eh           -8.4462 eV

 SCC (total)                   0 d,  0 h,  0 min,  0.041 sec
 SCC setup                      ...        0 min,  0.000 sec (  0.741%)
 Dispersion                     ...        0 min,  0.000 sec (  0.752%)
 classical contributions        ...        0 min,  0.000 sec (  0.344%)
 integral evaluation            ...        0 min,  0.008 sec ( 18.699%)
 iterations                     ...        0 min,  0.006 sec ( 16.033%)
 molecular gradient             ...        0 min,  0.026 sec ( 63.056%)
 printout                       ...        0 min,  0.000 sec (  0.361%)

         :::::::::::::::::::::::::::::::::::::::::::::::::::::
         ::                     SUMMARY                     ::
         :::::::::::::::::::::::::::::::::::::::::::::::::::::
         :: total energy             -62.120833515106 Eh    ::
         :: gradient norm              0.000204590987 Eh/a0 ::
         :: HOMO-LUMO gap              3.099603078605 eV    ::
         ::.................................................::
         :: SCC energy               -63.265838074752 Eh    ::
         :: -> isotropic ES            0.013986930356 Eh    ::
         :: -> anisotropic ES          0.006968231868 Eh    ::
         :: -> anisotropic XC          0.043566462394 Eh    ::
         :: -> dispersion             -0.049968423249 Eh    ::
         :: repulsion energy           1.145004559647 Eh    ::
         :: add. restraining           0.000000000000 Eh    ::
         :: total charge               0.000000000000 e     ::
         :::::::::::::::::::::::::::::::::::::::::::::::::::::

           -------------------------------------------------
          |                Property Printout                |
           -------------------------------------------------

    * Orbital Energies and Occupations

         #    Occupation            Energy/Eh            Energy/eV
      -------------------------------------------------------------
         1        2.0000           -0.6779737             -18.4486
       ...           ...                  ...                  ...
        46        2.0000           -0.4344312             -11.8215
        47        2.0000           -0.4317420             -11.7483
        48        2.0000           -0.4285267             -11.6608
        49        2.0000           -0.4243651             -11.5476
        50        2.0000           -0.4173048             -11.3554
        51        2.0000           -0.4153241             -11.3015
        52        2.0000           -0.4140230             -11.2661
        53        2.0000           -0.4099173             -11.1544
        54        2.0000           -0.4081506             -11.1063
        55        2.0000           -0.4070975             -11.0777
        56        2.0000           -0.3918411             -10.6625
        57        2.0000           -0.3788901             -10.3101
        58        2.0000           -0.3673454              -9.9960 (HOMO)
        59                         -0.2534370              -6.8964 (LUMO)
        60                         -0.2340631              -6.3692
        61                         -0.2336129              -6.3569
        62                         -0.2313505              -6.2954
        63                         -0.2262090              -6.1555
        64                         -0.2076121              -5.6494
        65                         -0.1940240              -5.2797
        66                         -0.1556335              -4.2350
        67                         -0.1138041              -3.0968
        68                         -0.1043547              -2.8396
        69                         -0.0825313              -2.2458
       ...                                ...                  ...
       114                          0.6837484              18.6057
      -------------------------------------------------------------
                  HL-Gap            0.1139083 Eh            3.0996 eV
             Fermi-level           -0.3103912 Eh           -8.4462 eV

     #   Z          covCN         q      C6AA      α(0)
     1   7 N        2.864    -0.022    21.667     6.913
     2   6 C        3.801     0.033    20.025     6.371
     3   6 C        2.975     0.002    27.972     8.675
     4   6 C        2.920    -0.034    28.849     8.808
     5   6 C        2.925    -0.033    28.830     8.805
     6   6 C        2.977     0.012    27.750     8.641
     7   6 C        2.977     0.010    27.790     8.647
     8   6 C        2.925    -0.033    28.821     8.804
     9   6 C        2.919    -0.029    28.718     8.788
    10   6 C        2.920    -0.030    28.749     8.793
    11   6 C        2.918    -0.029    28.724     8.789
    12   6 C        2.925    -0.033    28.830     8.805
    13   6 C        2.924    -0.033    28.817     8.803
    14   6 C        2.923    -0.035    28.862     8.810
    15   6 C        2.973     0.005    27.909     8.666
    16   6 C        2.925    -0.036    28.893     8.815
    17   6 C        2.919    -0.028    28.701     8.785
    18   6 C        2.920    -0.030    28.750     8.793
    19   6 C        2.920    -0.028    28.697     8.785
    20   6 C        2.922    -0.033    28.818     8.803
    21   6 C        3.049    -0.026    28.612     8.773
    22   6 C        3.162     0.016    27.328     8.545
    23   7 N        1.915    -0.272    27.916     7.834
    24   6 C        3.176     0.083    25.757     8.287
    25   1 H        0.923     0.050     2.314     2.379
    26   1 H        0.926     0.035     2.516     2.481
    27   1 H        0.926     0.037     2.486     2.466
    28   1 H        0.926     0.033     2.543     2.494
    29   1 H        0.926     0.032     2.559     2.502
    30   1 H        0.926     0.031     2.567     2.506
    31   1 H        0.926     0.031     2.571     2.507
    32   1 H        0.926     0.031     2.570     2.507
    33   1 H        0.926     0.038     2.475     2.460
    34   1 H        0.926     0.032     2.553     2.499
    35   1 H        0.926     0.029     2.606     2.524
    36   1 H        0.926     0.034     2.525     2.485
    37   1 H        0.926     0.034     2.525     2.485
    38   1 H        0.926     0.036     2.506     2.475
    39   1 H        0.926     0.038     2.478     2.462
    40   1 H        0.926     0.024     2.679     2.560
    41   1 H        0.926     0.029     2.598     2.521
    42   1 H        0.926     0.028     2.616     2.529

 Mol. C6AA /au·bohr⁶  :      23987.126176
 Mol. C8AA /au·bohr⁸  :     595546.639354
 Mol. α(0) /au        :        249.379271


Wiberg/Mayer (AO) data.
largest (>0.10) Wiberg bond orders for each atom

 ---------------------------------------------------------------------------
     #   Z sym  total        # sym  WBO       # sym  WBO       # sym  WBO
 ---------------------------------------------------------------------------
     1   7 N    3.635 --    24 C    1.248    21 C    1.201     2 C    0.968
                            23 N    0.102
     2   6 C    3.972 --    15 C    0.980     3 C    0.972     1 N    0.968
                            25 H    0.949
     3   6 C    3.981 --     4 C    1.413    14 C    1.405     2 C    0.972
                             6 C    0.103
     4   6 C    3.991 --     5 C    1.450     3 C    1.413    26 H    0.966
                            13 C    0.106
     5   6 C    3.991 --     4 C    1.450     6 C    1.391    27 H    0.968
                            14 C    0.107
     6   6 C    3.988 --     5 C    1.391    13 C    1.384     7 C    1.046
                             3 C    0.103
     7   6 C    3.989 --     8 C    1.390    12 C    1.390     6 C    1.046
                            10 C    0.106
     8   6 C    3.991 --     9 C    1.451     7 C    1.390    28 H    0.969
                            11 C    0.109
     9   6 C    3.992 --     8 C    1.451    10 C    1.435    29 H    0.971
                            12 C    0.109
    10   6 C    3.987 --     9 C    1.435    11 C    1.435    30 H    0.972
                             7 C    0.106
    11   6 C    3.992 --    12 C    1.451    10 C    1.435    31 H    0.971
                             8 C    0.109
    12   6 C    3.991 --    11 C    1.451     7 C    1.390    32 H    0.969
                             9 C    0.109
    13   6 C    3.990 --    14 C    1.459     6 C    1.384    33 H    0.968
                             4 C    0.106
    14   6 C    3.991 --    13 C    1.459     3 C    1.405    34 H    0.969
                             5 C    0.107
    15   6 C    3.987 --    20 C    1.419    16 C    1.407     2 C    0.980
                            18 C    0.110
    16   6 C    3.991 --    17 C    1.450    15 C    1.407    35 H    0.970
                            19 C    0.112
    17   6 C    3.991 --    16 C    1.450    18 C    1.434    36 H    0.971
                            20 C    0.111
    18   6 C    3.992 --    19 C    1.444    17 C    1.434    37 H    0.971
                            15 C    0.110
    19   6 C    3.992 --    18 C    1.444    20 C    1.438    38 H    0.971
                            16 C    0.112
    20   6 C    3.991 --    19 C    1.438    15 C    1.419    39 H    0.967
                            17 C    0.111
    21   6 C    3.940 --    22 C    1.581     1 N    1.201    40 H    0.971
                            24 C    0.113
    22   6 C    3.975 --    21 C    1.581    23 N    1.299    41 H    0.971
    23   7 N    3.024 --    24 C    1.546    22 C    1.299     1 N    0.102
    24   6 C    3.958 --    23 N    1.546     1 N    1.248    42 H    0.964
                            21 C    0.113
    25   1 H    0.997 --     2 C    0.949
    26   1 H    0.998 --     4 C    0.966
    27   1 H    0.998 --     5 C    0.968
    28   1 H    0.999 --     8 C    0.969
    29   1 H    0.998 --     9 C    0.971
    30   1 H    0.999 --    10 C    0.972
    31   1 H    0.998 --    11 C    0.971
    32   1 H    0.999 --    12 C    0.969
    33   1 H    0.998 --    13 C    0.968
    34   1 H    0.998 --    14 C    0.969
    35   1 H    0.999 --    16 C    0.970
    36   1 H    0.998 --    17 C    0.971
    37   1 H    0.998 --    18 C    0.971
    38   1 H    0.998 --    19 C    0.971
    39   1 H    0.999 --    20 C    0.967
    40   1 H    0.999 --    21 C    0.971
    41   1 H    0.998 --    22 C    0.971
    42   1 H    0.999 --    24 C    0.964
 ---------------------------------------------------------------------------

Topologies differ in total number of bonds
Writing topology from bond orders to xtbtopo.mol

molecular dipole:
                 x           y           z       tot (Debye)
 q only:        0.408       0.954      -0.768
   full:        0.351       1.167      -1.188       4.325
molecular quadrupole (traceless):
                xx          xy          yy          xz          yz          zz
 q only:        6.187      -7.258      -4.266       5.297       7.555      -1.921
  q+dip:        9.648      -9.629      -3.421       7.882      12.724      -6.228
   full:        9.026      -8.726      -5.022       8.067      12.721      -4.004

           -------------------------------------------------
          |                Geometry Summary                 |
           -------------------------------------------------

      molecular mass/u    :      310.3925297
   center of mass at/Å    :       -0.0640187      -0.1238001       0.1442507
  moments of inertia/u·Å² :        0.1169917E+04   0.4009300E+04   0.4808053E+04
rotational constants/cm⁻¹ :        0.1440926E-01   0.4204633E-02   0.3506125E-02

 * 42 selected distances

     #   Z          #   Z                                           value/Å
     1   7 N        2   6 C                                       1.4468043 (max)
     3   6 C        4   6 C                                       1.3879362
     4   6 C        5   6 C                                       1.3821335
     5   6 C        6   6 C                                       1.3921321
     7   6 C        8   6 C                                       1.3927886
     8   6 C        9   6 C                                       1.3824453
     9   6 C       10   6 C                                       1.3848519
    10   6 C       11   6 C                                       1.3848728
     7   6 C       12   6 C                                       1.3928197
    11   6 C       12   6 C                                       1.3824548
     6   6 C       13   6 C                                       1.3930495
     3   6 C       14   6 C                                       1.3899512
    13   6 C       14   6 C                                       1.3804050
    15   6 C       16   6 C                                       1.3898135
    16   6 C       17   6 C                                       1.3825121
    17   6 C       18   6 C                                       1.3851031
    18   6 C       19   6 C                                       1.3836941
    15   6 C       20   6 C                                       1.3878400
    19   6 C       20   6 C                                       1.3845546
     1   7 N       21   6 C                                       1.3667207
    21   6 C       22   6 C                                       1.3641127
    22   6 C       23   7 N                                       1.3585994
     1   7 N       24   6 C                                       1.3543733
    23   7 N       24   6 C                                       1.3039582
     2   6 C       25   1 H                                       1.0997463
     4   6 C       26   1 H                                       1.0801531
     5   6 C       27   1 H                                       1.0800734
     8   6 C       28   1 H                                       1.0803722
     9   6 C       29   1 H                                       1.0802895
    10   6 C       30   1 H                                       1.0799748
    11   6 C       31   1 H                                       1.0803879
    12   6 C       32   1 H                                       1.0805261
    13   6 C       33   1 H                                       1.0799815
    14   6 C       34   1 H                                       1.0810798
    16   6 C       35   1 H                                       1.0810156
    17   6 C       36   1 H                                       1.0799667
    18   6 C       37   1 H                                       1.0798053
    19   6 C       38   1 H                                       1.0798856
    20   6 C       39   1 H                                       1.0804621
    21   6 C       40   1 H                                       1.0709507 (min)
    22   6 C       41   1 H                                       1.0714675
    24   6 C       42   1 H                                       1.0718997

 * 3 distinct bonds (by element types)

   Z      Z             #   av. dist./Å        max./Å        min./Å
   1 H    6 C          18     1.0798910     1.0997463     1.0709507
   6 C    6 C          19     1.3854458     1.3930495     1.3641127
   6 C    7 N           5     1.3660912     1.4468043     1.3039582


optimized geometry written to: xtbopt.xyz


           -------------------------------------------------
          | TOTAL ENERGY              -62.120833515106 Eh   |
          | GRADIENT NORM               0.000204590987 Eh/α |
          | HOMO-LUMO GAP               3.099603078605 eV   |
           -------------------------------------------------

------------------------------------------------------------------------
 * finished run on 2025/05/15 at 16:36:05.739     
------------------------------------------------------------------------
 total:
 * wall-time:     0 d,  0 h,  0 min,  0.909 sec
 *  cpu-time:     0 d,  0 h,  0 min,  0.814 sec
 * ratio c/w:     0.895 speedup
 SCF:
 * wall-time:     0 d,  0 h,  0 min,  0.060 sec
 *  cpu-time:     0 d,  0 h,  0 min,  0.059 sec
 * ratio c/w:     0.995 speedup
 ANC optimizer:
 * wall-time:     0 d,  0 h,  0 min,  0.835 sec
 *  cpu-time:     0 d,  0 h,  0 min,  0.742 sec
 * ratio c/w:     0.889 speedup



----- Single-point -----
      -----------------------------------------------------------      
     |                   =====================                   |     
     |                           x T B                           |     
     |                   =====================                   |     
     |                         S. Grimme                         |     
     |          Mulliken Center for Theoretical Chemistry        |     
     |                    University of Bonn                     |     
      -----------------------------------------------------------      

   * xtb version 6.7.1 (edcfbbe) compiled by 'conda@3ef47c1a292c' on 2024-11-25

   xtb is free software: you can redistribute it and/or modify it under
   the terms of the GNU Lesser General Public License as published by
   the Free Software Foundation, either version 3 of the License, or
   (at your option) any later version.
   
   xtb is distributed in the hope that it will be useful,
   but WITHOUT ANY WARRANTY; without even the implied warranty of
   MERCHANTABILITY or FITNESS FOR A PARTICULAR PURPOSE.  See the
   GNU Lesser General Public License for more details.
   
   Cite this work as:
   * C. Bannwarth, E. Caldeweyher, S. Ehlert, A. Hansen, P. Pracht,
     J. Seibert, S. Spicher, S. Grimme, WIREs Comput. Mol. Sci., 2020, 11,
     e01493. DOI: 10.1002/wcms.1493
   
   for GFN2-xTB:
   * C. Bannwarth, S. Ehlert and S. Grimme., J. Chem. Theory Comput., 2019,
     15, 1652-1671. DOI: 10.1021/acs.jctc.8b01176
   for GFN1-xTB:
   * S. Grimme, C. Bannwarth, P. Shushkov, J. Chem. Theory Comput., 2017,
     13, 1989-2009. DOI: 10.1021/acs.jctc.7b00118
   for GFN0-xTB:
   * P. Pracht, E. Caldeweyher, S. Ehlert, S. Grimme, ChemRxiv, 2019, preprint.
     DOI: 10.26434/chemrxiv.8326202.v1
   for GFN-FF:
   * S. Spicher and S. Grimme, Angew. Chem. Int. Ed., 2020, 59, 15665-15673.
     DOI: 10.1002/anie.202004239
   
   for ALPB and GBSA implicit solvation:
   * S. Ehlert, M. Stahn, S. Spicher, S. Grimme, J. Chem. Theory Comput.,
     2021, 17, 4250-4261. DOI: 10.1021/acs.jctc.1c00471
   
   for ddCOSMO and CPCM-X implicit solvation:
   * M. Stahn, S. Ehlert, S. Grimme, J. Phys. Chem. A,
     2023, XX, XXXX-XXXX. DOI: 10.1021/acs.jpca.3c04382
   
   for DFT-D4:
   * E. Caldeweyher, C. Bannwarth and S. Grimme, J. Chem. Phys., 2017,
     147, 034112. DOI: 10.1063/1.4993215
   * E. Caldeweyher, S. Ehlert, A. Hansen, H. Neugebauer, S. Spicher,
     C. Bannwarth and S. Grimme, J. Chem. Phys., 2019, 150, 154122.
     DOI: 10.1063/1.5090222
   * E. Caldeweyher, J.-M. Mewes, S. Ehlert and S. Grimme, Phys. Chem. Chem. Phys.
     2020, 22, 8499-8512. DOI: 10.1039/D0CP00502A
   
   for sTDA-xTB:
   * S. Grimme and C. Bannwarth, J. Chem. Phys., 2016, 145, 054103.
     DOI: 10.1063/1.4959605
   
   in the mass-spec context:
   * V. Asgeirsson, C. Bauer and S. Grimme, Chem. Sci., 2017, 8, 4879.
     DOI: 10.1039/c7sc00601b
   * J. Koopman and S. Grimme, ACS Omega 2019, 4, 12, 15120-15133.
     DOI: 10.1021/acsomega.9b02011
   
   for metadynamics refer to:
   * S. Grimme, J. Chem. Theory Comput., 2019, 155, 2847-2862
     DOI: 10.1021/acs.jctc.9b00143
   
   for SPH calculations refer to:
   * S. Spicher and S. Grimme, J. Chem. Theory Comput., 2021, 17, 1701-1714
     DOI: 10.1021/acs.jctc.0c01306
   
   for ONIOM refer to:
   * C. Plett, A. Katbashev, S. Ehlert, S. Grimme, M. Bursch,
     Phys. Chem. Chem. Phys., 2023, 25, 17860-17868. DOI: 10.1039/D3CP02178E
   
   for DIPRO refer to:
   * J. Kohn, N. Gildemeister, S. Grimme, D. Fazzi, A. Hansen,
     J. Chem. Phys., 2023, just accepted.
   
   for PTB refer to:
   * S. Grimme, M. Mueller, A. Hansen, J. Chem. Phys., 2023, 158, 124111.
     DOI: 10.1063/5.0137838
   
   with help from (in alphabetical order)
   P. Atkinson, C. Bannwarth, F. Bohle, G. Brandenburg, E. Caldeweyher
   M. Checinski, S. Dohm, S. Ehlert, S. Ehrlich, I. Gerasimov, C. Hölzer
   A. Katbashev, J. Kohn, J. Koopman, C. Lavigne, S. Lehtola, F. März, M. Müller,
   F. Musil, H. Neugebauer, J. Pisarek, C. Plett, P. Pracht, F. Pultar,
   J. Seibert, P. Shushkov, S. Spicher, M. Stahn, M. Steiner, T. Strunk,
   J. Stückrath, T. Rose, and J. Unsleber
   
 * started run on 2025/05/15 at 16:36:05.752     
   ID    Z sym.   atoms
    1    7 N      1, 23
    2    6 C      2-22, 24
    3    1 H      25-42

           -------------------------------------------------
          |                Calculation Setup                |
           -------------------------------------------------

          program call               : xtb /rds/general/user/hgt20/home/callum/QDESCP/Bifonazole_rdkit_conf_2/Bifonazole_rdkit_conf_2.xyz --acc 1 --gfn 2 --chrg 0 --uhf 0 --etemp 300 --input /rds/general/user/hgt20/home/callum/QDESCP/Bifonazole_rdkit_conf_2/Bifonazole_rdkit_conf_2_xtb.inp -P 1
          hostname                   : login-c
          coordinate file            : /rds/general/user/hgt20/home/callum/QDESCP/Bifonazole_rdkit_conf_2/Bifonazole_rdkit_conf_2.xyz
          omp threads                :                     1


           -------------------------------------------------
          |                 G F N 2 - x T B                 |
           -------------------------------------------------

        Reference                      10.1021/acs.jctc.8b01176
      * Hamiltonian:
        H0-scaling (s, p, d)           1.850000    2.230000    2.230000
        zeta-weighting                 0.500000
      * Dispersion:
        s8                             2.700000
        a1                             0.520000
        a2                             5.000000
        s9                             5.000000
      * Repulsion:
        kExp                           1.500000    1.000000
        rExp                           1.000000
      * Coulomb:
        alpha                          2.000000
        third order                    shell-resolved
        anisotropic                    true
        a3                             3.000000
        a5                             4.000000
        cn-shift                       1.200000
        cn-exp                         4.000000
        max-rad                        5.000000

q/qsh data taken from xtbrestart
CAMM data taken from xtbrestart

          ...................................................
          :                      SETUP                      :
          :.................................................:
          :  # basis functions                 114          :
          :  # atomic orbitals                 114          :
          :  # shells                           66          :
          :  # electrons                       116          :
          :  max. iterations                   250          :
          :  Hamiltonian                  GFN2-xTB          :
          :  restarted?                       true          :
          :  GBSA solvation                  false          :
          :  PC potential                    false          :
          :  electronic temp.          300.0000000     K    :
          :  accuracy                    1.0000000          :
          :  -> integral cutoff          0.2500000E+02      :
          :  -> integral neglect         0.1000000E-07      :
          :  -> SCF convergence          0.1000000E-05 Eh   :
          :  -> wf. convergence          0.1000000E-03 e    :
          :  Broyden damping             0.4000000          :
          :  net charge                          0          :
          :  unpaired electrons                  0          :
          ...................................................

 iter      E             dE          RMSdq      gap      omega  full diag
   1    -63.2660426 -0.632660E+02  0.697E-06    3.10       0.0  T
   2    -63.2660426 -0.810019E-12  0.474E-06    3.10    3256.2  T
   3    -63.2660426 -0.117950E-11  0.191E-06    3.10    8098.2  T

   *** convergence criteria satisfied after 3 iterations ***

         #    Occupation            Energy/Eh            Energy/eV
      -------------------------------------------------------------
         1        2.0000           -0.6779738             -18.4486
       ...           ...                  ...                  ...
        52        2.0000           -0.4140230             -11.2661
        53        2.0000           -0.4099173             -11.1544
        54        2.0000           -0.4081506             -11.1063
        55        2.0000           -0.4070975             -11.0777
        56        2.0000           -0.3918411             -10.6625
        57        2.0000           -0.3788901             -10.3101
        58        2.0000           -0.3673453              -9.9960 (HOMO)
        59                         -0.2534370              -6.8964 (LUMO)
        60                         -0.2340631              -6.3692
        61                         -0.2336129              -6.3569
        62                         -0.2313505              -6.2954
        63                         -0.2262090              -6.1555
       ...                                ...                  ...
       114                          0.6837484              18.6057
      -------------------------------------------------------------
                  HL-Gap            0.1139083 Eh            3.0996 eV
             Fermi-level           -0.3103912 Eh           -8.4462 eV

 SCC (total)                   0 d,  0 h,  0 min,  0.050 sec
 SCC setup                      ...        0 min,  0.000 sec (  0.743%)
 Dispersion                     ...        0 min,  0.001 sec (  1.048%)
 classical contributions        ...        0 min,  0.000 sec (  0.293%)
 integral evaluation            ...        0 min,  0.008 sec ( 15.952%)
 iterations                     ...        0 min,  0.017 sec ( 34.646%)
 molecular gradient             ...        0 min,  0.023 sec ( 46.875%)
 printout                       ...        0 min,  0.000 sec (  0.430%)

         :::::::::::::::::::::::::::::::::::::::::::::::::::::
         ::                     SUMMARY                     ::
         :::::::::::::::::::::::::::::::::::::::::::::::::::::
         :: total energy             -62.120833515110 Eh    ::
         :: gradient norm              0.000204582353 Eh/a0 ::
         :: HOMO-LUMO gap              3.099602444790 eV    ::
         ::.................................................::
         :: SCC energy               -63.265838074756 Eh    ::
         :: -> isotropic ES            0.013986879658 Eh    ::
         :: -> anisotropic ES          0.006968217234 Eh    ::
         :: -> anisotropic XC          0.043566464773 Eh    ::
         :: -> dispersion             -0.049968424093 Eh    ::
         :: repulsion energy           1.145004559647 Eh    ::
         :: add. restraining           0.000000000000 Eh    ::
         :: total charge               0.000000000000 e     ::
         :::::::::::::::::::::::::::::::::::::::::::::::::::::

           -------------------------------------------------
          |                Property Printout                |
           -------------------------------------------------

    * Orbital Energies and Occupations

         #    Occupation            Energy/Eh            Energy/eV
      -------------------------------------------------------------
         1        2.0000           -0.6779738             -18.4486
       ...           ...                  ...                  ...
        46        2.0000           -0.4344312             -11.8215
        47        2.0000           -0.4317420             -11.7483
        48        2.0000           -0.4285267             -11.6608
        49        2.0000           -0.4243650             -11.5476
        50        2.0000           -0.4173048             -11.3554
        51        2.0000           -0.4153242             -11.3015
        52        2.0000           -0.4140230             -11.2661
        53        2.0000           -0.4099173             -11.1544
        54        2.0000           -0.4081506             -11.1063
        55        2.0000           -0.4070975             -11.0777
        56        2.0000           -0.3918411             -10.6625
        57        2.0000           -0.3788901             -10.3101
        58        2.0000           -0.3673453              -9.9960 (HOMO)
        59                         -0.2534370              -6.8964 (LUMO)
        60                         -0.2340631              -6.3692
        61                         -0.2336129              -6.3569
        62                         -0.2313505              -6.2954
        63                         -0.2262090              -6.1555
        64                         -0.2076121              -5.6494
        65                         -0.1940241              -5.2797
        66                         -0.1556334              -4.2350
        67                         -0.1138041              -3.0968
        68                         -0.1043547              -2.8396
        69                         -0.0825312              -2.2458
       ...                                ...                  ...
       114                          0.6837484              18.6057
      -------------------------------------------------------------
                  HL-Gap            0.1139083 Eh            3.0996 eV
             Fermi-level           -0.3103912 Eh           -8.4462 eV

     #   Z          covCN         q      C6AA      α(0)
     1   7 N        2.864    -0.022    21.667     6.913
     2   6 C        3.801     0.033    20.025     6.371
     3   6 C        2.975     0.002    27.972     8.675
     4   6 C        2.920    -0.034    28.849     8.808
     5   6 C        2.925    -0.033    28.830     8.805
     6   6 C        2.977     0.012    27.750     8.641
     7   6 C        2.977     0.010    27.790     8.647
     8   6 C        2.925    -0.033    28.821     8.804
     9   6 C        2.919    -0.029    28.718     8.788
    10   6 C        2.920    -0.030    28.749     8.793
    11   6 C        2.918    -0.029    28.724     8.789
    12   6 C        2.925    -0.033    28.830     8.805
    13   6 C        2.924    -0.033    28.817     8.803
    14   6 C        2.923    -0.035    28.862     8.810
    15   6 C        2.973     0.005    27.909     8.666
    16   6 C        2.925    -0.036    28.893     8.815
    17   6 C        2.919    -0.028    28.701     8.785
    18   6 C        2.920    -0.030    28.750     8.793
    19   6 C        2.920    -0.028    28.697     8.785
    20   6 C        2.922    -0.033    28.818     8.803
    21   6 C        3.049    -0.026    28.612     8.773
    22   6 C        3.162     0.016    27.328     8.545
    23   7 N        1.915    -0.272    27.916     7.834
    24   6 C        3.176     0.083    25.757     8.287
    25   1 H        0.923     0.050     2.314     2.379
    26   1 H        0.926     0.035     2.516     2.481
    27   1 H        0.926     0.037     2.486     2.466
    28   1 H        0.926     0.033     2.543     2.494
    29   1 H        0.926     0.032     2.559     2.502
    30   1 H        0.926     0.031     2.567     2.506
    31   1 H        0.926     0.031     2.571     2.507
    32   1 H        0.926     0.031     2.570     2.507
    33   1 H        0.926     0.038     2.475     2.460
    34   1 H        0.926     0.032     2.553     2.499
    35   1 H        0.926     0.029     2.606     2.524
    36   1 H        0.926     0.034     2.525     2.485
    37   1 H        0.926     0.034     2.525     2.485
    38   1 H        0.926     0.036     2.506     2.475
    39   1 H        0.926     0.038     2.478     2.462
    40   1 H        0.926     0.024     2.679     2.560
    41   1 H        0.926     0.029     2.598     2.521
    42   1 H        0.926     0.028     2.616     2.529

 Mol. C6AA /au·bohr⁶  :      23987.126178
 Mol. C8AA /au·bohr⁸  :     595546.639031
 Mol. α(0) /au        :        249.379271


Wiberg/Mayer (AO) data.
largest (>0.10) Wiberg bond orders for each atom

 ---------------------------------------------------------------------------
     #   Z sym  total        # sym  WBO       # sym  WBO       # sym  WBO
 ---------------------------------------------------------------------------
     1   7 N    3.635 --    24 C    1.248    21 C    1.201     2 C    0.968
                            23 N    0.102
     2   6 C    3.972 --    15 C    0.980     3 C    0.972     1 N    0.968
                            25 H    0.949
     3   6 C    3.981 --     4 C    1.413    14 C    1.405     2 C    0.972
                             6 C    0.103
     4   6 C    3.991 --     5 C    1.450     3 C    1.413    26 H    0.966
                            13 C    0.106
     5   6 C    3.991 --     4 C    1.450     6 C    1.391    27 H    0.968
                            14 C    0.107
     6   6 C    3.988 --     5 C    1.391    13 C    1.384     7 C    1.046
                             3 C    0.103
     7   6 C    3.989 --     8 C    1.390    12 C    1.390     6 C    1.046
                            10 C    0.106
     8   6 C    3.991 --     9 C    1.451     7 C    1.390    28 H    0.969
                            11 C    0.109
     9   6 C    3.992 --     8 C    1.451    10 C    1.435    29 H    0.971
                            12 C    0.109
    10   6 C    3.987 --     9 C    1.435    11 C    1.435    30 H    0.972
                             7 C    0.106
    11   6 C    3.992 --    12 C    1.451    10 C    1.435    31 H    0.971
                             8 C    0.109
    12   6 C    3.991 --    11 C    1.451     7 C    1.390    32 H    0.969
                             9 C    0.109
    13   6 C    3.990 --    14 C    1.459     6 C    1.384    33 H    0.968
                             4 C    0.106
    14   6 C    3.991 --    13 C    1.459     3 C    1.405    34 H    0.969
                             5 C    0.107
    15   6 C    3.987 --    20 C    1.419    16 C    1.407     2 C    0.980
                            18 C    0.110
    16   6 C    3.991 --    17 C    1.450    15 C    1.407    35 H    0.970
                            19 C    0.112
    17   6 C    3.991 --    16 C    1.450    18 C    1.434    36 H    0.971
                            20 C    0.111
    18   6 C    3.992 --    19 C    1.444    17 C    1.434    37 H    0.971
                            15 C    0.110
    19   6 C    3.992 --    18 C    1.444    20 C    1.438    38 H    0.971
                            16 C    0.112
    20   6 C    3.991 --    19 C    1.438    15 C    1.419    39 H    0.967
                            17 C    0.111
    21   6 C    3.940 --    22 C    1.581     1 N    1.201    40 H    0.971
                            24 C    0.113
    22   6 C    3.975 --    21 C    1.581    23 N    1.299    41 H    0.971
    23   7 N    3.024 --    24 C    1.546    22 C    1.299     1 N    0.102
    24   6 C    3.958 --    23 N    1.546     1 N    1.248    42 H    0.964
                            21 C    0.113
    25   1 H    0.997 --     2 C    0.949
    26   1 H    0.998 --     4 C    0.966
    27   1 H    0.998 --     5 C    0.968
    28   1 H    0.999 --     8 C    0.969
    29   1 H    0.998 --     9 C    0.971
    30   1 H    0.999 --    10 C    0.972
    31   1 H    0.998 --    11 C    0.971
    32   1 H    0.999 --    12 C    0.969
    33   1 H    0.998 --    13 C    0.968
    34   1 H    0.998 --    14 C    0.969
    35   1 H    0.999 --    16 C    0.970
    36   1 H    0.998 --    17 C    0.971
    37   1 H    0.998 --    18 C    0.971
    38   1 H    0.998 --    19 C    0.971
    39   1 H    0.999 --    20 C    0.967
    40   1 H    0.999 --    21 C    0.971
    41   1 H    0.998 --    22 C    0.971
    42   1 H    0.999 --    24 C    0.964
 ---------------------------------------------------------------------------

Topologies differ in total number of bonds
Writing topology from bond orders to xtbtopo.mol

molecular dipole:
                 x           y           z       tot (Debye)
 q only:        0.408       0.954      -0.768
   full:        0.351       1.167      -1.188       4.325
molecular quadrupole (traceless):
                xx          xy          yy          xz          yz          zz
 q only:        6.187      -7.258      -4.266       5.297       7.555      -1.921
  q+dip:        9.648      -9.629      -3.421       7.882      12.724      -6.228
   full:        9.026      -8.726      -5.022       8.067      12.721      -4.004


           -------------------------------------------------
          | TOTAL ENERGY              -62.120833515110 Eh   |
          | GRADIENT NORM               0.000204582353 Eh/α |
          | HOMO-LUMO GAP               3.099602444790 eV   |
           -------------------------------------------------

------------------------------------------------------------------------
 * finished run on 2025/05/15 at 16:36:05.817     
------------------------------------------------------------------------
 total:
 * wall-time:     0 d,  0 h,  0 min,  0.064 sec
 *  cpu-time:     0 d,  0 h,  0 min,  0.053 sec
 * ratio c/w:     0.827 speedup
 SCF:
 * wall-time:     0 d,  0 h,  0 min,  0.050 sec
 *  cpu-time:     0 d,  0 h,  0 min,  0.041 sec
 * ratio c/w:     0.816 speedup



----- FOD -----
      -----------------------------------------------------------      
     |                   =====================                   |     
     |                           x T B                           |     
     |                   =====================                   |     
[...]
   
   for ddCOSMO and CPCM-X implicit solvation:
   * M. Stahn, S. Ehlert, S. Grimme, J. Phys. Chem. A,
     2023, XX, XXXX-XXXX. DOI: 10.1021/acs.jpca.3c04382
   
   for DFT-D4:
   * E. Caldeweyher, C. Bannwarth and S. Grimme, J. Chem. Phys., 2017,
     147, 034112. DOI: 10.1063/1.4993215
   * E. Caldeweyher, S. Ehlert, A. Hansen, H. Neugebauer, S. Spicher,
     C. Bannwarth and S. Grimme, J. Chem. Phys., 2019, 150, 154122.
     DOI: 10.1063/1.5090222
   * E. Caldeweyher, J.-M. Mewes, S. Ehlert and S. Grimme, Phys. Chem. Chem. Phys.
     2020, 22, 8499-8512. DOI: 10.1039/D0CP00502A
   
   for sTDA-xTB:
   * S. Grimme and C. Bannwarth, J. Chem. Phys., 2016, 145, 054103.
     DOI: 10.1063/1.4959605
   
   in the mass-spec context:
   * V. Asgeirsson, C. Bauer and S. Grimme, Chem. Sci., 2017, 8, 4879.
     DOI: 10.1039/c7sc00601b
   * J. Koopman and S. Grimme, ACS Omega 2019, 4, 12, 15120-15133.
     DOI: 10.1021/acsomega.9b02011
   
   for metadynamics refer to:
   * S. Grimme, J. Chem. Theory Comput., 2019, 155, 2847-2862
     DOI: 10.1021/acs.jctc.9b00143
   
   for SPH calculations refer to:
   * S. Spicher and S. Grimme, J. Chem. Theory Comput., 2021, 17, 1701-1714
     DOI: 10.1021/acs.jctc.0c01306
   
   for ONIOM refer to:
   * C. Plett, A. Katbashev, S. Ehlert, S. Grimme, M. Bursch,
     Phys. Chem. Chem. Phys., 2023, 25, 17860-17868. DOI: 10.1039/D3CP02178E
   
   for DIPRO refer to:
   * J. Kohn, N. Gildemeister, S. Grimme, D. Fazzi, A. Hansen,
     J. Chem. Phys., 2023, just accepted.
   
   for PTB refer to:
   * S. Grimme, M. Mueller, A. Hansen, J. Chem. Phys., 2023, 158, 124111.
     DOI: 10.1063/5.0137838
   
   with help from (in alphabetical order)
   P. Atkinson, C. Bannwarth, F. Bohle, G. Brandenburg, E. Caldeweyher
   M. Checinski, S. Dohm, S. Ehlert, S. Ehrlich, I. Gerasimov, C. Hölzer
   A. Katbashev, J. Kohn, J. Koopman, C. Lavigne, S. Lehtola, F. März, M. Müller,
   F. Musil, H. Neugebauer, J. Pisarek, C. Plett, P. Pracht, F. Pultar,
   J. Seibert, P. Shushkov, S. Spicher, M. Stahn, M. Steiner, T. Strunk,
   J. Stückrath, T. Rose, and J. Unsleber
   
 * started run on 2025/05/15 at 16:36:07.402     
   ID    Z sym.   atoms
    1    7 N      1, 23
    2    6 C      2-22, 24
    3    1 H      25-42

           -------------------------------------------------
          |                Calculation Setup                |
           -------------------------------------------------

          program call               : xtb /rds/general/user/hgt20/home/callum/QDESCP/Bifonazole_rdkit_conf_2/Bifonazole_rdkit_conf_2.xyz --acc 1 --gfn 2 --chrg 0 --uhf 2 --etemp 300 --input /rds/general/user/hgt20/home/callum/QDESCP/Bifonazole_rdkit_conf_2/Bifonazole_rdkit_conf_2_xtb.inp -P 1
          hostname                   : login-c
          coordinate file            : /rds/general/user/hgt20/home/callum/QDESCP/Bifonazole_rdkit_conf_2/Bifonazole_rdkit_conf_2.xyz
          omp threads                :                     1


           -------------------------------------------------
          |                 G F N 2 - x T B                 |
           -------------------------------------------------

        Reference                      10.1021/acs.jctc.8b01176
      * Hamiltonian:
        H0-scaling (s, p, d)           1.850000    2.230000    2.230000
        zeta-weighting                 0.500000
      * Dispersion:
        s8                             2.700000
        a1                             0.520000
        a2                             5.000000
        s9                             5.000000
      * Repulsion:
        kExp                           1.500000    1.000000
        rExp                           1.000000
      * Coulomb:
        alpha                          2.000000
        third order                    shell-resolved
        anisotropic                    true
        a3                             3.000000
        a5                             4.000000
        cn-shift                       1.200000
        cn-exp                         4.000000
        max-rad                        5.000000


          ...................................................
          :                      SETUP                      :
          :.................................................:
          :  # basis functions                 114          :
          :  # atomic orbitals                 114          :
          :  # shells                           66          :
          :  # electrons                       116          :
          :  max. iterations                   250          :
          :  Hamiltonian                  GFN2-xTB          :
          :  restarted?                      false          :
          :  GBSA solvation                  false          :
          :  PC potential                    false          :
          :  electronic temp.          300.0000000     K    :
          :  accuracy                    1.0000000          :
          :  -> integral cutoff          0.2500000E+02      :
          :  -> integral neglect         0.1000000E-07      :
          :  -> SCF convergence          0.1000000E-05 Eh   :
          :  -> wf. convergence          0.1000000E-03 e    :
          :  Broyden damping             0.4000000          :
          :  net charge                          0          :
          :  unpaired electrons                  2          :
          ...................................................

 iter      E             dE          RMSdq      gap      omega  full diag
   1    -63.0035251 -0.630035E+02  0.387E+00    0.58       0.0  T
   2    -62.8374436  0.166082E+00  0.313E+00    0.07       1.0  T
   3    -62.7225419  0.114902E+00  0.258E+00    0.61       1.0  T
   4    -62.8682749 -0.145733E+00  0.183E+00    0.39       1.0  T
   5    -63.1035759 -0.235301E+00  0.844E-01    0.32       1.0  T
   6    -63.1108835 -0.730766E-02  0.615E-01    0.31       1.0  T
   7    -63.1183748 -0.749131E-02  0.489E-01    0.26       1.0  T
   8    -63.1264269 -0.805212E-02  0.276E-01    0.36       1.0  T
   9    -63.0792159  0.472111E-01  0.719E-01    0.40       1.0  T
  10    -63.1258608 -0.466449E-01  0.234E-01    0.36       1.0  T
  11    -63.1272619 -0.140105E-02  0.178E-01    0.35       1.0  T
  12    -63.1280800 -0.818167E-03  0.138E-01    0.34       1.0  T
  13    -63.1290417 -0.961723E-03  0.846E-02    0.34       1.0  T
  14    -63.1291744 -0.132655E-03  0.743E-02    0.33       1.0  T
  15    -63.1295804 -0.406050E-03  0.269E-02    0.33       1.0  T
  16    -63.1296377 -0.572755E-04  0.686E-03    0.33       2.2  T
  17    -63.1296298  0.792075E-05  0.118E-02    0.33       1.3  T
  18    -63.1296417 -0.119076E-04  0.162E-03    0.33       9.5  T
  19    -63.1296413  0.444179E-06  0.270E-03    0.33       5.7  T
  20    -63.1296419 -0.637589E-06  0.146E-04    0.33     105.5  T
  21    -63.1296419  0.476767E-07  0.755E-04    0.33      20.4  T

   *** convergence criteria satisfied after 21 iterations ***

         #    Occupation            Energy/Eh            Energy/eV
      -------------------------------------------------------------
         1        2.0000           -0.6914280             -18.8147
       ...           ...                  ...                  ...
        53        2.0000           -0.4072080             -11.0807
        54        2.0000           -0.4059407             -11.0462
        55        2.0000           -0.4023500             -10.9485
        56        1.9992           -0.3936121             -10.7107
        57        1.9635           -0.3900003             -10.6124
        58        1.0373           -0.3838018             -10.4438
        59        0.9982           -0.2452999              -6.6749 (HOMO)
        60        0.0015           -0.2331354              -6.3439 (LUMO)
        61        0.0003           -0.2315614              -6.3011
        62                         -0.2238776              -6.0920
        63                         -0.2203578              -5.9962
        64                         -0.2079359              -5.6582
       ...                                ...                  ...
       114                          0.6909013              18.8004
      -------------------------------------------------------------
                  HL-Gap            0.0121645 Eh            0.3310 eV
             Fermi-level           -0.3130953 Eh           -8.5198 eV

 transition dipole moment (au) for excitation:          58          59
     X       Y       Z   
  -2.0293  -0.3628  -0.2160  total (au/Debye):    2.073   5.269
 dE (eV)             :    3.769
 oscillator strength :  0.56102E+00

 SCC (total)                   0 d,  0 h,  0 min,  0.089 sec
 SCC setup                      ...        0 min,  0.000 sec (  0.403%)
 Dispersion                     ...        0 min,  0.001 sec (  0.579%)
 classical contributions        ...        0 min,  0.000 sec (  0.167%)
 integral evaluation            ...        0 min,  0.008 sec (  8.913%)
 iterations                     ...        0 min,  0.046 sec ( 52.179%)
 molecular gradient             ...        0 min,  0.026 sec ( 29.794%)
 printout                       ...        0 min,  0.007 sec (  7.958%)

         :::::::::::::::::::::::::::::::::::::::::::::::::::::
         ::                     SUMMARY                     ::
         :::::::::::::::::::::::::::::::::::::::::::::::::::::
         :: total energy             -61.984432753498 Eh    ::
         :: gradient norm              0.159574863092 Eh/a0 ::
         :: HOMO-LUMO gap              0.331013477343 eV    ::
         ::.................................................::
         :: SCC energy               -63.129437313145 Eh    ::
         :: -> isotropic ES            0.011165838517 Eh    ::
         :: -> anisotropic ES          0.007967245695 Eh    ::
         :: -> anisotropic XC          0.041389087584 Eh    ::
         :: -> dispersion             -0.050002432236 Eh    ::
         :: repulsion energy           1.145004559647 Eh    ::
         :: add. restraining           0.000000000000 Eh    ::
         :: total charge              -0.000000000000 e     ::
         :::::::::::::::::::::::::::::::::::::::::::::::::::::

           -------------------------------------------------
          |                Property Printout                |
           -------------------------------------------------

    * Orbital Energies and Occupations

         #    Occupation            Energy/Eh            Energy/eV
      -------------------------------------------------------------
         1        2.0000           -0.6914280             -18.8147
       ...           ...                  ...                  ...
        47        2.0000           -0.4296134             -11.6904
        48        2.0000           -0.4232922             -11.5184
        49        2.0000           -0.4201127             -11.4318
        50        2.0000           -0.4150121             -11.2931
        51        2.0000           -0.4133917             -11.2490
        52        2.0000           -0.4098005             -11.1512
        53        2.0000           -0.4072080             -11.0807
        54        2.0000           -0.4059407             -11.0462
        55        2.0000           -0.4023500             -10.9485
        56        1.9992           -0.3936121             -10.7107
        57        1.9635           -0.3900003             -10.6124
        58        1.0373           -0.3838018             -10.4438
        59        0.9982           -0.2452999              -6.6749 (HOMO)
        60        0.0015           -0.2331354              -6.3439 (LUMO)
        61        0.0003           -0.2315614              -6.3011
        62                         -0.2238776              -6.0920
        63                         -0.2203578              -5.9962
        64                         -0.2079359              -5.6582
        65                         -0.1998887              -5.4392
        66                         -0.1723352              -4.6895
        67                         -0.1062981              -2.8925
        68                         -0.1033133              -2.8113
        69                         -0.0749931              -2.0407
        70                          0.0139755               0.3803
       ...                                ...                  ...
       114                          0.6909013              18.8004
      -------------------------------------------------------------
                  HL-Gap            0.0121645 Eh            0.3310 eV
             Fermi-level           -0.3130953 Eh           -8.5198 eV

     #   Z          covCN         q      C6AA      α(0)
     1   7 N        2.864    -0.011    21.458     6.880
     2   6 C        3.801     0.031    20.061     6.377
     3   6 C        2.975    -0.011    28.289     8.724
     4   6 C        2.920    -0.038    28.957     8.824
     5   6 C        2.925    -0.035    28.867     8.811
     6   6 C        2.977     0.000    28.022     8.683
     7   6 C        2.977     0.009    27.809     8.650
     8   6 C        2.925    -0.033    28.834     8.806
     9   6 C        2.919    -0.030    28.740     8.791
    10   6 C        2.920    -0.031    28.773     8.796
    11   6 C        2.918    -0.030    28.739     8.791
    12   6 C        2.925    -0.034    28.841     8.807
    13   6 C        2.924    -0.033    28.829     8.805
    14   6 C        2.923    -0.040    28.997     8.831
    15   6 C        2.973     0.004    27.930     8.669
    16   6 C        2.925    -0.035    28.872     8.812
    17   6 C        2.919    -0.029    28.715     8.787
    18   6 C        2.920    -0.031    28.772     8.796
    19   6 C        2.920    -0.028    28.698     8.785
    20   6 C        2.922    -0.035    28.862     8.810
    21   6 C        3.049    -0.022    28.518     8.758
    22   6 C        3.162     0.017    27.305     8.541
    23   7 N        1.915    -0.236    27.023     7.707
    24   6 C        3.176     0.086    25.709     8.280
    25   1 H        0.923     0.057     2.237     2.339
    26   1 H        0.926     0.027     2.622     2.532
    27   1 H        0.926     0.032     2.563     2.504
    28   1 H        0.926     0.030     2.582     2.513
    29   1 H        0.926     0.028     2.608     2.525
    30   1 H        0.926     0.027     2.629     2.535
    31   1 H        0.926     0.028     2.615     2.529
    32   1 H        0.926     0.029     2.596     2.519
    33   1 H        0.926     0.032     2.555     2.500
    34   1 H        0.926     0.023     2.689     2.564
    35   1 H        0.926     0.029     2.596     2.520
    36   1 H        0.926     0.034     2.529     2.487
    37   1 H        0.926     0.034     2.535     2.490
    38   1 H        0.926     0.034     2.523     2.484
    39   1 H        0.926     0.033     2.546     2.495
    40   1 H        0.926     0.035     2.520     2.482
    41   1 H        0.926     0.039     2.467     2.456
    42   1 H        0.926     0.043     2.407     2.426

 Mol. C6AA /au·bohr⁶  :      23993.070892
 Mol. C8AA /au·bohr⁸  :     595706.137604
 Mol. α(0) /au        :        249.423415


Wiberg/Mayer (AO) data.
largest (>0.10) Wiberg bond orders for each atom

 ---------------------------------------------------------------------------
     #   Z sym  total        # sym  WBO       # sym  WBO       # sym  WBO
 ---------------------------------------------------------------------------
     1   7 N    3.633 --    24 C    1.255    21 C    1.210     2 C    0.955
     2   6 C    3.961 --     3 C    0.981    15 C    0.981     1 N    0.955
                            25 H    0.939
     3   6 C    3.805 --     4 C    1.265    14 C    1.249     2 C    0.981
     4   6 C    3.966 --     5 C    1.573     3 C    1.265    26 H    0.965
     5   6 C    3.953 --     4 C    1.573     6 C    1.182    27 H    0.969
     6   6 C    3.886 --     7 C    1.233    13 C    1.188     5 C    1.182
     7   6 C    3.893 --     6 C    1.233    12 C    1.202     8 C    1.202
     8   6 C    3.951 --     9 C    1.552     7 C    1.202    28 H    0.969
     9   6 C    3.965 --     8 C    1.552    10 C    1.310    29 H    0.970
    10   6 C    3.794 --     9 C    1.310    11 C    1.309    30 H    0.972
    11   6 C    3.964 --    12 C    1.552    10 C    1.309    31 H    0.970
    12   6 C    3.952 --    11 C    1.552     7 C    1.202    32 H    0.969
    13   6 C    3.956 --    14 C    1.581     6 C    1.188    33 H    0.968
    14   6 C    3.962 --    13 C    1.581     3 C    1.249    34 H    0.969
    15   6 C    3.977 --    20 C    1.408    16 C    1.399     2 C    0.981
                            18 C    0.103
    16   6 C    3.985 --    17 C    1.453    15 C    1.399    35 H    0.970
                            19 C    0.111
    17   6 C    3.986 --    16 C    1.453    18 C    1.427    36 H    0.971
                            20 C    0.107
    18   6 C    3.976 --    19 C    1.439    17 C    1.427    37 H    0.971
                            15 C    0.103
    19   6 C    3.989 --    20 C    1.442    18 C    1.439    38 H    0.971
                            16 C    0.111
    20   6 C    3.984 --    19 C    1.442    15 C    1.408    39 H    0.967
                            17 C    0.107
    21   6 C    3.931 --    22 C    1.570     1 N    1.210    40 H    0.970
                            24 C    0.104
    22   6 C    3.955 --    21 C    1.570    23 N    1.291    41 H    0.970
    23   7 N    3.016 --    24 C    1.533    22 C    1.291
    24   6 C    3.950 --    23 N    1.533     1 N    1.255    42 H    0.962
                            21 C    0.104
    25   1 H    0.988 --     2 C    0.939
    26   1 H    0.999 --     4 C    0.965
    27   1 H    0.999 --     5 C    0.969
    28   1 H    0.999 --     8 C    0.969
    29   1 H    0.999 --     9 C    0.970
    30   1 H    0.999 --    10 C    0.972
    31   1 H    0.999 --    11 C    0.970
    32   1 H    0.999 --    12 C    0.969
    33   1 H    0.998 --    13 C    0.968
    34   1 H    0.999 --    14 C    0.969
    35   1 H    0.999 --    16 C    0.970
    36   1 H    0.998 --    17 C    0.971
    37   1 H    0.998 --    18 C    0.971
    38   1 H    0.998 --    19 C    0.971
    39   1 H    0.999 --    20 C    0.967
    40   1 H    0.998 --    21 C    0.970
    41   1 H    0.997 --    22 C    0.970
    42   1 H    0.997 --    24 C    0.962
 ---------------------------------------------------------------------------

Topologies differ in total number of bonds
Writing topology from bond orders to xtbtopo.mol

molecular dipole:
                 x           y           z       tot (Debye)
 q only:       -0.266       0.459      -0.581
   full:       -0.315       0.628      -0.942       2.987
molecular quadrupole (traceless):
                xx          xy          yy          xz          yz          zz
 q only:        3.743      -3.498      -1.901       4.237       5.497      -1.842
  q+dip:        7.760      -5.213      -1.862       6.596       9.789      -5.898
   full:        6.677      -4.572      -2.928       6.660       9.970      -3.750


           -------------------------------------------------
          | TOTAL ENERGY              -61.984432753498 Eh   |
          | GRADIENT NORM               0.159574863092 Eh/α |
          | HOMO-LUMO GAP               0.331013477343 eV   |
           -------------------------------------------------

------------------------------------------------------------------------
 * finished run on 2025/05/15 at 16:36:07.504     
------------------------------------------------------------------------
 total:
 * wall-time:     0 d,  0 h,  0 min,  0.102 sec
 *  cpu-time:     0 d,  0 h,  0 min,  0.099 sec
 * ratio c/w:     0.970 speedup
 SCF:
 * wall-time:     0 d,  0 h,  0 min,  0.089 sec
 *  cpu-time:     0 d,  0 h,  0 min,  0.087 sec
 * ratio c/w:     0.984 speedup


