42
 energy: -62.120833515106 gnorm: 0.000204590987 xtb: 6.7.1 (edcfbbe)
N           -2.29107854972148       -1.88169711265691        0.23427403288209
C           -1.92881360471902       -0.77196174313733       -0.62041531890981
C           -0.46176912817775       -0.44101819954690       -0.42134391712094
C           -0.04772112274289        0.65001131047546        0.33004498375126
C            1.29870582762753        0.90643434150891        0.50801760849453
C            2.26464440436581        0.07251810180800       -0.04837951455136
C            3.69665685459450        0.34639128654037        0.14207486452218
C            4.58478380946027       -0.68808568453552        0.42658780178298
C            5.93085364875003       -0.42912343659362        0.60600149381836
C            6.41172799616360        0.86494105028476        0.49658706609850
C            5.53754074894896        1.90041655959579        0.21117602532924
C            4.18988209098221        1.64486128273922        0.03887230874796
C            1.84330985224740       -1.02784556691895       -0.79152393589927
C            0.49855864693178       -1.27741462060225       -0.97827787526058
C           -2.82217781745207        0.43154287806950       -0.39879007390373
C           -2.92789313682402        1.38107803828166       -1.40814060710753
C           -3.71450150207534        2.50452971830177       -1.23366137728642
C           -4.40730255148750        2.68922875192420       -0.04857777315466
C           -4.30571906743680        1.74729151616822        0.95990818555489
C           -3.51461119499062        0.62401560622805        0.78847136002916
C           -3.26690798679018       -2.80324441222167       -0.02347144390405
C           -3.31520624485113       -3.61813137845458        1.06942814618524
N           -2.39918277455968       -3.21539140991436        1.98839136722693
C           -1.80894834443368       -2.17714843768777        1.46495905037920
H           -2.06487543568893       -1.11142735808426       -1.65757098095135
H           -0.78092362920769        1.30412405573840        0.77868861197847
H            1.60538294517965        1.75238488297298        1.10540783925999
H            4.21150755201502       -1.69673752627364        0.52900881796579
H            6.60782491948652       -1.23970979494773        0.83334473212866
H            7.46396332738759        1.06586521694575        0.63361141642380
H            5.90825696847555        2.91119881954663        0.12102862333075
H            3.51388100750533        2.45350379166508       -0.19915331650352
H            2.57691540959883       -1.67905449372598       -1.24330880424900
H            0.18783129161898       -2.13311598141032       -1.56133626345085
H           -2.38540548720174        1.23785483980007       -2.33214756234910
H           -3.78894373780130        3.23611999839339       -2.02458607829820
H           -5.02426024794235        3.56491310634956        0.08750799909048
H           -4.84211523039650        1.88519993807861        1.88695361070375
H           -3.43966257181318       -0.10325627294362        1.58399410907935
H           -3.82487669437275       -2.79741124532888       -0.93756771864834
H           -3.94554796001619       -4.46494662321099        1.25277378617517
H           -1.02358328063458       -1.61770379321937        1.93313872061158
