38
 energy: -65.475126584722 gnorm: 0.000525233579 xtb: 6.7.1 (edcfbbe)
O           -0.73578871356003       -0.59438546915277        3.34002277561002
C           -1.75638626131132       -0.99374397780412        2.47336507075022
C           -1.77174937944324       -0.18783118784240        1.16629597579948
O           -0.55600499635742       -0.46322533754563        0.49084180627701
C           -0.40037409916679        0.22789006704867       -0.72654382622876
C           -1.50447239142369       -0.17792399628691       -1.71141546045512
C           -2.86236228318162        0.12804913168572       -1.07680567933179
C           -2.97196891523157       -0.56503375457014        0.28909958953658
O           -4.14603029154713       -0.18539315863641        0.94944647675598
O           -3.92438938412988       -0.32696431364852       -1.87710077588712
O           -1.40583862440183        0.53992122163117       -2.91557421414149
O            0.82214440110769       -0.12837757224700       -1.27744405224878
C            1.94013418700844        0.52283836838155       -0.74397931658862
C            2.12413394766247        1.87649367532717       -0.98777834905351
C            3.24988312038847        2.51937915572487       -0.50584910921243
C            4.19149214879507        1.80892990383577        0.21778916657259
C            4.00628158536199        0.45826361502910        0.45286243304170
C            2.88501403817553       -0.20780054566603       -0.02350723846008
C            2.66929005479244       -1.67512855202642        0.26489931453313
O            1.73503856608188       -1.88437514699195        1.29874796582526
H            0.11813121477617       -0.82067752173595        2.94829506406988
H           -2.70119944824488       -0.81531848943529        2.98933997970280
H           -1.67328046837925       -2.05987445680307        2.22452183281684
H           -1.82612075307454        0.88508121979615        1.40293438807831
H           -0.46002540841297        1.31801342674857       -0.53913379598337
H           -1.41875308406650       -1.26009721373698       -1.89449131408676
H           -2.94048880756215        1.21909915380948       -0.93532076329821
H           -2.96169569349025       -1.65393608516583        0.11593516322704
H           -4.87101270627813       -0.28046745242102        0.31775129674961
H           -3.76102088060820       -0.01988901636121       -2.77703785038806
H           -0.51162990862242        0.42204828495440       -3.25961413100100
H            1.38734163544594        2.41929049422278       -1.56252645440847
H            3.38931737972701        3.57214621743291       -0.69952265899388
H            5.07007011493386        2.30710988168121        0.59818108421061
H            4.73889593538878       -0.09556250356276        1.02053618777514
H            3.60258368503025       -2.12844896010718        0.60689431144606
H            2.34338425181585       -2.18122839429630       -0.65509570256234
H            0.88725623200174       -1.51897071126715        1.00098080955213
