----- Optimization -----
      -----------------------------------------------------------      
     |                   =====================                   |     
     |                           x T B                           |     
     |                   =====================                   |     
     |                         S. Grimme                         |     
     |          Mulliken Center for Theoretical Chemistry        |     
     |                    University of Bonn                     |     
      -----------------------------------------------------------      

   * xtb version 6.7.1 (edcfbbe) compiled by 'conda@3ef47c1a292c' on 2024-11-25

   xtb is free software: you can redistribute it and/or modify it under
   the terms of the GNU Lesser General Public License as published by
   the Free Software Foundation, either version 3 of the License, or
   (at your option) any later version.
   
   xtb is distributed in the hope that it will be useful,
   but WITHOUT ANY WARRANTY; without even the implied warranty of
   MERCHANTABILITY or FITNESS FOR A PARTICULAR PURPOSE.  See the
   GNU Lesser General Public License for more details.
   
   Cite this work as:
   * C. Bannwarth, E. Caldeweyher, S. Ehlert, A. Hansen, P. Pracht,
     J. Seibert, S. Spicher, S. Grimme, WIREs Comput. Mol. Sci., 2020, 11,
     e01493. DOI: 10.1002/wcms.1493
   
   for GFN2-xTB:
   * C. Bannwarth, S. Ehlert and S. Grimme., J. Chem. Theory Comput., 2019,
     15, 1652-1671. DOI: 10.1021/acs.jctc.8b01176
   for GFN1-xTB:
   * S. Grimme, C. Bannwarth, P. Shushkov, J. Chem. Theory Comput., 2017,
     13, 1989-2009. DOI: 10.1021/acs.jctc.7b00118
   for GFN0-xTB:
   * P. Pracht, E. Caldeweyher, S. Ehlert, S. Grimme, ChemRxiv, 2019, preprint.
     DOI: 10.26434/chemrxiv.8326202.v1
   for GFN-FF:
   * S. Spicher and S. Grimme, Angew. Chem. Int. Ed., 2020, 59, 15665-15673.
     DOI: 10.1002/anie.202004239
   
   for ALPB and GBSA implicit solvation:
   * S. Ehlert, M. Stahn, S. Spicher, S. Grimme, J. Chem. Theory Comput.,
     2021, 17, 4250-4261. DOI: 10.1021/acs.jctc.1c00471
   
   for ddCOSMO and CPCM-X implicit solvation:
   * M. Stahn, S. Ehlert, S. Grimme, J. Phys. Chem. A,
     2023, XX, XXXX-XXXX. DOI: 10.1021/acs.jpca.3c04382
   
   for DFT-D4:
   * E. Caldeweyher, C. Bannwarth and S. Grimme, J. Chem. Phys., 2017,
     147, 034112. DOI: 10.1063/1.4993215
   * E. Caldeweyher, S. Ehlert, A. Hansen, H. Neugebauer, S. Spicher,
     C. Bannwarth and S. Grimme, J. Chem. Phys., 2019, 150, 154122.
     DOI: 10.1063/1.5090222
   * E. Caldeweyher, J.-M. Mewes, S. Ehlert and S. Grimme, Phys. Chem. Chem. Phys.
     2020, 22, 8499-8512. DOI: 10.1039/D0CP00502A
   
   for sTDA-xTB:
   * S. Grimme and C. Bannwarth, J. Chem. Phys., 2016, 145, 054103.
     DOI: 10.1063/1.4959605
   
   in the mass-spec context:
   * V. Asgeirsson, C. Bauer and S. Grimme, Chem. Sci., 2017, 8, 4879.
     DOI: 10.1039/c7sc00601b
   * J. Koopman and S. Grimme, ACS Omega 2019, 4, 12, 15120-15133.
     DOI: 10.1021/acsomega.9b02011
   
   for metadynamics refer to:
   * S. Grimme, J. Chem. Theory Comput., 2019, 155, 2847-2862
     DOI: 10.1021/acs.jctc.9b00143
   
   for SPH calculations refer to:
   * S. Spicher and S. Grimme, J. Chem. Theory Comput., 2021, 17, 1701-1714
     DOI: 10.1021/acs.jctc.0c01306
   
   for ONIOM refer to:
   * C. Plett, A. Katbashev, S. Ehlert, S. Grimme, M. Bursch,
     Phys. Chem. Chem. Phys., 2023, 25, 17860-17868. DOI: 10.1039/D3CP02178E
   
   for DIPRO refer to:
   * J. Kohn, N. Gildemeister, S. Grimme, D. Fazzi, A. Hansen,
     J. Chem. Phys., 2023, just accepted.
   
   for PTB refer to:
   * S. Grimme, M. Mueller, A. Hansen, J. Chem. Phys., 2023, 158, 124111.
     DOI: 10.1063/5.0137838
   
   with help from (in alphabetical order)
   P. Atkinson, C. Bannwarth, F. Bohle, G. Brandenburg, E. Caldeweyher
   M. Checinski, S. Dohm, S. Ehlert, S. Ehrlich, I. Gerasimov, C. Hölzer
   A. Katbashev, J. Kohn, J. Koopman, C. Lavigne, S. Lehtola, F. März, M. Müller,
   F. Musil, H. Neugebauer, J. Pisarek, C. Plett, P. Pracht, F. Pultar,
   J. Seibert, P. Shushkov, S. Spicher, M. Stahn, M. Steiner, T. Strunk,
   J. Stückrath, T. Rose, and J. Unsleber
   
 * started run on 2025/05/15 at 16:05:47.603     
   ID    Z sym.   atoms
    1    8 O      1, 4, 9-12, 20
    2    6 C      2, 3, 5-8, 13-19
    3    1 H      21-38

           -------------------------------------------------
          |                Calculation Setup                |
           -------------------------------------------------

          program call               : xtb /rds/general/user/hgt20/home/callum/QDESCP/Salicin_rdkit_conf_6/Salicin_rdkit_conf_6.xyz --opt normal --acc 1 --gfn 2 --chrg 0 --uhf 0 -P 1
          hostname                   : login-c
          coordinate file            : /rds/general/user/hgt20/home/callum/QDESCP/Salicin_rdkit_conf_6/Salicin_rdkit_conf_6.xyz
          omp threads                :                     1


           -------------------------------------------------
          |                 G F N 2 - x T B                 |
           -------------------------------------------------

        Reference                      10.1021/acs.jctc.8b01176
      * Hamiltonian:
        H0-scaling (s, p, d)           1.850000    2.230000    2.230000
        zeta-weighting                 0.500000
      * Dispersion:
        s8                             2.700000
        a1                             0.520000
        a2                             5.000000
        s9                             5.000000
      * Repulsion:
        kExp                           1.500000    1.000000
        rExp                           1.000000
      * Coulomb:
        alpha                          2.000000
        third order                    shell-resolved
        anisotropic                    true
        a3                             3.000000
        a5                             4.000000
        cn-shift                       1.200000
        cn-exp                         4.000000
        max-rad                        5.000000


          ...................................................
          :                      SETUP                      :
          :.................................................:
          :  # basis functions                  98          :
          :  # atomic orbitals                  98          :
          :  # shells                           58          :
          :  # electrons                       112          :
          :  max. iterations                   250          :
          :  Hamiltonian                  GFN2-xTB          :
          :  restarted?                      false          :
          :  GBSA solvation                  false          :
          :  PC potential                    false          :
          :  electronic temp.          300.0000000     K    :
          :  accuracy                    1.0000000          :
          :  -> integral cutoff          0.2500000E+02      :
          :  -> integral neglect         0.1000000E-07      :
          :  -> SCF convergence          0.1000000E-05 Eh   :
          :  -> wf. convergence          0.1000000E-03 e    :
          :  Broyden damping             0.4000000          :
          :  net charge                          0          :
          :  unpaired electrons                  0          :
          ...................................................

 iter      E             dE          RMSdq      gap      omega  full diag
   1    -66.0086387 -0.660086E+02  0.455E+00    4.41       0.0  T
   2    -66.0720488 -0.634101E-01  0.253E+00    4.41       1.0  T
   3    -66.0689918  0.305703E-02  0.885E-01    4.20       1.0  T
   4    -66.0753320 -0.634016E-02  0.290E-01    4.28       1.0  T
   5    -66.0771382 -0.180624E-02  0.951E-02    4.35       1.0  T
   6    -66.0771909 -0.526563E-04  0.439E-02    4.36       1.0  T
   7    -66.0771982 -0.736133E-05  0.161E-02    4.36       1.0  T
   8    -66.0772012 -0.300321E-05  0.510E-03    4.36       3.2  T
   9    -66.0772016 -0.347874E-06  0.211E-03    4.36       7.7  T
  10    -66.0772016 -0.329857E-07  0.910E-04    4.36      17.8  T
  11    -66.0772016 -0.113191E-07  0.381E-04    4.36      42.5  T

   *** convergence criteria satisfied after 11 iterations ***

         #    Occupation            Energy/Eh            Energy/eV
      -------------------------------------------------------------
         1        2.0000           -0.7466720             -20.3180
       ...           ...                  ...                  ...
        50        2.0000           -0.4365935             -11.8803
        51        2.0000           -0.4312624             -11.7352
        52        2.0000           -0.4290787             -11.6758
        53        2.0000           -0.4179389             -11.3727
        54        2.0000           -0.4153953             -11.3035
        55        2.0000           -0.4125217             -11.2253
        56        2.0000           -0.4057832             -11.0419 (HOMO)
        57                         -0.2455822              -6.6826 (LUMO)
        58                         -0.2445201              -6.6537
        59                         -0.1251370              -3.4051
        60                         -0.0759252              -2.0660
        61                         -0.0421110              -1.1459
       ...                                ...                  ...
        98                          0.6113918              16.6368
      -------------------------------------------------------------
                  HL-Gap            0.1602010 Eh            4.3593 eV
             Fermi-level           -0.3256827 Eh           -8.8623 eV

 SCC (total)                   0 d,  0 h,  0 min,  0.046 sec
 SCC setup                      ...        0 min,  0.000 sec (  0.737%)
 Dispersion                     ...        0 min,  0.000 sec (  0.754%)
 classical contributions        ...        0 min,  0.000 sec (  0.264%)
 integral evaluation            ...        0 min,  0.007 sec ( 14.337%)
 iterations                     ...        0 min,  0.019 sec ( 42.180%)
 molecular gradient             ...        0 min,  0.019 sec ( 41.381%)
 printout                       ...        0 min,  0.000 sec (  0.333%)

         :::::::::::::::::::::::::::::::::::::::::::::::::::::
         ::                     SUMMARY                     ::
         :::::::::::::::::::::::::::::::::::::::::::::::::::::
         :: total energy             -65.463446724692 Eh    ::
         :: gradient norm              0.083726369095 Eh/a0 ::
         :: HOMO-LUMO gap              4.359290487409 eV    ::
         ::.................................................::
         :: SCC energy               -66.076615060231 Eh    ::
         :: -> isotropic ES            0.158087543432 Eh    ::
         :: -> anisotropic ES         -0.007217300513 Eh    ::
         :: -> anisotropic XC          0.000567126616 Eh    ::
         :: -> dispersion             -0.037188174255 Eh    ::
         :: repulsion energy           0.613168335539 Eh    ::
         :: add. restraining           0.000000000000 Eh    ::
         :: total charge              -0.000000000000 e     ::
         :::::::::::::::::::::::::::::::::::::::::::::::::::::

      ----------------------------------------------------------- 
     |                   =====================                   |
     |                        A N C O P T                        |
     |                   =====================                   |
     |               Approximate Normal Coordinate               |
     |                Rational Function Optimizer                |
      ----------------------------------------------------------- 
      ----------------------------------------------------------- 
     |                   =====================                   |
     |                        A N C O P T                        |
     |                   =====================                   |
     |               Approximate Normal Coordinate               |
     |                Rational Function Optimizer                |
      ----------------------------------------------------------- 

          ...................................................
          :                      SETUP                      :
          :.................................................:
          :   optimization level            normal          :
          :   max. optcycles                   200          :
          :   ANC micro-cycles                  20          :
          :   degrees of freedom               108          :
          :.................................................:
          :   RF solver                   davidson          :
          :   write xtbopt.log                true          :
          :   linear?                        false          :
          :   energy convergence         0.5000000E-05 Eh   :
          :   grad. convergence          0.1000000E-02 Eh/α :
          :   maxmium RF displ.          1.0000000          :
          :   Hlow (freq-cutoff)         0.1000000E-01      :
          :   Hmax (freq-cutoff)         5.0000000          :
          :   S6 in model hess.         20.0000000          :
          ...................................................

generating ANC from exact Hessian ...
Using Lindh-Hessian (1995)
 Shifting diagonal of input Hessian by    9.5889664872393539E-003
 Lowest  eigenvalues of input Hessian
    0.000000    0.000000    0.000000    0.000000    0.000000    0.000000
    0.010000    0.010468    0.011396    0.012321    0.013293    0.013864
    0.015205    0.015737    0.016999    0.018125    0.019531    0.022579
 Highest eigenvalues
    1.508595    1.571731    1.694819    1.835767    1.953000    2.012475


........................................................................
.............................. CYCLE    1 ..............................
........................................................................

 iter      E             dE          RMSdq      gap      omega  full diag
   1    -66.0772016 -0.660772E+02  0.108E-04    4.36       0.0  T
   2    -66.0772016 -0.689653E-10  0.593E-05    4.36     273.5  T
   3    -66.0772016 -0.123634E-11  0.335E-05    4.36     484.4  T
     SCC iter.                  ...        0 min,  0.005 sec
     gradient                   ...        0 min,  0.019 sec
 * total energy  :   -65.4634467 Eh     change       -0.2848680E-08 Eh
   gradient norm :     0.0837268 Eh/α   predicted     0.0000000E+00 (-100.00%)
   displ. norm   :     0.2694420 α      lambda       -0.1230155E-01
   maximum displ.:     0.0854143 α      in ANC's #52, #27, #12, ...

........................................................................
.............................. CYCLE    2 ..............................
........................................................................

 iter      E             dE          RMSdq      gap      omega  full diag
   1    -66.1086463 -0.661086E+02  0.177E-01    4.43       0.0  T
   2    -66.1086946 -0.482549E-04  0.106E-01    4.43       1.0  T
   3    -66.1086773  0.172546E-04  0.312E-02    4.43       1.0  T
   4    -66.1087032 -0.259133E-04  0.937E-03    4.42       1.7  T
   5    -66.1087051 -0.189271E-05  0.412E-03    4.42       3.9  T
   6    -66.1087053 -0.151097E-06  0.184E-03    4.42       8.8  T
   7    -66.1087053 -0.119695E-07  0.757E-04    4.42      21.4  T
   8    -66.1087053 -0.653348E-08  0.249E-04    4.42      65.1  T
     SCC iter.                  ...        0 min,  0.013 sec
     gradient                   ...        0 min,  0.019 sec
 * total energy  :   -65.4719665 Eh     change       -0.8519803E-02 Eh
   gradient norm :     0.0426097 Eh/α   predicted    -0.6598278E-02 ( -22.55%)
   displ. norm   :     0.2346787 α      lambda       -0.4209396E-02
   maximum displ.:     0.0804047 α      in ANC's #12, #15, #26, ...

........................................................................
.............................. CYCLE    3 ..............................
........................................................................

 iter      E             dE          RMSdq      gap      omega  full diag
   1    -66.1236195 -0.661236E+02  0.124E-01    4.43       0.0  T
   2    -66.1236480 -0.284767E-04  0.740E-02    4.44       1.0  T
   3    -66.1236452  0.281012E-05  0.218E-02    4.44       1.0  T
   4    -66.1236528 -0.759968E-05  0.632E-03    4.44       2.6  T
   5    -66.1236534 -0.554688E-06  0.331E-03    4.44       4.9  T
   6    -66.1236535 -0.107035E-06  0.132E-03    4.44      12.2  T
   7    -66.1236535 -0.534907E-08  0.578E-04    4.44      28.1  T
   8    -66.1236535 -0.302539E-08  0.170E-04    4.44      95.7  T
     SCC iter.                  ...        0 min,  0.013 sec
     gradient                   ...        0 min,  0.019 sec
 * total energy  :   -65.4744008 Eh     change       -0.2434255E-02 Eh
   gradient norm :     0.0116535 Eh/α   predicted    -0.2221445E-02 (  -8.74%)
   displ. norm   :     0.1303346 α      lambda       -0.4669551E-03
   maximum displ.:     0.0446721 α      in ANC's #9, #3, #12, ...

........................................................................
.............................. CYCLE    4 ..............................
........................................................................

 iter      E             dE          RMSdq      gap      omega  full diag
   1    -66.1229411 -0.661229E+02  0.568E-02    4.43       0.0  T
   2    -66.1229431 -0.202368E-05  0.339E-02    4.44       1.0  T
   3    -66.1229425  0.573024E-06  0.548E-03    4.44       3.0  T
   4    -66.1229434 -0.929633E-06  0.195E-03    4.44       8.3  T
   5    -66.1229435 -0.774137E-07  0.928E-04    4.44      17.5  T
   6    -66.1229435 -0.136878E-07  0.389E-04    4.44      41.8  T
     SCC iter.                  ...        0 min,  0.010 sec
     gradient                   ...        0 min,  0.019 sec
 * total energy  :   -65.4747269 Eh     change       -0.3260722E-03 Eh
   gradient norm :     0.0046941 Eh/α   predicted    -0.2374466E-03 ( -27.18%)
   displ. norm   :     0.1439692 α      lambda       -0.2257873E-03
   maximum displ.:     0.0681766 α      in ANC's #3, #5, #9, ...

........................................................................
.............................. CYCLE    5 ..............................
........................................................................

 iter      E             dE          RMSdq      gap      omega  full diag
   1    -66.1212336 -0.661212E+02  0.626E-02    4.43       0.0  T
   2    -66.1212350 -0.134949E-05  0.373E-02    4.44       1.0  T
   3    -66.1212338  0.112456E-05  0.582E-03    4.44       2.8  T
   4    -66.1212353 -0.145133E-05  0.168E-03    4.44       9.7  T
   5    -66.1212353 -0.560411E-07  0.789E-04    4.44      20.6  T
   6    -66.1212354 -0.405142E-08  0.316E-04    4.44      51.3  T
     SCC iter.                  ...        0 min,  0.010 sec
     gradient                   ...        0 min,  0.019 sec
 * total energy  :   -65.4748691 Eh     change       -0.1422711E-03 Eh
   gradient norm :     0.0032316 Eh/α   predicted    -0.1152346E-03 ( -19.00%)
   displ. norm   :     0.1002470 α      lambda       -0.6790364E-04
   maximum displ.:     0.0595348 α      in ANC's #3, #5, #6, ...

........................................................................
.............................. CYCLE    6 ..............................
........................................................................

 iter      E             dE          RMSdq      gap      omega  full diag
   1    -66.1210013 -0.661210E+02  0.422E-02    4.44       0.0  T
   2    -66.1210016 -0.283383E-06  0.249E-02    4.44       1.0  T
   3    -66.1210014  0.198497E-06  0.267E-03    4.44       6.1  T
   4    -66.1210017 -0.288648E-06  0.842E-04    4.44      19.3  T
   5    -66.1210017 -0.877633E-08  0.434E-04    4.44      37.3  T
     SCC iter.                  ...        0 min,  0.008 sec
     gradient                   ...        0 min,  0.019 sec
 * total energy  :   -65.4749209 Eh     change       -0.5174590E-04 Eh
   gradient norm :     0.0029723 Eh/α   predicted    -0.3429883E-04 ( -33.72%)
   displ. norm   :     0.1321882 α      lambda       -0.6991127E-04
   maximum displ.:     0.0807785 α      in ANC's #3, #6, #5, ...

........................................................................
.............................. CYCLE    7 ..............................
........................................................................

 iter      E             dE          RMSdq      gap      omega  full diag
   1    -66.1214473 -0.661214E+02  0.528E-02    4.45       0.0  T
   2    -66.1214475 -0.286080E-06  0.311E-02    4.45       1.0  T
   3    -66.1214475  0.674852E-07  0.229E-03    4.45       7.1  T
   4    -66.1214476 -0.169143E-06  0.914E-04    4.45      17.8  T
   5    -66.1214476 -0.706159E-08  0.460E-04    4.45      35.3  T
     SCC iter.                  ...        0 min,  0.008 sec
     gradient                   ...        0 min,  0.019 sec
 * total energy  :   -65.4749729 Eh     change       -0.5206974E-04 Eh
   gradient norm :     0.0021060 Eh/α   predicted    -0.3558735E-04 ( -31.65%)
   displ. norm   :     0.1285335 α      lambda       -0.5009795E-04
   maximum displ.:     0.0798921 α      in ANC's #3, #6, #1, ...

........................................................................
.............................. CYCLE    8 ..............................
........................................................................

 iter      E             dE          RMSdq      gap      omega  full diag
   1    -66.1220681 -0.661221E+02  0.477E-02    4.45       0.0  T
   2    -66.1220683 -0.193307E-06  0.282E-02    4.45       1.0  T
   3    -66.1220683 -0.174950E-07  0.154E-03    4.45      10.5  T
   4    -66.1220683 -0.525914E-07  0.757E-04    4.45      21.4  T
   5    -66.1220683 -0.377740E-08  0.370E-04    4.45      43.8  T
     SCC iter.                  ...        0 min,  0.008 sec
     gradient                   ...        0 min,  0.019 sec
 * total energy  :   -65.4750111 Eh     change       -0.3818821E-04 Eh
   gradient norm :     0.0018683 Eh/α   predicted    -0.2546309E-04 ( -33.32%)
   displ. norm   :     0.1885190 α      lambda       -0.3930433E-04
   maximum displ.:     0.1182920 α      in ANC's #3, #1, #2, ...

........................................................................
.............................. CYCLE    9 ..............................
........................................................................

 iter      E             dE          RMSdq      gap      omega  full diag
   1    -66.1226797 -0.661227E+02  0.642E-02    4.45       0.0  T
   2    -66.1226800 -0.368155E-06  0.379E-02    4.45       1.0  T
   3    -66.1226801 -0.383199E-07  0.204E-03    4.45       8.0  T
   4    -66.1226802 -0.878924E-07  0.102E-03    4.45      15.9  T
   5    -66.1226802 -0.627064E-08  0.513E-04    4.45      31.6  T
   6    -66.1226802 -0.268589E-08  0.150E-04    4.45     108.5  T
     SCC iter.                  ...        0 min,  0.010 sec
     gradient                   ...        0 min,  0.019 sec
 * total energy  :   -65.4750506 Eh     change       -0.3945904E-04 Eh
   gradient norm :     0.0020190 Eh/α   predicted    -0.1996616E-04 ( -49.40%)
   displ. norm   :     0.0724475 α      lambda       -0.2002115E-04
   maximum displ.:     0.0464372 α      in ANC's #3, #1, #2, ...

........................................................................
.............................. CYCLE   10 ..............................
........................................................................

 iter      E             dE          RMSdq      gap      omega  full diag
   1    -66.1227203 -0.661227E+02  0.212E-02    4.45       0.0  T
   2    -66.1227204 -0.618071E-07  0.125E-02    4.45       1.3  T
   3    -66.1227203  0.121510E-07  0.102E-03    4.45      15.9  T
   4    -66.1227204 -0.295774E-07  0.405E-04    4.45      40.1  T
   5    -66.1227204 -0.165031E-08  0.197E-04    4.45      82.3  T
     SCC iter.                  ...        0 min,  0.008 sec
     gradient                   ...        0 min,  0.019 sec
 * total energy  :   -65.4750677 Eh     change       -0.1713706E-04 Eh
   gradient norm :     0.0013404 Eh/α   predicted    -0.1006427E-04 ( -41.27%)
   displ. norm   :     0.1674814 α      lambda       -0.2787129E-04
   maximum displ.:     0.1049831 α      in ANC's #3, #1, #2, ...

........................................................................
.............................. CYCLE   11 ..............................
........................................................................

 iter      E             dE          RMSdq      gap      omega  full diag
   1    -66.1224890 -0.661225E+02  0.437E-02    4.44       0.0  T
   2    -66.1224893 -0.343063E-06  0.258E-02    4.44       1.0  T
   3    -66.1224892  0.842703E-07  0.242E-03    4.44       6.7  T
   4    -66.1224894 -0.169460E-06  0.912E-04    4.44      17.8  T
   5    -66.1224894 -0.972491E-08  0.443E-04    4.44      36.6  T
     SCC iter.                  ...        0 min,  0.008 sec
     gradient                   ...        0 min,  0.019 sec
 * total energy  :   -65.4750927 Eh     change       -0.2501963E-04 Eh
   gradient norm :     0.0013507 Eh/α   predicted    -0.1410997E-04 ( -43.60%)
   displ. norm   :     0.0706138 α      lambda       -0.7283078E-05
   maximum displ.:     0.0444949 α      in ANC's #3, #1, #2, ...

........................................................................
.............................. CYCLE   12 ..............................
........................................................................

 iter      E             dE          RMSdq      gap      omega  full diag
   1    -66.1223844 -0.661224E+02  0.188E-02    4.44       0.0  T
   2    -66.1223845 -0.531129E-07  0.111E-02    4.44       1.5  T
   3    -66.1223845  0.295692E-07  0.108E-03    4.44      15.1  T
   4    -66.1223845 -0.446524E-07  0.376E-04    4.44      43.2  T
   5    -66.1223845 -0.206657E-08  0.162E-04    4.44      99.9  T
     SCC iter.                  ...        0 min,  0.008 sec
     gradient                   ...        0 min,  0.019 sec
 * total energy  :   -65.4751020 Eh     change       -0.9299694E-05 Eh
   gradient norm :     0.0010147 Eh/α   predicted    -0.3650388E-05 ( -60.75%)
   displ. norm   :     0.1208995 α      lambda       -0.1306908E-04
   maximum displ.:     0.0737742 α      in ANC's #1, #3, #2, ...

........................................................................
.............................. CYCLE   13 ..............................
........................................................................

 iter      E             dE          RMSdq      gap      omega  full diag
   1    -66.1227388 -0.661227E+02  0.297E-02    4.44       0.0  T
   2    -66.1227390 -0.144035E-06  0.175E-02    4.44       1.0  T
   3    -66.1227389  0.104528E-06  0.193E-03    4.44       8.4  T
   4    -66.1227390 -0.149424E-06  0.625E-04    4.44      25.9  T
   5    -66.1227390 -0.522795E-08  0.242E-04    4.44      67.0  T
     SCC iter.                  ...        0 min,  0.008 sec
     gradient                   ...        0 min,  0.019 sec
 * total energy  :   -65.4751160 Eh     change       -0.1394409E-04 Eh
   gradient norm :     0.0006184 Eh/α   predicted    -0.6578223E-05 ( -52.82%)
   displ. norm   :     0.0957474 α      lambda       -0.6186276E-05
   maximum displ.:     0.0629873 α      in ANC's #1, #3, #2, ...

........................................................................
.............................. CYCLE   14 ..............................
........................................................................

 iter      E             dE          RMSdq      gap      omega  full diag
   1    -66.1225645 -0.661226E+02  0.248E-02    4.44       0.0  T
   2    -66.1225646 -0.807972E-07  0.146E-02    4.44       1.1  T
   3    -66.1225646  0.384120E-07  0.131E-03    4.44      12.4  T
   4    -66.1225647 -0.646713E-07  0.497E-04    4.44      32.6  T
   5    -66.1225647 -0.340818E-08  0.170E-04    4.44      95.4  T
     SCC iter.                  ...        0 min,  0.008 sec
     gradient                   ...        0 min,  0.019 sec
 * total energy  :   -65.4751225 Eh     change       -0.6512990E-05 Eh
   gradient norm :     0.0006642 Eh/α   predicted    -0.3108914E-05 ( -52.27%)
   displ. norm   :     0.0531148 α      lambda       -0.3409181E-05
   maximum displ.:     0.0384238 α      in ANC's #1, #6, #3, ...

........................................................................
.............................. CYCLE   15 ..............................
........................................................................

 iter      E             dE          RMSdq      gap      omega  full diag
   1    -66.1227486 -0.661227E+02  0.132E-02    4.44       0.0  T
   2    -66.1227486 -0.247227E-07  0.781E-03    4.44       2.1  T
   3    -66.1227486  0.858338E-08  0.733E-04    4.44      22.1  T
   4    -66.1227486 -0.179839E-07  0.284E-04    4.44      57.0  T
     SCC iter.                  ...        0 min,  0.007 sec
     gradient                   ...        0 min,  0.019 sec
 * total energy  :   -65.4751266 Eh     change       -0.4078617E-05 Eh
   gradient norm :     0.0005252 Eh/α   predicted    -0.1707226E-05 ( -58.14%)
   displ. norm   :     0.0485355 α      lambda       -0.3679691E-05
   maximum displ.:     0.0366183 α      in ANC's #1, #6, #8, ...

   *** GEOMETRY OPTIMIZATION CONVERGED AFTER 15 ITERATIONS ***

------------------------------------------------------------------------
 total energy gain   :        -0.0116799 Eh       -7.3292 kcal/mol
 total RMSD          :         0.2246067 a0        0.1189 Å
 total power (kW/mol):        -2.0443644 (step)  -56.4299 (real)
------------------------------------------------------------------------

 ANCopt (total)                0 d,  0 h,  0 min,  0.543 sec
 optimizer setup                ...        0 min,  0.000 sec (  0.014%)
 model hessian                  ...        0 min,  0.017 sec (  3.038%)
 ANC generation                 ...        0 min,  0.001 sec (  0.230%)
 coordinate transformation      ...        0 min,  0.000 sec (  0.016%)
 single point calculation       ...        0 min,  0.521 sec ( 95.800%)
 optimization log               ...        0 min,  0.003 sec (  0.630%)
 hessian update                 ...        0 min,  0.000 sec (  0.030%)
 rational function              ...        0 min,  0.001 sec (  0.152%)

================
 final structure:
================
38
 xtb: 6.7.1 (edcfbbe)
O           -0.73578871356003       -0.59438546915277        3.34002277561002
C           -1.75638626131132       -0.99374397780412        2.47336507075022
C           -1.77174937944324       -0.18783118784240        1.16629597579948
O           -0.55600499635742       -0.46322533754563        0.49084180627701
C           -0.40037409916679        0.22789006704867       -0.72654382622876
C           -1.50447239142369       -0.17792399628691       -1.71141546045512
C           -2.86236228318162        0.12804913168572       -1.07680567933179
C           -2.97196891523157       -0.56503375457014        0.28909958953658
O           -4.14603029154713       -0.18539315863641        0.94944647675598
O           -3.92438938412988       -0.32696431364852       -1.87710077588712
O           -1.40583862440183        0.53992122163117       -2.91557421414149
O            0.82214440110769       -0.12837757224700       -1.27744405224878
C            1.94013418700844        0.52283836838155       -0.74397931658862
C            2.12413394766247        1.87649367532717       -0.98777834905351
C            3.24988312038847        2.51937915572487       -0.50584910921243
C            4.19149214879507        1.80892990383577        0.21778916657259
C            4.00628158536199        0.45826361502910        0.45286243304170
C            2.88501403817553       -0.20780054566603       -0.02350723846008
C            2.66929005479244       -1.67512855202642        0.26489931453313
O            1.73503856608188       -1.88437514699195        1.29874796582526
H            0.11813121477617       -0.82067752173595        2.94829506406988
H           -2.70119944824488       -0.81531848943529        2.98933997970280
H           -1.67328046837925       -2.05987445680307        2.22452183281684
H           -1.82612075307454        0.88508121979615        1.40293438807831
H           -0.46002540841297        1.31801342674857       -0.53913379598337
H           -1.41875308406650       -1.26009721373698       -1.89449131408676
H           -2.94048880756215        1.21909915380948       -0.93532076329821
H           -2.96169569349025       -1.65393608516583        0.11593516322704
H           -4.87101270627813       -0.28046745242102        0.31775129674961
H           -3.76102088060820       -0.01988901636121       -2.77703785038806
H           -0.51162990862242        0.42204828495440       -3.25961413100100
H            1.38734163544594        2.41929049422278       -1.56252645440847
H            3.38931737972701        3.57214621743291       -0.69952265899388
H            5.07007011493386        2.30710988168121        0.59818108421061
H            4.73889593538878       -0.09556250356276        1.02053618777514
H            3.60258368503025       -2.12844896010718        0.60689431144606
H            2.34338425181585       -2.18122839429630       -0.65509570256234
H            0.88725623200174       -1.51897071126715        1.00098080955213

 Bond Distances (Angstroems)
 ---------------------------
O1-C2=1.3972         O1-H21=0.9664        C2-O1=1.3972         C2-C3=1.5356         C2-H22=1.0912        C2-H23=1.0979        
C3-C2=1.5356         C3-O4=1.4178         C3-C8=1.5337         C3-H24=1.1000        O4-C3=1.4178         O4-C5=1.4085         
C5-O4=1.4085         C5-C6=1.5342         C5-O12=1.3874        C5-H25=1.1077        C6-C5=1.5342         C6-C7=1.5298         
C6-O11=1.4054        C6-H26=1.1009        C7-C6=1.5298         C7-C8=1.5356         C7-O10=1.4055        C7-H27=1.1030        
C8-C3=1.5337         C8-C7=1.5356         C8-O9=1.3995         C8-H28=1.1026        O9-C8=1.3995         O9-H29=0.9663        
O10-C7=1.4055        O10-H30=0.9648       O11-C6=1.4054        O11-H31=0.9653       O12-C5=1.3874        O12-C13=1.3995       
C13-O12=1.3995       C13-C14=1.3877       C13-C18=1.3949       C14-C13=1.3877       C14-C15=1.3831       C14-H32=1.0807       
C15-C14=1.3831       C15-C16=1.3838       C15-H33=1.0795       C16-C15=1.3838       C16-C17=1.3834       C16-H34=1.0793       
C17-C16=1.3834       C17-C18=1.3885       C17-H35=1.0797       C18-C13=1.3949       C18-C17=1.3885       C18-C19=1.5109       
C19-C18=1.5109       C19-O20=1.4091       C19-H36=1.0925       C19-H37=1.0994       O20-C19=1.4091       O20-H38=0.9700       
H21-O1=0.9664        H22-C2=1.0912        H23-C2=1.0979        H24-C3=1.1000        H25-C5=1.1077        H26-C6=1.1009        
H27-C7=1.1030        H28-C8=1.1026        H29-O9=0.9663        H30-O10=0.9648       H31-O11=0.9653       H32-C14=1.0807       
H33-C15=1.0795       H34-C16=1.0793       H35-C17=1.0797       H36-C19=1.0925       H37-C19=1.0994       H38-O20=0.9700       
 C  H  Rav=1.0934 sigma=0.0100  Rmin=1.0793  Rmax=1.1077    13
 C  C  Rav=1.4584 sigma=0.0719  Rmin=1.3831  Rmax=1.5356    12
 O  H  Rav=0.9666 sigma=0.0018  Rmin=0.9648  Rmax=0.9700     5
 O  C  Rav=1.4033 sigma=0.0081  Rmin=1.3874  Rmax=1.4178     9

 selected bond angles (degree)
 --------------------
H21-O1-C2=109.09               C3-C2-O1=112.66                H22-C2-O1=107.00               H22-C2-C3=107.94               
H23-C2-O1=111.27               H23-C2-C3=108.51               H23-C2-H22=109.36              O4-C3-C2=107.16                
C8-C3-C2=111.44                C8-C3-O4=110.54                H24-C3-C2=109.22               H24-C3-O4=109.53               
H24-C3-C8=108.92               C5-O4-C3=114.28                C6-C5-O4=110.21                O12-C5-O4=108.33               
O12-C5-C6=108.14               H25-C5-O4=109.31               H25-C5-C6=109.28               H25-C5-O12=111.55              
C7-C6-C5=108.64                O11-C6-C5=111.37               O11-C6-C7=108.40               H26-C6-C5=108.10               
H26-C6-C7=109.56               H26-C6-O11=110.74              C8-C7-C6=110.00                O10-C7-C6=111.70               
O10-C7-C8=107.84               H27-C7-C6=108.30               H27-C7-C8=109.11               H27-C7-O10=109.86              
C7-C8-C3=109.99                O9-C8-C3=108.66                O9-C8-C7=110.93                H28-C8-C3=108.99               
H28-C8-C7=107.78               H28-C8-O9=110.48               H29-O9-C8=107.11               H30-O10-C7=107.47              

 selected dihedral angles (degree)
 ---------------------------------
C3-C2-O1-H21=292.90           H22-C2-O1-H21=174.43          H23-C2-O1-H21= 55.02          O4-C3-C2-O1= 63.82            
O4-C3-C2-H22=181.74           O4-C3-C2-H23=300.15           C8-C3-C2-O1=184.87            C8-C3-C2-H22=302.79           
C8-C3-C2-H23= 61.20           H24-C3-C2-O1=305.25           H24-C3-C2-H22= 63.17          H24-C3-C2-H23=181.59          
C5-O4-C3-C2=181.26            C5-O4-C3-C8= 59.64            C5-O4-C3-H24=299.62           C6-C5-O4-C3=298.03            
O12-C5-O4-C3=179.90           H25-C5-O4-C3= 58.15           C7-C6-C5-O4= 58.17            C7-C6-C5-O12=176.42           
C7-C6-C5-H25=298.03           O11-C6-C5-O4=177.49           O11-C6-C5-O12=295.74          O11-C6-C5-H25= 57.35          
H26-C6-C5-O4=299.36           H26-C6-C5-O12= 57.62          H26-C6-C5-H25=179.22          C8-C7-C6-C5=304.91            
C8-C7-C6-O11=183.75           C8-C7-C6-H26= 62.80           O10-C7-C6-C5=185.19           O10-C7-C6-O11= 64.02          
O10-C7-C6-H26=303.08          H27-C7-C6-C5= 64.07           H27-C7-C6-O11=302.91          H27-C7-C6-H26=181.96          
C7-C8-C3-C2=186.95            C7-C8-C3-O4=306.00            C7-C8-C3-H24= 66.38           O9-C8-C3-C2= 65.35            
O9-C8-C3-O4=184.40            O9-C8-C3-H24=304.78           H28-C8-C3-C2=304.91           H28-C8-C3-O4= 63.96           
H28-C8-C3-H24=184.34          C3-C8-C7-C6= 53.51            C3-C8-C7-O10=175.56           C3-C8-C7-H27=294.85           
O9-C8-C7-C6=173.75            O9-C8-C7-O10=295.79           O9-C8-C7-H27= 55.08           H28-C8-C7-C6=294.81           
H28-C8-C7-O10= 56.85          H28-C8-C7-H27=176.14          H29-O9-C8-C3=169.77           H29-O9-C8-C7= 48.75           
H29-O9-C8-H28=289.29          H30-O10-C7-C6=311.27          H30-O10-C7-C8=190.28          H30-O10-C7-H27= 71.47         
           -------------------------------------------------
          |                Final Singlepoint                |
           -------------------------------------------------

          ...................................................
          :                      SETUP                      :
          :.................................................:
          :  # basis functions                  98          :
          :  # atomic orbitals                  98          :
          :  # shells                           58          :
          :  # electrons                       112          :
          :  max. iterations                   250          :
          :  Hamiltonian                  GFN2-xTB          :
          :  restarted?                      false          :
          :  GBSA solvation                  false          :
          :  PC potential                    false          :
          :  electronic temp.          300.0000000     K    :
          :  accuracy                    1.0000000          :
          :  -> integral cutoff          0.2500000E+02      :
          :  -> integral neglect         0.1000000E-07      :
          :  -> SCF convergence          0.1000000E-05 Eh   :
          :  -> wf. convergence          0.1000000E-03 e    :
          :  Broyden damping             0.4000000          :
          :  net charge                          0          :
          :  unpaired electrons                  0          :
          ...................................................

 iter      E             dE          RMSdq      gap      omega  full diag
   1    -66.1227486 -0.661227E+02  0.120E-04    4.44       0.0  T
   2    -66.1227486 -0.904521E-10  0.764E-05    4.44     212.4  T
   3    -66.1227486 -0.313634E-10  0.491E-05    4.44     330.6  T

   *** convergence criteria satisfied after 3 iterations ***

         #    Occupation            Energy/Eh            Energy/eV
      -------------------------------------------------------------
         1        2.0000           -0.7466304             -20.3168
       ...           ...                  ...                  ...
        50        2.0000           -0.4336184             -11.7994
        51        2.0000           -0.4280050             -11.6466
        52        2.0000           -0.4263153             -11.6006
        53        2.0000           -0.4204454             -11.4409
        54        2.0000           -0.4160686             -11.3218
        55        2.0000           -0.4126618             -11.2291
        56        2.0000           -0.4068022             -11.0697 (HOMO)
        57                         -0.2434609              -6.6249 (LUMO)
        58                         -0.2420665              -6.5870
        59                         -0.1166861              -3.1752
        60                         -0.0415502              -1.1306
        61                         -0.0229458              -0.6244
       ...                                ...                  ...
        98                          0.6388067              17.3828
      -------------------------------------------------------------
                  HL-Gap            0.1633413 Eh            4.4447 eV
             Fermi-level           -0.3251316 Eh           -8.8473 eV

 SCC (total)                   0 d,  0 h,  0 min,  0.031 sec
 SCC setup                      ...        0 min,  0.000 sec (  0.792%)
 Dispersion                     ...        0 min,  0.000 sec (  0.789%)
 classical contributions        ...        0 min,  0.000 sec (  0.372%)
 integral evaluation            ...        0 min,  0.006 sec ( 20.594%)
 iterations                     ...        0 min,  0.005 sec ( 16.121%)
 molecular gradient             ...        0 min,  0.019 sec ( 60.898%)
 printout                       ...        0 min,  0.000 sec (  0.411%)

         :::::::::::::::::::::::::::::::::::::::::::::::::::::
         ::                     SUMMARY                     ::
         :::::::::::::::::::::::::::::::::::::::::::::::::::::
         :: total energy             -65.475126584722 Eh    ::
         :: gradient norm              0.000525233579 Eh/a0 ::
         :: HOMO-LUMO gap              4.444743970374 eV    ::
         ::.................................................::
         :: SCC energy               -66.122168675555 Eh    ::
         :: -> isotropic ES            0.153502149129 Eh    ::
         :: -> anisotropic ES         -0.008221297060 Eh    ::
         :: -> anisotropic XC         -0.002497564421 Eh    ::
         :: -> dispersion             -0.037342612728 Eh    ::
         :: repulsion energy           0.647042090834 Eh    ::
         :: add. restraining           0.000000000000 Eh    ::
         :: total charge              -0.000000000000 e     ::
         :::::::::::::::::::::::::::::::::::::::::::::::::::::

           -------------------------------------------------
          |                Property Printout                |
           -------------------------------------------------

    * Orbital Energies and Occupations

         #    Occupation            Energy/Eh            Energy/eV
      -------------------------------------------------------------
         1        2.0000           -0.7466304             -20.3168
       ...           ...                  ...                  ...
        44        2.0000           -0.4717823             -12.8378
        45        2.0000           -0.4597562             -12.5106
        46        2.0000           -0.4584703             -12.4756
        47        2.0000           -0.4549005             -12.3785
        48        2.0000           -0.4498377             -12.2407
        49        2.0000           -0.4376852             -11.9100
        50        2.0000           -0.4336184             -11.7994
        51        2.0000           -0.4280050             -11.6466
        52        2.0000           -0.4263153             -11.6006
        53        2.0000           -0.4204454             -11.4409
        54        2.0000           -0.4160686             -11.3218
        55        2.0000           -0.4126618             -11.2291
        56        2.0000           -0.4068022             -11.0697 (HOMO)
        57                         -0.2434609              -6.6249 (LUMO)
        58                         -0.2420665              -6.5870
        59                         -0.1166861              -3.1752
        60                         -0.0415502              -1.1306
        61                         -0.0229458              -0.6244
        62                          0.0025048               0.0682
        63                          0.0217914               0.5930
        64                          0.0300249               0.8170
        65                          0.0611260               1.6633
        66                          0.0667704               1.8169
        67                          0.0714195               1.9434
       ...                                ...                  ...
        98                          0.6388067              17.3828
      -------------------------------------------------------------
                  HL-Gap            0.1633413 Eh            4.4447 eV
             Fermi-level           -0.3251316 Eh           -8.8473 eV

     #   Z          covCN         q      C6AA      α(0)
     1   8 O        1.656    -0.427    21.382     6.242
     2   6 C        3.676     0.071    19.603     6.343
     3   6 C        3.748     0.094    19.081     6.230
     4   8 O        1.701    -0.353    19.939     6.029
     5   6 C        3.654     0.250    17.012     5.922
     6   6 C        3.727     0.088    19.215     6.258
     7   6 C        3.731     0.099    19.030     6.227
     8   6 C        3.729     0.095    19.102     6.239
     9   8 O        1.657    -0.437    21.588     6.272
    10   8 O        1.656    -0.443    21.695     6.288
    11   8 O        1.656    -0.444    21.713     6.290
    12   8 O        1.705    -0.314    19.244     5.923
    13   6 C        2.878     0.133    25.089     8.211
    14   6 C        2.917    -0.052    29.297     8.876
    15   6 C        2.921    -0.030    28.749     8.793
    16   6 C        2.918    -0.032    28.802     8.801
    17   6 C        2.926    -0.033    28.817     8.803
    18   6 C        2.964    -0.013    28.324     8.729
    19   6 C        3.679     0.084    19.384     6.306
    20   8 O        1.655    -0.459    22.021     6.335
    21   1 H        0.805     0.311     0.689     1.303
    22   1 H        0.924     0.079     1.987     2.204
    23   1 H        0.923     0.038     2.471     2.458
    24   1 H        0.923     0.045     2.385     2.415
    25   1 H        0.922     0.007     2.934     2.679
    26   1 H        0.923     0.041     2.434     2.440
    27   1 H        0.923     0.033     2.543     2.494
    28   1 H        0.923     0.036     2.510     2.477
    29   1 H        0.805     0.322     0.658     1.274
    30   1 H        0.805     0.316     0.674     1.290
    31   1 H        0.805     0.311     0.688     1.303
    32   1 H        0.926     0.043     2.409     2.427
    33   1 H        0.926     0.046     2.367     2.406
    34   1 H        0.926     0.047     2.354     2.399
    35   1 H        0.926     0.052     2.295     2.369
    36   1 H        0.924     0.049     2.331     2.388
    37   1 H        0.923     0.031     2.578     2.511
    38   1 H        0.804     0.312     0.686     1.301

 Mol. C6AA /au·bohr⁶  :      14023.947653
 Mol. C8AA /au·bohr⁸  :     316305.433241
 Mol. α(0) /au        :        177.257793


Wiberg/Mayer (AO) data.
largest (>0.10) Wiberg bond orders for each atom

 ---------------------------------------------------------------------------
     #   Z sym  total        # sym  WBO       # sym  WBO       # sym  WBO
 ---------------------------------------------------------------------------
     1   8 O    1.972 --     2 C    1.021    21 H    0.885
     2   6 C    3.960 --     1 O    1.021     3 C    0.973    23 H    0.967
                            22 H    0.965
     3   6 C    3.933 --     2 C    0.973     8 C    0.970    24 H    0.957
                             4 O    0.949
     4   8 O    2.083 --     5 C    0.952     3 C    0.949
     5   6 C    3.928 --    12 O    0.990     6 C    0.952     4 O    0.952
                            25 H    0.944
     6   6 C    3.959 --    11 O    0.999     7 C    0.971    26 H    0.956
                             5 C    0.952
     7   6 C    3.962 --    10 O    1.000     6 C    0.971     8 C    0.968
                            27 H    0.956
     8   6 C    3.965 --     9 O    1.008     3 C    0.970     7 C    0.968
                            28 H    0.955
     9   8 O    1.959 --     8 C    1.008    29 H    0.878
    10   8 O    1.958 --     7 C    1.000    30 H    0.882
    11   8 O    1.959 --     6 C    0.999    31 H    0.884
    12   8 O    2.132 --     5 C    0.990    13 C    0.964
    13   6 C    3.922 --    14 C    1.405    18 C    1.375    12 O    0.964
                            16 C    0.104
    14   6 C    3.991 --    15 C    1.440    13 C    1.405    32 H    0.966
                            17 C    0.109
    15   6 C    3.991 --    14 C    1.440    16 C    1.437    33 H    0.970
                            18 C    0.109
    16   6 C    3.991 --    17 C    1.443    15 C    1.437    34 H    0.970
                            13 C    0.104
    17   6 C    3.990 --    16 C    1.443    18 C    1.418    35 H    0.967
                            14 C    0.109
    18   6 C    3.986 --    17 C    1.418    13 C    1.375    19 C    0.993
                            15 C    0.109
    19   6 C    3.963 --    20 O    0.998    18 C    0.993    36 H    0.972
                            37 H    0.964
    20   8 O    1.951 --    19 C    0.998    38 H    0.859
    21   1 H    0.903 --     1 O    0.885
    22   1 H    0.993 --     2 C    0.965
    23   1 H    0.999 --     2 C    0.967
    24   1 H    0.998 --     3 C    0.957
    25   1 H    1.000 --     5 C    0.944
    26   1 H    0.998 --     6 C    0.956
    27   1 H    0.999 --     7 C    0.956
    28   1 H    0.999 --     8 C    0.955
    29   1 H    0.896 --     9 O    0.878
    30   1 H    0.900 --    10 O    0.882
    31   1 H    0.903 --    11 O    0.884
    32   1 H    0.998 --    14 C    0.966
    33   1 H    0.997 --    15 C    0.970
    34   1 H    0.997 --    16 C    0.970
    35   1 H    0.997 --    17 C    0.967
    36   1 H    0.997 --    19 C    0.972
    37   1 H    0.999 --    19 C    0.964
    38   1 H    0.903 --    20 O    0.859
 ---------------------------------------------------------------------------

Topologies differ in total number of bonds
Writing topology from bond orders to xtbtopo.mol

molecular dipole:
                 x           y           z       tot (Debye)
 q only:        0.443       0.466      -1.009
   full:        0.550       0.623      -1.737       4.893
molecular quadrupole (traceless):
                xx          xy          yy          xz          yz          zz
 q only:        8.117       5.249      -0.352       1.593       0.643      -7.765
  q+dip:        4.639       4.984       8.317       5.904       1.714     -12.956
   full:        6.034       5.021       4.607       3.875       1.936     -10.642

           -------------------------------------------------
          |                Geometry Summary                 |
           -------------------------------------------------

      molecular mass/u    :      286.2783346
   center of mass at/Å    :       -0.0533666      -0.0158150      -0.0345669
  moments of inertia/u·Å² :        0.9656297E+03   0.2162133E+04   0.2688460E+04
rotational constants/cm⁻¹ :        0.1745766E-01   0.7796761E-02   0.6270367E-02

 * 37 selected distances

     #   Z          #   Z                                           value/Å
     1   8 O        2   6 C                                       1.3972124
     2   6 C        3   6 C                                       1.5356307 (max)
     3   6 C        4   8 O                                       1.4177853
     4   8 O        5   6 C                                       1.4085062
     5   6 C        6   6 C                                       1.5341743
     6   6 C        7   6 C                                       1.5297760
     3   6 C        8   6 C                                       1.5337153
     7   6 C        8   6 C                                       1.5356025
     8   6 C        9   8 O                                       1.3995019
     7   6 C       10   8 O                                       1.4054933
     6   6 C       11   8 O                                       1.4053573
     5   6 C       12   8 O                                       1.3874327
    13   6 C       14   6 C                                       1.3876876
    14   6 C       15   6 C                                       1.3830651
    15   6 C       16   6 C                                       1.3838419
    16   6 C       17   6 C                                       1.3834241
    13   6 C       18   6 C                                       1.3948876
    17   6 C       18   6 C                                       1.3884563
    19   6 C       20   8 O                                       1.4090612
     1   8 O       21   1 H                                       0.9663530
     2   6 C       22   1 H                                       1.0912094
     2   6 C       23   1 H                                       1.0979362
     3   6 C       24   1 H                                       1.1000433
     5   6 C       25   1 H                                       1.1077229
     6   6 C       26   1 H                                       1.1008922
     7   6 C       27   1 H                                       1.1029561
     8   6 C       28   1 H                                       1.1026332
     9   8 O       29   1 H                                       0.9662699
    10   8 O       30   1 H                                       0.9648168 (min)
    11   8 O       31   1 H                                       0.9653325
    14   6 C       32   1 H                                       1.0806604
    15   6 C       33   1 H                                       1.0794768
    16   6 C       34   1 H                                       1.0792501
    17   6 C       35   1 H                                       1.0796763
    19   6 C       36   1 H                                       1.0924730
    19   6 C       37   1 H                                       1.0994284
    20   8 O       38   1 H                                       0.9700107

 * 4 distinct bonds (by element types)

   Z      Z             #   av. dist./Å        max./Å        min./Å
   1 H    6 C          13     1.0934122     1.1077229     1.0792501
   6 C    6 C          11     1.4536601     1.5356307     1.3830651
   1 H    8 O           5     0.9665566     0.9700107     0.9648168
   6 C    8 O           8     1.4037938     1.4177853     1.3874327


optimized geometry written to: xtbopt.xyz


           -------------------------------------------------
          | TOTAL ENERGY              -65.475126584722 Eh   |
          | GRADIENT NORM               0.000525233579 Eh/α |
          | HOMO-LUMO GAP               4.444743970374 eV   |
           -------------------------------------------------

------------------------------------------------------------------------
 * finished run on 2025/05/15 at 16:05:48.239     
------------------------------------------------------------------------
 total:
 * wall-time:     0 d,  0 h,  0 min,  0.636 sec
 *  cpu-time:     0 d,  0 h,  0 min,  0.627 sec
 * ratio c/w:     0.987 speedup
 SCF:
 * wall-time:     0 d,  0 h,  0 min,  0.046 sec
 *  cpu-time:     0 d,  0 h,  0 min,  0.046 sec
 * ratio c/w:     0.995 speedup
 ANC optimizer:
 * wall-time:     0 d,  0 h,  0 min,  0.578 sec
 *  cpu-time:     0 d,  0 h,  0 min,  0.570 sec
 * ratio c/w:     0.987 speedup



----- Single-point -----
      -----------------------------------------------------------      
     |                   =====================                   |     
     |                           x T B                           |     
     |                   =====================                   |     
     |                         S. Grimme                         |     
     |          Mulliken Center for Theoretical Chemistry        |     
     |                    University of Bonn                     |     
      -----------------------------------------------------------      

   * xtb version 6.7.1 (edcfbbe) compiled by 'conda@3ef47c1a292c' on 2024-11-25

   xtb is free software: you can redistribute it and/or modify it under
   the terms of the GNU Lesser General Public License as published by
   the Free Software Foundation, either version 3 of the License, or
   (at your option) any later version.
   
   xtb is distributed in the hope that it will be useful,
   but WITHOUT ANY WARRANTY; without even the implied warranty of
   MERCHANTABILITY or FITNESS FOR A PARTICULAR PURPOSE.  See the
   GNU Lesser General Public License for more details.
   
   Cite this work as:
   * C. Bannwarth, E. Caldeweyher, S. Ehlert, A. Hansen, P. Pracht,
     J. Seibert, S. Spicher, S. Grimme, WIREs Comput. Mol. Sci., 2020, 11,
     e01493. DOI: 10.1002/wcms.1493
   
   for GFN2-xTB:
   * C. Bannwarth, S. Ehlert and S. Grimme., J. Chem. Theory Comput., 2019,
     15, 1652-1671. DOI: 10.1021/acs.jctc.8b01176
   for GFN1-xTB:
   * S. Grimme, C. Bannwarth, P. Shushkov, J. Chem. Theory Comput., 2017,
     13, 1989-2009. DOI: 10.1021/acs.jctc.7b00118
   for GFN0-xTB:
   * P. Pracht, E. Caldeweyher, S. Ehlert, S. Grimme, ChemRxiv, 2019, preprint.
     DOI: 10.26434/chemrxiv.8326202.v1
   for GFN-FF:
   * S. Spicher and S. Grimme, Angew. Chem. Int. Ed., 2020, 59, 15665-15673.
     DOI: 10.1002/anie.202004239
   
   for ALPB and GBSA implicit solvation:
   * S. Ehlert, M. Stahn, S. Spicher, S. Grimme, J. Chem. Theory Comput.,
     2021, 17, 4250-4261. DOI: 10.1021/acs.jctc.1c00471
   
   for ddCOSMO and CPCM-X implicit solvation:
   * M. Stahn, S. Ehlert, S. Grimme, J. Phys. Chem. A,
     2023, XX, XXXX-XXXX. DOI: 10.1021/acs.jpca.3c04382
   
   for DFT-D4:
   * E. Caldeweyher, C. Bannwarth and S. Grimme, J. Chem. Phys., 2017,
     147, 034112. DOI: 10.1063/1.4993215
   * E. Caldeweyher, S. Ehlert, A. Hansen, H. Neugebauer, S. Spicher,
     C. Bannwarth and S. Grimme, J. Chem. Phys., 2019, 150, 154122.
     DOI: 10.1063/1.5090222
   * E. Caldeweyher, J.-M. Mewes, S. Ehlert and S. Grimme, Phys. Chem. Chem. Phys.
     2020, 22, 8499-8512. DOI: 10.1039/D0CP00502A
   
   for sTDA-xTB:
   * S. Grimme and C. Bannwarth, J. Chem. Phys., 2016, 145, 054103.
     DOI: 10.1063/1.4959605
   
   in the mass-spec context:
   * V. Asgeirsson, C. Bauer and S. Grimme, Chem. Sci., 2017, 8, 4879.
     DOI: 10.1039/c7sc00601b
   * J. Koopman and S. Grimme, ACS Omega 2019, 4, 12, 15120-15133.
     DOI: 10.1021/acsomega.9b02011
   
   for metadynamics refer to:
   * S. Grimme, J. Chem. Theory Comput., 2019, 155, 2847-2862
     DOI: 10.1021/acs.jctc.9b00143
   
   for SPH calculations refer to:
   * S. Spicher and S. Grimme, J. Chem. Theory Comput., 2021, 17, 1701-1714
     DOI: 10.1021/acs.jctc.0c01306
   
   for ONIOM refer to:
   * C. Plett, A. Katbashev, S. Ehlert, S. Grimme, M. Bursch,
     Phys. Chem. Chem. Phys., 2023, 25, 17860-17868. DOI: 10.1039/D3CP02178E
   
   for DIPRO refer to:
   * J. Kohn, N. Gildemeister, S. Grimme, D. Fazzi, A. Hansen,
     J. Chem. Phys., 2023, just accepted.
   
   for PTB refer to:
   * S. Grimme, M. Mueller, A. Hansen, J. Chem. Phys., 2023, 158, 124111.
     DOI: 10.1063/5.0137838
   
   with help from (in alphabetical order)
   P. Atkinson, C. Bannwarth, F. Bohle, G. Brandenburg, E. Caldeweyher
   M. Checinski, S. Dohm, S. Ehlert, S. Ehrlich, I. Gerasimov, C. Hölzer
   A. Katbashev, J. Kohn, J. Koopman, C. Lavigne, S. Lehtola, F. März, M. Müller,
   F. Musil, H. Neugebauer, J. Pisarek, C. Plett, P. Pracht, F. Pultar,
   J. Seibert, P. Shushkov, S. Spicher, M. Stahn, M. Steiner, T. Strunk,
   J. Stückrath, T. Rose, and J. Unsleber
   
 * started run on 2025/05/15 at 16:05:48.268     
   ID    Z sym.   atoms
    1    8 O      1, 4, 9-12, 20
    2    6 C      2, 3, 5-8, 13-19
    3    1 H      21-38

           -------------------------------------------------
          |                Calculation Setup                |
           -------------------------------------------------

          program call               : xtb /rds/general/user/hgt20/home/callum/QDESCP/Salicin_rdkit_conf_6/Salicin_rdkit_conf_6.xyz --acc 1 --gfn 2 --chrg 0 --uhf 0 --etemp 300 --input /rds/general/user/hgt20/home/callum/QDESCP/Salicin_rdkit_conf_6/Salicin_rdkit_conf_6_xtb.inp -P 1
          hostname                   : login-c
          coordinate file            : /rds/general/user/hgt20/home/callum/QDESCP/Salicin_rdkit_conf_6/Salicin_rdkit_conf_6.xyz
          omp threads                :                     1


           -------------------------------------------------
          |                 G F N 2 - x T B                 |
           -------------------------------------------------

        Reference                      10.1021/acs.jctc.8b01176
      * Hamiltonian:
        H0-scaling (s, p, d)           1.850000    2.230000    2.230000
        zeta-weighting                 0.500000
      * Dispersion:
        s8                             2.700000
        a1                             0.520000
        a2                             5.000000
        s9                             5.000000
      * Repulsion:
        kExp                           1.500000    1.000000
        rExp                           1.000000
      * Coulomb:
        alpha                          2.000000
        third order                    shell-resolved
        anisotropic                    true
        a3                             3.000000
        a5                             4.000000
        cn-shift                       1.200000
        cn-exp                         4.000000
        max-rad                        5.000000

q/qsh data taken from xtbrestart
CAMM data taken from xtbrestart

          ...................................................
          :                      SETUP                      :
          :.................................................:
          :  # basis functions                  98          :
          :  # atomic orbitals                  98          :
          :  # shells                           58          :
          :  # electrons                       112          :
          :  max. iterations                   250          :
          :  Hamiltonian                  GFN2-xTB          :
          :  restarted?                       true          :
          :  GBSA solvation                  false          :
          :  PC potential                    false          :
          :  electronic temp.          300.0000000     K    :
          :  accuracy                    1.0000000          :
          :  -> integral cutoff          0.2500000E+02      :
          :  -> integral neglect         0.1000000E-07      :
          :  -> SCF convergence          0.1000000E-05 Eh   :
          :  -> wf. convergence          0.1000000E-03 e    :
          :  Broyden damping             0.4000000          :
          :  net charge                          0          :
          :  unpaired electrons                  0          :
          ...................................................

 iter      E             dE          RMSdq      gap      omega  full diag
   1    -66.1227486 -0.661227E+02  0.852E-06    4.44       0.0  T
   2    -66.1227486 -0.838440E-12  0.529E-06    4.44    3067.1  T
   3    -66.1227486 -0.781597E-12  0.298E-06    4.44    5451.2  T

   *** convergence criteria satisfied after 3 iterations ***

         #    Occupation            Energy/Eh            Energy/eV
      -------------------------------------------------------------
         1        2.0000           -0.7466305             -20.3169
       ...           ...                  ...                  ...
        50        2.0000           -0.4336185             -11.7994
        51        2.0000           -0.4280051             -11.6466
        52        2.0000           -0.4263154             -11.6006
        53        2.0000           -0.4204455             -11.4409
        54        2.0000           -0.4160687             -11.3218
        55        2.0000           -0.4126619             -11.2291
        56        2.0000           -0.4068024             -11.0697 (HOMO)
        57                         -0.2434609              -6.6249 (LUMO)
        58                         -0.2420665              -6.5870
        59                         -0.1166860              -3.1752
        60                         -0.0415503              -1.1306
        61                         -0.0229459              -0.6244
       ...                                ...                  ...
        98                          0.6388067              17.3828
      -------------------------------------------------------------
                  HL-Gap            0.1633414 Eh            4.4447 eV
             Fermi-level           -0.3251316 Eh           -8.8473 eV

 SCC (total)                   0 d,  0 h,  0 min,  0.034 sec
 SCC setup                      ...        0 min,  0.000 sec (  0.924%)
 Dispersion                     ...        0 min,  0.000 sec (  1.079%)
 classical contributions        ...        0 min,  0.000 sec (  0.358%)
 integral evaluation            ...        0 min,  0.007 sec ( 19.530%)
 iterations                     ...        0 min,  0.006 sec ( 18.551%)
 molecular gradient             ...        0 min,  0.020 sec ( 58.997%)
 printout                       ...        0 min,  0.000 sec (  0.542%)

         :::::::::::::::::::::::::::::::::::::::::::::::::::::
         ::                     SUMMARY                     ::
         :::::::::::::::::::::::::::::::::::::::::::::::::::::
         :: total energy             -65.475126584748 Eh    ::
         :: gradient norm              0.000525280121 Eh/a0 ::
         :: HOMO-LUMO gap              4.444746685672 eV    ::
         ::.................................................::
         :: SCC energy               -66.122168675582 Eh    ::
         :: -> isotropic ES            0.153502070986 Eh    ::
         :: -> anisotropic ES         -0.008221389344 Eh    ::
         :: -> anisotropic XC         -0.002497568987 Eh    ::
         :: -> dispersion             -0.037342617193 Eh    ::
         :: repulsion energy           0.647042090834 Eh    ::
         :: add. restraining           0.000000000000 Eh    ::
         :: total charge              -0.000000000000 e     ::
         :::::::::::::::::::::::::::::::::::::::::::::::::::::

           -------------------------------------------------
          |                Property Printout                |
           -------------------------------------------------

    * Orbital Energies and Occupations

         #    Occupation            Energy/Eh            Energy/eV
      -------------------------------------------------------------
         1        2.0000           -0.7466305             -20.3169
       ...           ...                  ...                  ...
        44        2.0000           -0.4717822             -12.8378
        45        2.0000           -0.4597562             -12.5106
        46        2.0000           -0.4584703             -12.4756
        47        2.0000           -0.4549004             -12.3785
        48        2.0000           -0.4498378             -12.2407
        49        2.0000           -0.4376851             -11.9100
        50        2.0000           -0.4336185             -11.7994
        51        2.0000           -0.4280051             -11.6466
        52        2.0000           -0.4263154             -11.6006
        53        2.0000           -0.4204455             -11.4409
        54        2.0000           -0.4160687             -11.3218
        55        2.0000           -0.4126619             -11.2291
        56        2.0000           -0.4068024             -11.0697 (HOMO)
        57                         -0.2434609              -6.6249 (LUMO)
        58                         -0.2420665              -6.5870
        59                         -0.1166860              -3.1752
        60                         -0.0415503              -1.1306
        61                         -0.0229459              -0.6244
        62                          0.0025048               0.0682
        63                          0.0217913               0.5930
        64                          0.0300247               0.8170
        65                          0.0611259               1.6633
        66                          0.0667703               1.8169
        67                          0.0714194               1.9434
       ...                                ...                  ...
        98                          0.6388067              17.3828
      -------------------------------------------------------------
                  HL-Gap            0.1633414 Eh            4.4447 eV
             Fermi-level           -0.3251316 Eh           -8.8473 eV

     #   Z          covCN         q      C6AA      α(0)
     1   8 O        1.656    -0.427    21.382     6.242
     2   6 C        3.676     0.071    19.603     6.343
     3   6 C        3.748     0.094    19.081     6.230
     4   8 O        1.701    -0.353    19.939     6.029
     5   6 C        3.654     0.250    17.012     5.922
     6   6 C        3.727     0.088    19.215     6.258
     7   6 C        3.731     0.099    19.030     6.227
     8   6 C        3.729     0.095    19.102     6.240
     9   8 O        1.657    -0.437    21.588     6.272
    10   8 O        1.656    -0.443    21.695     6.288
    11   8 O        1.656    -0.444    21.713     6.290
    12   8 O        1.705    -0.314    19.244     5.923
    13   6 C        2.878     0.133    25.089     8.211
    14   6 C        2.917    -0.052    29.297     8.876
    15   6 C        2.921    -0.030    28.749     8.793
    16   6 C        2.918    -0.032    28.802     8.801
    17   6 C        2.926    -0.033    28.817     8.803
    18   6 C        2.964    -0.013    28.324     8.729
    19   6 C        3.679     0.084    19.384     6.306
    20   8 O        1.655    -0.459    22.021     6.335
    21   1 H        0.805     0.311     0.689     1.303
    22   1 H        0.924     0.079     1.987     2.204
    23   1 H        0.923     0.038     2.471     2.458
    24   1 H        0.923     0.045     2.385     2.415
    25   1 H        0.922     0.007     2.934     2.679
    26   1 H        0.923     0.041     2.434     2.440
    27   1 H        0.923     0.033     2.543     2.494
    28   1 H        0.923     0.036     2.510     2.477
    29   1 H        0.805     0.322     0.658     1.274
    30   1 H        0.805     0.316     0.674     1.290
    31   1 H        0.805     0.311     0.688     1.303
    32   1 H        0.926     0.043     2.409     2.427
    33   1 H        0.926     0.046     2.367     2.406
    34   1 H        0.926     0.047     2.354     2.399
    35   1 H        0.926     0.052     2.295     2.369
    36   1 H        0.924     0.049     2.331     2.388
    37   1 H        0.923     0.031     2.578     2.511
    38   1 H        0.804     0.312     0.686     1.301

 Mol. C6AA /au·bohr⁶  :      14023.947806
 Mol. C8AA /au·bohr⁸  :     316305.435561
 Mol. α(0) /au        :        177.257793


Wiberg/Mayer (AO) data.
largest (>0.10) Wiberg bond orders for each atom

 ---------------------------------------------------------------------------
     #   Z sym  total        # sym  WBO       # sym  WBO       # sym  WBO
 ---------------------------------------------------------------------------
     1   8 O    1.972 --     2 C    1.021    21 H    0.885
     2   6 C    3.960 --     1 O    1.021     3 C    0.973    23 H    0.967
                            22 H    0.965
     3   6 C    3.933 --     2 C    0.973     8 C    0.970    24 H    0.957
                             4 O    0.949
     4   8 O    2.083 --     5 C    0.952     3 C    0.949
     5   6 C    3.928 --    12 O    0.990     6 C    0.952     4 O    0.952
                            25 H    0.944
     6   6 C    3.959 --    11 O    0.999     7 C    0.971    26 H    0.956
                             5 C    0.952
     7   6 C    3.962 --    10 O    1.000     6 C    0.971     8 C    0.968
                            27 H    0.956
     8   6 C    3.965 --     9 O    1.008     3 C    0.970     7 C    0.968
                            28 H    0.955
     9   8 O    1.959 --     8 C    1.008    29 H    0.878
    10   8 O    1.958 --     7 C    1.000    30 H    0.882
    11   8 O    1.959 --     6 C    0.999    31 H    0.884
    12   8 O    2.132 --     5 C    0.990    13 C    0.964
    13   6 C    3.922 --    14 C    1.405    18 C    1.375    12 O    0.964
                            16 C    0.104
    14   6 C    3.991 --    15 C    1.440    13 C    1.405    32 H    0.966
                            17 C    0.109
    15   6 C    3.991 --    14 C    1.440    16 C    1.437    33 H    0.970
                            18 C    0.109
    16   6 C    3.991 --    17 C    1.443    15 C    1.437    34 H    0.970
                            13 C    0.104
    17   6 C    3.990 --    16 C    1.443    18 C    1.418    35 H    0.967
                            14 C    0.109
    18   6 C    3.986 --    17 C    1.418    13 C    1.375    19 C    0.993
                            15 C    0.109
    19   6 C    3.963 --    20 O    0.998    18 C    0.993    36 H    0.972
                            37 H    0.964
    20   8 O    1.951 --    19 C    0.998    38 H    0.859
    21   1 H    0.903 --     1 O    0.885
    22   1 H    0.993 --     2 C    0.965
    23   1 H    0.999 --     2 C    0.967
    24   1 H    0.998 --     3 C    0.957
    25   1 H    1.000 --     5 C    0.944
    26   1 H    0.998 --     6 C    0.956
    27   1 H    0.999 --     7 C    0.956
    28   1 H    0.999 --     8 C    0.955
    29   1 H    0.896 --     9 O    0.878
    30   1 H    0.900 --    10 O    0.882
    31   1 H    0.903 --    11 O    0.884
    32   1 H    0.998 --    14 C    0.966
    33   1 H    0.997 --    15 C    0.970
    34   1 H    0.997 --    16 C    0.970
    35   1 H    0.997 --    17 C    0.967
    36   1 H    0.997 --    19 C    0.972
    37   1 H    0.999 --    19 C    0.964
    38   1 H    0.903 --    20 O    0.859
 ---------------------------------------------------------------------------

Topologies differ in total number of bonds
Writing topology from bond orders to xtbtopo.mol

molecular dipole:
                 x           y           z       tot (Debye)
 q only:        0.443       0.466      -1.009
   full:        0.550       0.623      -1.737       4.893
molecular quadrupole (traceless):
                xx          xy          yy          xz          yz          zz
 q only:        8.117       5.249      -0.352       1.593       0.643      -7.765
  q+dip:        4.639       4.984       8.317       5.904       1.714     -12.956
   full:        6.034       5.021       4.607       3.875       1.936     -10.642


           -------------------------------------------------
          | TOTAL ENERGY              -65.475126584748 Eh   |
          | GRADIENT NORM               0.000525280121 Eh/α |
          | HOMO-LUMO GAP               4.444746685672 eV   |
           -------------------------------------------------

------------------------------------------------------------------------
 * finished run on 2025/05/15 at 16:05:48.315     
------------------------------------------------------------------------
 total:
 * wall-time:     0 d,  0 h,  0 min,  0.047 sec
 *  cpu-time:     0 d,  0 h,  0 min,  0.045 sec
 * ratio c/w:     0.968 speedup
 SCF:
 * wall-time:     0 d,  0 h,  0 min,  0.034 sec
 *  cpu-time:     0 d,  0 h,  0 min,  0.034 sec
 * ratio c/w:     0.994 speedup



----- FOD -----
      -----------------------------------------------------------      
     |                   =====================                   |     
     |                           x T B                           |     
     |                   =====================                   |     
     |                         S. Grimme                         |     
     |          Mulliken Center for Theoretical Chemistry        |     
     |                    University of Bonn                     |     
      -----------------------------------------------------------      

   * xtb version 6.7.1 (edcfbbe) compiled by 'conda@3ef47c1a292c' on 2024-11-25

   xtb is free software: you can redistribute it and/or modify it under
   the terms of the GNU Lesser General Public License as published by
   the Free Software Foundation, either version 3 of the License, or
   (at your option) any later version.
   
   xtb is distributed in the hope that it will be useful,
   but WITHOUT ANY WARRANTY; without even the implied warranty of
   MERCHANTABILITY or FITNESS FOR A PARTICULAR PURPOSE.  See the
   GNU Lesser General Public License for more details.
   
   Cite this work as:
   * C. Bannwarth, E. Caldeweyher, S. Ehlert, A. Hansen, P. Pracht,
     J. Seibert, S. Spicher, S. Grimme, WIREs Comput. Mol. Sci., 2020, 11,
     e01493. DOI: 10.1002/wcms.1493
   
   for GFN2-xTB:
   * C. Bannwarth, S. Ehlert and S. Grimme., J. Chem. Theory Comput., 2019,
     15, 1652-1671. DOI: 10.1021/acs.jctc.8b01176
   for GFN1-xTB:
   * S. Grimme, C. Bannwarth, P. Shushkov, J. Chem. Theory Comput., 2017,
     13, 1989-2009. DOI: 10.1021/acs.jctc.7b00118
   for GFN0-xTB:
   * P. Pracht, E. Caldeweyher, S. Ehlert, S. Grimme, ChemRxiv, 2019, preprint.
     DOI: 10.26434/chemrxiv.8326202.v1
   for GFN-FF:
   * S. Spicher and S. Grimme, Angew. Chem. Int. Ed., 2020, 59, 15665-15673.
     DOI: 10.1002/anie.202004239
   
   for ALPB and GBSA implicit solvation:
   * S. Ehlert, M. Stahn, S. Spicher, S. Grimme, J. Chem. Theory Comput.,
     2021, 17, 4250-4261. DOI: 10.1021/acs.jctc.1c00471
   
   for ddCOSMO and CPCM-X implicit solvation:
   * M. Stahn, S. Ehlert, S. Grimme, J. Phys. Chem. A,
     2023, XX, XXXX-XXXX. DOI: 10.1021/acs.jpca.3c04382
   
   for DFT-D4:
   * E. Caldeweyher, C. Bannwarth and S. Grimme, J. Chem. Phys., 2017,
     147, 034112. DOI: 10.1063/1.4993215
   * E. Caldeweyher, S. Ehlert, A. Hansen, H. Neugebauer, S. Spicher,
     C. Bannwarth and S. Grimme, J. Chem. Phys., 2019, 150, 154122.
     DOI: 10.1063/1.5090222
[...]
   * C. Bannwarth, E. Caldeweyher, S. Ehlert, A. Hansen, P. Pracht,
     J. Seibert, S. Spicher, S. Grimme, WIREs Comput. Mol. Sci., 2020, 11,
     e01493. DOI: 10.1002/wcms.1493
   
   for GFN2-xTB:
   * C. Bannwarth, S. Ehlert and S. Grimme., J. Chem. Theory Comput., 2019,
     15, 1652-1671. DOI: 10.1021/acs.jctc.8b01176
   for GFN1-xTB:
   * S. Grimme, C. Bannwarth, P. Shushkov, J. Chem. Theory Comput., 2017,
     13, 1989-2009. DOI: 10.1021/acs.jctc.7b00118
   for GFN0-xTB:
   * P. Pracht, E. Caldeweyher, S. Ehlert, S. Grimme, ChemRxiv, 2019, preprint.
     DOI: 10.26434/chemrxiv.8326202.v1
   for GFN-FF:
   * S. Spicher and S. Grimme, Angew. Chem. Int. Ed., 2020, 59, 15665-15673.
     DOI: 10.1002/anie.202004239
   
   for ALPB and GBSA implicit solvation:
   * S. Ehlert, M. Stahn, S. Spicher, S. Grimme, J. Chem. Theory Comput.,
     2021, 17, 4250-4261. DOI: 10.1021/acs.jctc.1c00471
   
   for ddCOSMO and CPCM-X implicit solvation:
   * M. Stahn, S. Ehlert, S. Grimme, J. Phys. Chem. A,
     2023, XX, XXXX-XXXX. DOI: 10.1021/acs.jpca.3c04382
   
   for DFT-D4:
   * E. Caldeweyher, C. Bannwarth and S. Grimme, J. Chem. Phys., 2017,
     147, 034112. DOI: 10.1063/1.4993215
   * E. Caldeweyher, S. Ehlert, A. Hansen, H. Neugebauer, S. Spicher,
     C. Bannwarth and S. Grimme, J. Chem. Phys., 2019, 150, 154122.
     DOI: 10.1063/1.5090222
   * E. Caldeweyher, J.-M. Mewes, S. Ehlert and S. Grimme, Phys. Chem. Chem. Phys.
     2020, 22, 8499-8512. DOI: 10.1039/D0CP00502A
   
   for sTDA-xTB:
   * S. Grimme and C. Bannwarth, J. Chem. Phys., 2016, 145, 054103.
     DOI: 10.1063/1.4959605
   
   in the mass-spec context:
   * V. Asgeirsson, C. Bauer and S. Grimme, Chem. Sci., 2017, 8, 4879.
     DOI: 10.1039/c7sc00601b
   * J. Koopman and S. Grimme, ACS Omega 2019, 4, 12, 15120-15133.
     DOI: 10.1021/acsomega.9b02011
   
   for metadynamics refer to:
   * S. Grimme, J. Chem. Theory Comput., 2019, 155, 2847-2862
     DOI: 10.1021/acs.jctc.9b00143
   
   for SPH calculations refer to:
   * S. Spicher and S. Grimme, J. Chem. Theory Comput., 2021, 17, 1701-1714
     DOI: 10.1021/acs.jctc.0c01306
   
   for ONIOM refer to:
   * C. Plett, A. Katbashev, S. Ehlert, S. Grimme, M. Bursch,
     Phys. Chem. Chem. Phys., 2023, 25, 17860-17868. DOI: 10.1039/D3CP02178E
   
   for DIPRO refer to:
   * J. Kohn, N. Gildemeister, S. Grimme, D. Fazzi, A. Hansen,
     J. Chem. Phys., 2023, just accepted.
   
   for PTB refer to:
   * S. Grimme, M. Mueller, A. Hansen, J. Chem. Phys., 2023, 158, 124111.
     DOI: 10.1063/5.0137838
   
   with help from (in alphabetical order)
   P. Atkinson, C. Bannwarth, F. Bohle, G. Brandenburg, E. Caldeweyher
   M. Checinski, S. Dohm, S. Ehlert, S. Ehrlich, I. Gerasimov, C. Hölzer
   A. Katbashev, J. Kohn, J. Koopman, C. Lavigne, S. Lehtola, F. März, M. Müller,
   F. Musil, H. Neugebauer, J. Pisarek, C. Plett, P. Pracht, F. Pultar,
   J. Seibert, P. Shushkov, S. Spicher, M. Stahn, M. Steiner, T. Strunk,
   J. Stückrath, T. Rose, and J. Unsleber
   
 * started run on 2025/05/15 at 16:05:49.516     
   ID    Z sym.   atoms
    1    8 O      1, 4, 9-12, 20
    2    6 C      2, 3, 5-8, 13-19
    3    1 H      21-38

           -------------------------------------------------
          |                Calculation Setup                |
           -------------------------------------------------

          program call               : xtb /rds/general/user/hgt20/home/callum/QDESCP/Salicin_rdkit_conf_6/Salicin_rdkit_conf_6.xyz --acc 1 --gfn 2 --chrg 0 --uhf 2 --etemp 300 --input /rds/general/user/hgt20/home/callum/QDESCP/Salicin_rdkit_conf_6/Salicin_rdkit_conf_6_xtb.inp -P 1
          hostname                   : login-c
          coordinate file            : /rds/general/user/hgt20/home/callum/QDESCP/Salicin_rdkit_conf_6/Salicin_rdkit_conf_6.xyz
          omp threads                :                     1


           -------------------------------------------------
          |                 G F N 2 - x T B                 |
           -------------------------------------------------

        Reference                      10.1021/acs.jctc.8b01176
      * Hamiltonian:
        H0-scaling (s, p, d)           1.850000    2.230000    2.230000
        zeta-weighting                 0.500000
      * Dispersion:
        s8                             2.700000
        a1                             0.520000
        a2                             5.000000
        s9                             5.000000
      * Repulsion:
        kExp                           1.500000    1.000000
        rExp                           1.000000
      * Coulomb:
        alpha                          2.000000
        third order                    shell-resolved
        anisotropic                    true
        a3                             3.000000
        a5                             4.000000
        cn-shift                       1.200000
        cn-exp                         4.000000
        max-rad                        5.000000


          ...................................................
          :                      SETUP                      :
          :.................................................:
          :  # basis functions                  98          :
          :  # atomic orbitals                  98          :
          :  # shells                           58          :
          :  # electrons                       112          :
          :  max. iterations                   250          :
          :  Hamiltonian                  GFN2-xTB          :
          :  restarted?                      false          :
          :  GBSA solvation                  false          :
          :  PC potential                    false          :
          :  electronic temp.          300.0000000     K    :
          :  accuracy                    1.0000000          :
          :  -> integral cutoff          0.2500000E+02      :
          :  -> integral neglect         0.1000000E-07      :
          :  -> SCF convergence          0.1000000E-05 Eh   :
          :  -> wf. convergence          0.1000000E-03 e    :
          :  Broyden damping             0.4000000          :
          :  net charge                          0          :
          :  unpaired electrons                  2          :
          ...................................................

 iter      E             dE          RMSdq      gap      omega  full diag
   1    -65.8452722 -0.658453E+02  0.448E+00    0.18       0.0  T
   2    -65.7876695  0.576026E-01  0.356E+00    0.73       1.0  T
   3    -65.8269175 -0.392480E-01  0.258E+00    0.69       1.0  T
   4    -65.8378535 -0.109360E-01  0.136E+00    0.06       1.0  T
   5    -65.9352460 -0.973925E-01  0.838E-01    0.05       1.0  T
   6    -65.9480707 -0.128247E-01  0.474E-01    0.07       1.0  T
   7    -65.9456082  0.246251E-02  0.487E-01    0.09       1.0  T
   8    -65.9493831 -0.377495E-02  0.350E-01    0.04       1.0  T
   9    -65.9520158 -0.263264E-02  0.184E-01    0.05       1.0  T
  10    -65.9523820 -0.366180E-03  0.141E-01    0.06       1.0  T
  11    -65.9525096 -0.127672E-03  0.122E-01    0.05       1.0  T
  12    -65.9527936 -0.284005E-03  0.388E-02    0.06       1.0  T
  13    -65.9528636 -0.700025E-04  0.131E-02    0.06       1.2  T
  14    -65.9528682 -0.451247E-05  0.355E-03    0.06       4.6  T
  15    -65.9528684 -0.226838E-06  0.124E-03    0.06      13.1  T
  16    -65.9528684  0.242092E-08  0.994E-04    0.06      16.3  T
  17    -65.9528684 -0.405863E-07  0.333E-04    0.06      48.8  T

   *** convergence criteria satisfied after 17 iterations ***

         #    Occupation            Energy/Eh            Energy/eV
      -------------------------------------------------------------
         1        2.0000           -0.7520772             -20.4651
       ...           ...                  ...                  ...
        51        2.0000           -0.4315694             -11.7436
        52        2.0000           -0.4286641             -11.6645
        53        2.0000           -0.4197362             -11.4216
        54        1.9859           -0.4120681             -11.2129
        55        1.8825           -0.4099482             -11.1553
        56        1.1317           -0.4062409             -11.0544
        57        0.7486           -0.2339004              -6.3648 (HOMO)
        58        0.2514           -0.2318269              -6.3083 (LUMO)
        59                         -0.1068517              -2.9076
        60                         -0.0459924              -1.2515
        61                         -0.0250985              -0.6830
        62                         -0.0012860              -0.0350
       ...                                ...                  ...
        98                          0.6482205              17.6390
      -------------------------------------------------------------
                  HL-Gap            0.0020735 Eh            0.0564 eV
             Fermi-level           -0.3204484 Eh           -8.7198 eV

 transition dipole moment (au) for excitation:          56          57
     X       Y       Z   
  -1.0311   0.4128  -0.6497  total (au/Debye):    1.287   3.271
 dE (eV)             :    4.690
 oscillator strength :  0.26902E+00

 SCC (total)                   0 d,  0 h,  0 min,  0.063 sec
 SCC setup                      ...        0 min,  0.000 sec (  0.494%)
 Dispersion                     ...        0 min,  0.000 sec (  0.607%)
 classical contributions        ...        0 min,  0.000 sec (  0.193%)
 integral evaluation            ...        0 min,  0.007 sec ( 10.540%)
 iterations                     ...        0 min,  0.029 sec ( 46.230%)
 molecular gradient             ...        0 min,  0.020 sec ( 32.361%)
 printout                       ...        0 min,  0.006 sec (  9.564%)

         :::::::::::::::::::::::::::::::::::::::::::::::::::::
         ::                     SUMMARY                     ::
         :::::::::::::::::::::::::::::::::::::::::::::::::::::
         :: total energy             -65.305246421337 Eh    ::
         :: gradient norm              0.124027609595 Eh/a0 ::
         :: HOMO-LUMO gap              0.056423732773 eV    ::
         ::.................................................::
         :: SCC energy               -65.952288512171 Eh    ::
         :: -> isotropic ES            0.149030928612 Eh    ::
         :: -> anisotropic ES         -0.006838442920 Eh    ::
         :: -> anisotropic XC         -0.003059992109 Eh    ::
         :: -> dispersion             -0.037306286114 Eh    ::
         :: repulsion energy           0.647042090834 Eh    ::
         :: add. restraining           0.000000000000 Eh    ::
         :: total charge               0.000000000055 e     ::
         :::::::::::::::::::::::::::::::::::::::::::::::::::::

           -------------------------------------------------
          |                Property Printout                |
           -------------------------------------------------

    * Orbital Energies and Occupations

         #    Occupation            Energy/Eh            Energy/eV
      -------------------------------------------------------------
         1        2.0000           -0.7520772             -20.4651
       ...           ...                  ...                  ...
        45        2.0000           -0.4621548             -12.5759
        46        2.0000           -0.4580197             -12.4633
        47        2.0000           -0.4547845             -12.3753
        48        2.0000           -0.4488279             -12.2132
        49        2.0000           -0.4407302             -11.9929
        50        2.0000           -0.4327116             -11.7747
        51        2.0000           -0.4315694             -11.7436
        52        2.0000           -0.4286641             -11.6645
        53        2.0000           -0.4197362             -11.4216
        54        1.9859           -0.4120681             -11.2129
        55        1.8825           -0.4099482             -11.1553
        56        1.1317           -0.4062409             -11.0544
        57        0.7486           -0.2339004              -6.3648 (HOMO)
        58        0.2514           -0.2318269              -6.3083 (LUMO)
        59                         -0.1068517              -2.9076
        60                         -0.0459924              -1.2515
        61                         -0.0250985              -0.6830
        62                         -0.0012860              -0.0350
        63                          0.0179467               0.4884
        64                          0.0267852               0.7289
        65                          0.0571069               1.5540
        66                          0.0635334               1.7288
        67                          0.0689847               1.8772
        68                          0.0768219               2.0904
       ...                                ...                  ...
        98                          0.6482205              17.6390
      -------------------------------------------------------------
                  HL-Gap            0.0020735 Eh            0.0564 eV
             Fermi-level           -0.3204484 Eh           -8.7198 eV

     #   Z          covCN         q      C6AA      α(0)
     1   8 O        1.656    -0.422    21.289     6.229
     2   6 C        3.676     0.071    19.604     6.344
     3   6 C        3.748     0.095    19.077     6.230
     4   8 O        1.701    -0.350    19.895     6.022
     5   6 C        3.654     0.247    17.053     5.929
     6   6 C        3.727     0.088    19.219     6.259
     7   6 C        3.731     0.099    19.033     6.227
     8   6 C        3.729     0.095    19.104     6.240
     9   8 O        1.657    -0.437    21.576     6.270
    10   8 O        1.656    -0.442    21.683     6.286
    11   8 O        1.656    -0.443    21.692     6.287
    12   8 O        1.705    -0.295    18.900     5.870
    13   6 C        2.878     0.124    25.268     8.241
    14   6 C        2.917    -0.062    29.550     8.914
    15   6 C        2.921    -0.041    29.024     8.835
    16   6 C        2.918    -0.031    28.777     8.797
    17   6 C        2.926    -0.045    29.107     8.848
    18   6 C        2.964    -0.026    28.656     8.781
    19   6 C        3.679     0.084    19.390     6.307
    20   8 O        1.655    -0.443    21.692     6.287
    21   1 H        0.805     0.312     0.685     1.300
    22   1 H        0.924     0.082     1.954     2.186
    23   1 H        0.923     0.040     2.452     2.449
    24   1 H        0.923     0.048     2.347     2.396
    25   1 H        0.922     0.014     2.829     2.630
    26   1 H        0.923     0.041     2.435     2.440
    27   1 H        0.923     0.035     2.523     2.484
    28   1 H        0.923     0.036     2.503     2.474
    29   1 H        0.805     0.323     0.656     1.272
    30   1 H        0.805     0.317     0.672     1.287
    31   1 H        0.805     0.312     0.687     1.302
    32   1 H        0.926     0.034     2.532     2.488
    33   1 H        0.926     0.039     2.456     2.450
    34   1 H        0.926     0.040     2.445     2.445
    35   1 H        0.926     0.044     2.397     2.421
    36   1 H        0.924     0.053     2.279     2.361
    37   1 H        0.923     0.047     2.359     2.402
    38   1 H        0.804     0.316     0.674     1.290

 Mol. C6AA /au·bohr⁶  :      14022.981890
 Mol. C8AA /au·bohr⁸  :     316457.419534
 Mol. α(0) /au        :        177.279466


Wiberg/Mayer (AO) data.
largest (>0.10) Wiberg bond orders for each atom

 ---------------------------------------------------------------------------
     #   Z sym  total        # sym  WBO       # sym  WBO       # sym  WBO
 ---------------------------------------------------------------------------
     1   8 O    1.977 --     2 C    1.023    21 H    0.884
     2   6 C    3.956 --     1 O    1.023     3 C    0.968    23 H    0.967
                            22 H    0.963
     3   6 C    3.929 --     8 C    0.970     2 C    0.968    24 H    0.956
                             4 O    0.948
     4   8 O    2.081 --     5 C    0.949     3 C    0.948
     5   6 C    3.918 --    12 O    0.983     6 C    0.952     4 O    0.949
                            25 H    0.942
     6   6 C    3.959 --    11 O    0.999     7 C    0.970    26 H    0.956
                             5 C    0.952
     7   6 C    3.961 --    10 O    1.000     6 C    0.970     8 C    0.967
                            27 H    0.955
     8   6 C    3.965 --     9 O    1.008     3 C    0.970     7 C    0.967
                            28 H    0.955
     9   8 O    1.959 --     8 C    1.008    29 H    0.877
    10   8 O    1.958 --     7 C    1.000    30 H    0.881
    11   8 O    1.959 --     6 C    0.999    31 H    0.884
    12   8 O    2.172 --    13 C    1.003     5 C    0.983
    13   6 C    3.567 --    14 C    1.274    18 C    1.072    12 O    1.003
    14   6 C    3.785 --    15 C    1.420    13 C    1.274    32 H    0.964
    15   6 C    3.688 --    14 C    1.420    16 C    1.132    33 H    0.966
    16   6 C    3.653 --    17 C    1.343    15 C    1.132    34 H    0.970
                            18 C    0.108
    17   6 C    3.789 --    18 C    1.370    16 C    1.343    35 H    0.964
    18   6 C    3.650 --    17 C    1.370    13 C    1.072    19 C    0.997
                            16 C    0.108
    19   6 C    3.948 --    18 C    0.997    20 O    0.993    36 H    0.971
                            37 H    0.933
    20   8 O    1.966 --    19 C    0.993    38 H    0.855
    21   1 H    0.902 --     1 O    0.884
    22   1 H    0.991 --     2 C    0.963
    23   1 H    0.998 --     2 C    0.967
    24   1 H    0.997 --     3 C    0.956
    25   1 H    0.999 --     5 C    0.942
    26   1 H    0.998 --     6 C    0.956
    27   1 H    0.999 --     7 C    0.955
    28   1 H    0.999 --     8 C    0.955
    29   1 H    0.896 --     9 O    0.877
    30   1 H    0.899 --    10 O    0.881
    31   1 H    0.902 --    11 O    0.884
    32   1 H    0.997 --    14 C    0.964
    33   1 H    0.995 --    15 C    0.966
    34   1 H    0.998 --    16 C    0.970
    35   1 H    0.996 --    17 C    0.964
    36   1 H    0.996 --    19 C    0.971
    37   1 H    0.986 --    19 C    0.933
    38   1 H    0.900 --    20 O    0.855
 ---------------------------------------------------------------------------

Topologies differ in total number of bonds
Writing topology from bond orders to xtbtopo.mol

molecular dipole:
                 x           y           z       tot (Debye)
 q only:        0.048       0.097      -0.925
   full:        0.137       0.208      -1.653       4.248
molecular quadrupole (traceless):
                xx          xy          yy          xz          yz          zz
 q only:        5.804       2.538       0.158       1.475       0.750      -5.961
  q+dip:        1.928       2.443       8.940       5.443       2.210     -10.868
   full:        3.343       2.271       5.332       3.712       2.168      -8.675


           -------------------------------------------------
          | TOTAL ENERGY              -65.305246421337 Eh   |
          | GRADIENT NORM               0.124027609595 Eh/α |
          | HOMO-LUMO GAP               0.056423732773 eV   |
           -------------------------------------------------

------------------------------------------------------------------------
 * finished run on 2025/05/15 at 16:05:49.593     
------------------------------------------------------------------------
 total:
 * wall-time:     0 d,  0 h,  0 min,  0.077 sec
 *  cpu-time:     0 d,  0 h,  0 min,  0.074 sec
 * ratio c/w:     0.959 speedup
 SCF:
 * wall-time:     0 d,  0 h,  0 min,  0.063 sec
 *  cpu-time:     0 d,  0 h,  0 min,  0.063 sec
 * ratio c/w:     0.995 speedup


