41
 energy: -72.629352086547 gnorm: 0.000660371989 xtb: 6.7.1 (edcfbbe)
C            1.42474034240920       -1.84249629987559        1.00540097298511
C            0.37788446823731       -0.95084227040559        0.43386891606481
C           -0.88701809178599       -1.31097437617074        0.07331355787143
C           -1.61508184786042       -0.11548072496642       -0.24255811739376
C           -0.72419259455004        0.95900049479922       -0.04864483293833
N            0.51448924970363        0.43468807665279        0.32796413622621
C            1.64279032369568        1.21492704572438        0.52479941507114
C            2.95151029528161        0.57647834721171        0.21949210254402
C            4.05466670773129        0.86562818599925        1.01758242088328
C            5.29915445661170        0.35543315373486        0.70363687449168
C            5.44546690060175       -0.42392671575885       -0.43481919057892
Cl           6.99799520930915       -1.06041470021861       -0.83850351348463
C            4.36291180090749       -0.68979628027683       -1.26084348391937
C            3.11728626217076       -0.19090406426143       -0.93068491315276
O            1.56528790962062        2.37715083638398        0.85757915553169
C           -1.11725676485179        2.26320236177429       -0.27694514176358
C           -2.42033666741861        2.49097550628466       -0.68373911262545
C           -3.32078073560632        1.43605508537700       -0.86459642758767
O           -4.61967142504654        1.59275625297652       -1.25443393112036
C           -5.10895952099575        2.89202094069669       -1.47671535707227
C           -2.91791816971849        0.12217741263448       -0.64928634559622
C           -1.45386007764532       -2.69923819544568        0.06488163475717
C           -1.93719688741139       -2.98731824508119        1.46771515343040
O           -3.22354695840478       -2.66973304088059        1.62591345198436
O           -1.25384476255227       -3.41190287212266        2.36183753975242
H            2.04819323617764       -2.29046120207919        0.23148556334654
H            2.07123721345595       -1.29601465037030        1.68702003467275
H            0.93589047812101       -2.64104981433473        1.55981734390000
H            3.92180480136144        1.48906131228598        1.88863155765744
H            6.15325667345501        0.56488678406565        1.32791272387360
H            4.49868663280559       -1.27957656529028       -2.15377025568806
H            2.27434681357444       -0.38158928564667       -1.57872587431882
H           -0.43611436432854        3.08506246807885       -0.12998893503098
H           -2.73196805115852        3.50873347077698       -0.85363925327968
H           -4.57403445292594        3.39146494868815       -2.29127936299241
H           -6.15375793775858        2.76772431444321       -1.75783294113293
H           -5.04995880447789        3.50611164715203       -0.57224012518745
H           -3.62726417869734       -0.67620318680162       -0.79274932530038
H           -0.68749412016493       -3.42429219985016       -0.20724223527276
H           -2.29392913609807       -2.75062296376716       -0.62537285477658
H           -3.50351422577841       -2.80070099213696        2.54585897517147
