----- Optimization -----
      -----------------------------------------------------------      
     |                   =====================                   |     
     |                           x T B                           |     
     |                   =====================                   |     
     |                         S. Grimme                         |     
     |          Mulliken Center for Theoretical Chemistry        |     
     |                    University of Bonn                     |     
      -----------------------------------------------------------      

   * xtb version 6.7.1 (edcfbbe) compiled by 'conda@3ef47c1a292c' on 2024-11-25

   xtb is free software: you can redistribute it and/or modify it under
   the terms of the GNU Lesser General Public License as published by
   the Free Software Foundation, either version 3 of the License, or
   (at your option) any later version.
   
   xtb is distributed in the hope that it will be useful,
   but WITHOUT ANY WARRANTY; without even the implied warranty of
   MERCHANTABILITY or FITNESS FOR A PARTICULAR PURPOSE.  See the
   GNU Lesser General Public License for more details.
   
   Cite this work as:
   * C. Bannwarth, E. Caldeweyher, S. Ehlert, A. Hansen, P. Pracht,
     J. Seibert, S. Spicher, S. Grimme, WIREs Comput. Mol. Sci., 2020, 11,
     e01493. DOI: 10.1002/wcms.1493
   
   for GFN2-xTB:
   * C. Bannwarth, S. Ehlert and S. Grimme., J. Chem. Theory Comput., 2019,
     15, 1652-1671. DOI: 10.1021/acs.jctc.8b01176
   for GFN1-xTB:
   * S. Grimme, C. Bannwarth, P. Shushkov, J. Chem. Theory Comput., 2017,
     13, 1989-2009. DOI: 10.1021/acs.jctc.7b00118
   for GFN0-xTB:
   * P. Pracht, E. Caldeweyher, S. Ehlert, S. Grimme, ChemRxiv, 2019, preprint.
     DOI: 10.26434/chemrxiv.8326202.v1
   for GFN-FF:
   * S. Spicher and S. Grimme, Angew. Chem. Int. Ed., 2020, 59, 15665-15673.
     DOI: 10.1002/anie.202004239
   
   for ALPB and GBSA implicit solvation:
   * S. Ehlert, M. Stahn, S. Spicher, S. Grimme, J. Chem. Theory Comput.,
     2021, 17, 4250-4261. DOI: 10.1021/acs.jctc.1c00471
   
   for ddCOSMO and CPCM-X implicit solvation:
   * M. Stahn, S. Ehlert, S. Grimme, J. Phys. Chem. A,
     2023, XX, XXXX-XXXX. DOI: 10.1021/acs.jpca.3c04382
   
   for DFT-D4:
   * E. Caldeweyher, C. Bannwarth and S. Grimme, J. Chem. Phys., 2017,
     147, 034112. DOI: 10.1063/1.4993215
   * E. Caldeweyher, S. Ehlert, A. Hansen, H. Neugebauer, S. Spicher,
     C. Bannwarth and S. Grimme, J. Chem. Phys., 2019, 150, 154122.
     DOI: 10.1063/1.5090222
   * E. Caldeweyher, J.-M. Mewes, S. Ehlert and S. Grimme, Phys. Chem. Chem. Phys.
     2020, 22, 8499-8512. DOI: 10.1039/D0CP00502A
   
   for sTDA-xTB:
   * S. Grimme and C. Bannwarth, J. Chem. Phys., 2016, 145, 054103.
     DOI: 10.1063/1.4959605
   
   in the mass-spec context:
   * V. Asgeirsson, C. Bauer and S. Grimme, Chem. Sci., 2017, 8, 4879.
     DOI: 10.1039/c7sc00601b
   * J. Koopman and S. Grimme, ACS Omega 2019, 4, 12, 15120-15133.
     DOI: 10.1021/acsomega.9b02011
   
   for metadynamics refer to:
   * S. Grimme, J. Chem. Theory Comput., 2019, 155, 2847-2862
     DOI: 10.1021/acs.jctc.9b00143
   
   for SPH calculations refer to:
   * S. Spicher and S. Grimme, J. Chem. Theory Comput., 2021, 17, 1701-1714
     DOI: 10.1021/acs.jctc.0c01306
   
   for ONIOM refer to:
   * C. Plett, A. Katbashev, S. Ehlert, S. Grimme, M. Bursch,
     Phys. Chem. Chem. Phys., 2023, 25, 17860-17868. DOI: 10.1039/D3CP02178E
   
   for DIPRO refer to:
   * J. Kohn, N. Gildemeister, S. Grimme, D. Fazzi, A. Hansen,
     J. Chem. Phys., 2023, just accepted.
   
   for PTB refer to:
   * S. Grimme, M. Mueller, A. Hansen, J. Chem. Phys., 2023, 158, 124111.
     DOI: 10.1063/5.0137838
   
   with help from (in alphabetical order)
   P. Atkinson, C. Bannwarth, F. Bohle, G. Brandenburg, E. Caldeweyher
   M. Checinski, S. Dohm, S. Ehlert, S. Ehrlich, I. Gerasimov, C. Hölzer
   A. Katbashev, J. Kohn, J. Koopman, C. Lavigne, S. Lehtola, F. März, M. Müller,
   F. Musil, H. Neugebauer, J. Pisarek, C. Plett, P. Pracht, F. Pultar,
   J. Seibert, P. Shushkov, S. Spicher, M. Stahn, M. Steiner, T. Strunk,
   J. Stückrath, T. Rose, and J. Unsleber
   
 * started run on 2025/05/15 at 16:25:05.591     
   ID    Z sym.   atoms
    1    6 C      1-5, 7-11, 13, 14, 16-18, 20-23
    2    7 N      6
    3   17 Cl     12
    4    8 O      15, 19, 24, 25
    5    1 H      26-41

           -------------------------------------------------
          |                Calculation Setup                |
           -------------------------------------------------

          program call               : xtb /rds/general/user/hgt20/home/callum/QDESCP/Indomethacin_rdkit_conf_9/Indomethacin_rdkit_conf_9.xyz --opt normal --acc 1 --gfn 2 --chrg 0 --uhf 0 -P 1
          hostname                   : login-c
          coordinate file            : /rds/general/user/hgt20/home/callum/QDESCP/Indomethacin_rdkit_conf_9/Indomethacin_rdkit_conf_9.xyz
          omp threads                :                     1


           -------------------------------------------------
          |                 G F N 2 - x T B                 |
           -------------------------------------------------

        Reference                      10.1021/acs.jctc.8b01176
      * Hamiltonian:
        H0-scaling (s, p, d)           1.850000    2.230000    2.230000
        zeta-weighting                 0.500000
      * Dispersion:
        s8                             2.700000
        a1                             0.520000
        a2                             5.000000
        s9                             5.000000
      * Repulsion:
        kExp                           1.500000    1.000000
        rExp                           1.000000
      * Coulomb:
        alpha                          2.000000
        third order                    shell-resolved
        anisotropic                    true
        a3                             3.000000
        a5                             4.000000
        cn-shift                       1.200000
        cn-exp                         4.000000
        max-rad                        5.000000


          ...................................................
          :                      SETUP                      :
          :.................................................:
          :  # basis functions                 122          :
          :  # atomic orbitals                 121          :
          :  # shells                           67          :
          :  # electrons                       128          :
          :  max. iterations                   250          :
          :  Hamiltonian                  GFN2-xTB          :
          :  restarted?                      false          :
          :  GBSA solvation                  false          :
          :  PC potential                    false          :
          :  electronic temp.          300.0000000     K    :
          :  accuracy                    1.0000000          :
          :  -> integral cutoff          0.2500000E+02      :
          :  -> integral neglect         0.1000000E-07      :
          :  -> SCF convergence          0.1000000E-05 Eh   :
          :  -> wf. convergence          0.1000000E-03 e    :
          :  Broyden damping             0.4000000          :
          :  net charge                          0          :
          :  unpaired electrons                  0          :
          ...................................................

 iter      E             dE          RMSdq      gap      omega  full diag
   1    -73.3941663 -0.733942E+02  0.464E+00    2.66       0.0  T
   2    -73.5034710 -0.109305E+00  0.270E+00    2.11       1.0  T
   3    -73.4940215  0.944954E-02  0.156E+00    2.53       1.0  T
   4    -73.5222489 -0.282274E-01  0.572E-01    2.10       1.0  T
   5    -73.5323714 -0.101224E-01  0.149E-01    2.24       1.0  T
   6    -73.5329465 -0.575103E-03  0.629E-02    2.22       1.0  T
   7    -73.5329757 -0.292173E-04  0.322E-02    2.23       1.0  T
   8    -73.5329893 -0.136305E-04  0.162E-02    2.23       1.0  T
   9    -73.5329924 -0.311666E-05  0.102E-02    2.23       1.5  T
  10    -73.5329934 -0.955121E-06  0.719E-03    2.23       2.2  T
  11    -73.5329942 -0.808958E-06  0.489E-03    2.23       3.2  T
  12    -73.5329947 -0.474294E-06  0.195E-03    2.23       8.0  T
  13    -73.5329948 -0.675845E-07  0.100E-03    2.23      15.5  T
  14    -73.5329948 -0.148590E-07  0.419E-04    2.23      37.3  T
  15    -73.5329948 -0.123805E-08  0.180E-04    2.23      86.7  T

   *** convergence criteria satisfied after 15 iterations ***

         #    Occupation            Energy/Eh            Energy/eV
      -------------------------------------------------------------
         1        2.0000           -1.0664334             -29.0191
       ...           ...                  ...                  ...
        58        2.0000           -0.4290716             -11.6756
        59        2.0000           -0.4260363             -11.5930
        60        2.0000           -0.4175775             -11.3629
        61        2.0000           -0.4128219             -11.2335
        62        2.0000           -0.4059250             -11.0458
        63        2.0000           -0.3762034             -10.2370
        64        2.0000           -0.3686199             -10.0307 (HOMO)
        65                         -0.2866327              -7.7997 (LUMO)
        66                         -0.2577631              -7.0141
        67                         -0.2480528              -6.7499
        68                         -0.2458167              -6.6890
        69                         -0.2302665              -6.2659
       ...                                ...                  ...
       121                          0.6849337              18.6380
      -------------------------------------------------------------
                  HL-Gap            0.0819872 Eh            2.2310 eV
             Fermi-level           -0.3276263 Eh           -8.9152 eV

 SCC (total)                   0 d,  0 h,  0 min,  0.110 sec
 SCC setup                      ...        0 min,  0.000 sec (  0.326%)
 Dispersion                     ...        0 min,  0.000 sec (  0.414%)
 classical contributions        ...        0 min,  0.000 sec (  0.127%)
 integral evaluation            ...        0 min,  0.008 sec (  7.582%)
 iterations                     ...        0 min,  0.075 sec ( 67.697%)
 molecular gradient             ...        0 min,  0.026 sec ( 23.667%)
 printout                       ...        0 min,  0.000 sec (  0.180%)

         :::::::::::::::::::::::::::::::::::::::::::::::::::::
         ::                     SUMMARY                     ::
         :::::::::::::::::::::::::::::::::::::::::::::::::::::
         :: total energy             -72.614308162057 Eh    ::
         :: gradient norm              0.096227124605 Eh/a0 ::
         :: HOMO-LUMO gap              2.230986022134 eV    ::
         ::.................................................::
         :: SCC energy               -73.532975259238 Eh    ::
         :: -> isotropic ES            0.100149651604 Eh    ::
         :: -> anisotropic ES          0.002310441261 Eh    ::
         :: -> anisotropic XC          0.020453289659 Eh    ::
         :: -> dispersion             -0.047862941382 Eh    ::
         :: repulsion energy           0.918667097180 Eh    ::
         :: add. restraining           0.000000000000 Eh    ::
         :: total charge              -0.000000000000 e     ::
         :::::::::::::::::::::::::::::::::::::::::::::::::::::

      ----------------------------------------------------------- 
     |                   =====================                   |
     |                        A N C O P T                        |
     |                   =====================                   |
     |               Approximate Normal Coordinate               |
     |                Rational Function Optimizer                |
      ----------------------------------------------------------- 
      ----------------------------------------------------------- 
     |                   =====================                   |
     |                        A N C O P T                        |
     |                   =====================                   |
     |               Approximate Normal Coordinate               |
     |                Rational Function Optimizer                |
      ----------------------------------------------------------- 

          ...................................................
          :                      SETUP                      :
          :.................................................:
          :   optimization level            normal          :
          :   max. optcycles                   200          :
          :   ANC micro-cycles                  20          :
          :   degrees of freedom               117          :
          :.................................................:
          :   RF solver                   davidson          :
          :   write xtbopt.log                true          :
          :   linear?                        false          :
          :   energy convergence         0.5000000E-05 Eh   :
          :   grad. convergence          0.1000000E-02 Eh/α :
          :   maxmium RF displ.          1.0000000          :
          :   Hlow (freq-cutoff)         0.1000000E-01      :
          :   Hmax (freq-cutoff)         5.0000000          :
          :   S6 in model hess.         20.0000000          :
          ...................................................

generating ANC from exact Hessian ...
Using Lindh-Hessian (1995)
 Shifting diagonal of input Hessian by    9.6081568568442029E-003
 Lowest  eigenvalues of input Hessian
    0.000000    0.000000    0.000000    0.000000    0.000000    0.000000
    0.010000    0.010251    0.010384    0.010702    0.011105    0.011688
    0.012718    0.013451    0.013994    0.014737    0.016025    0.016550
 Highest eigenvalues
    1.933814    2.012509    2.021721    2.115064    2.194636    2.257657


........................................................................
.............................. CYCLE    1 ..............................
........................................................................

 iter      E             dE          RMSdq      gap      omega  full diag
   1    -73.5329948 -0.735330E+02  0.896E-05    2.23       0.0  T
   2    -73.5329948 -0.684395E-10  0.662E-05    2.23     235.8  T
   3    -73.5329948 -0.436415E-10  0.504E-05    2.23     309.7  T
     SCC iter.                  ...        0 min,  0.056 sec
     gradient                   ...        0 min,  0.025 sec
 * total energy  :   -72.6143082 Eh     change       -0.3290808E-09 Eh
   gradient norm :     0.0962263 Eh/α   predicted     0.0000000E+00 (-100.00%)
   displ. norm   :     0.3202843 α      lambda       -0.1321561E-01
   maximum displ.:     0.1304180 α      in ANC's #23, #11, #20, ...

........................................................................
.............................. CYCLE    2 ..............................
........................................................................

 iter      E             dE          RMSdq      gap      omega  full diag
   1    -73.5805852 -0.735806E+02  0.195E-01    2.33       0.0  T
   2    -73.5806783 -0.931391E-04  0.116E-01    2.35       1.0  T
   3    -73.5806426  0.356663E-04  0.469E-02    2.35       1.0  T
   4    -73.5806931 -0.504793E-04  0.103E-02    2.36       1.5  T
   5    -73.5806969 -0.383424E-05  0.443E-03    2.35       3.5  T
   6    -73.5806974 -0.497621E-06  0.222E-03    2.35       7.0  T
   7    -73.5806975 -0.457751E-07  0.119E-03    2.35      13.1  T
   8    -73.5806975 -0.214920E-07  0.541E-04    2.35      28.9  T
   9    -73.5806975 -0.266604E-08  0.333E-04    2.35      46.9  T
     SCC iter.                  ...        0 min,  0.067 sec
     gradient                   ...        0 min,  0.025 sec
 * total energy  :   -72.6235024 Eh     change       -0.9194255E-02 Eh
   gradient norm :     0.0386214 Eh/α   predicted    -0.7295783E-02 ( -20.65%)
   displ. norm   :     0.3253775 α      lambda       -0.4609574E-02
   maximum displ.:     0.1226454 α      in ANC's #11, #23, #7, ...

........................................................................
.............................. CYCLE    3 ..............................
........................................................................

 iter      E             dE          RMSdq      gap      omega  full diag
   1    -73.6063549 -0.736064E+02  0.135E-01    2.42       0.0  T
   2    -73.6063956 -0.407262E-04  0.795E-02    2.44       1.0  T
   3    -73.6063813  0.143281E-04  0.318E-02    2.44       1.0  T
   4    -73.6064043 -0.230279E-04  0.568E-03    2.44       2.7  T
   5    -73.6064051 -0.756732E-06  0.277E-03    2.44       5.6  T
   6    -73.6064052 -0.105206E-06  0.130E-03    2.44      12.0  T
   7    -73.6064052 -0.111552E-07  0.580E-04    2.44      26.9  T
   8    -73.6064052 -0.265872E-08  0.393E-04    2.44      39.8  T
     SCC iter.                  ...        0 min,  0.019 sec
     gradient                   ...        0 min,  0.057 sec
 * total energy  :   -72.6262130 Eh     change       -0.2710555E-02 Eh
   gradient norm :     0.0110473 Eh/α   predicted    -0.2550542E-02 (  -5.90%)
   displ. norm   :     0.2121136 α      lambda       -0.8030742E-03
   maximum displ.:     0.1024089 α      in ANC's #11, #7, #3, ...

........................................................................
.............................. CYCLE    4 ..............................
........................................................................

 iter      E             dE          RMSdq      gap      omega  full diag
   1    -73.6082862 -0.736083E+02  0.530E-02    2.44       0.0  T
   2    -73.6082907 -0.444358E-05  0.317E-02    2.45       1.0  T
   3    -73.6082879  0.279176E-05  0.110E-02    2.45       1.4  T
   4    -73.6082917 -0.385861E-05  0.238E-03    2.46       6.6  T
   5    -73.6082919 -0.172591E-06  0.114E-03    2.46      13.8  T
   6    -73.6082919 -0.937690E-08  0.604E-04    2.46      25.9  T
   7    -73.6082919 -0.477633E-08  0.278E-04    2.46      56.1  T
     SCC iter.                  ...        0 min,  0.016 sec
     gradient                   ...        0 min,  0.025 sec
 * total energy  :   -72.6267612 Eh     change       -0.5481902E-03 Eh
   gradient norm :     0.0087604 Eh/α   predicted    -0.4196236E-03 ( -23.45%)
   displ. norm   :     0.2316660 α      lambda       -0.4792975E-03
   maximum displ.:     0.1249966 α      in ANC's #7, #11, #3, ...

........................................................................
.............................. CYCLE    5 ..............................
........................................................................

 iter      E             dE          RMSdq      gap      omega  full diag
   1    -73.6075538 -0.736076E+02  0.546E-02    2.45       0.0  T
   2    -73.6075573 -0.353088E-05  0.326E-02    2.45       1.0  T
   3    -73.6075551  0.219895E-05  0.958E-03    2.46       1.6  T
   4    -73.6075578 -0.267158E-05  0.313E-03    2.45       5.0  T
   5    -73.6075581 -0.298639E-06  0.127E-03    2.45      12.3  T
   6    -73.6075581 -0.163625E-07  0.788E-04    2.45      19.8  T
   7    -73.6075581 -0.647154E-08  0.425E-04    2.45      36.7  T
     SCC iter.                  ...        0 min,  0.017 sec
     gradient                   ...        0 min,  0.025 sec
 * total energy  :   -72.6270640 Eh     change       -0.3027881E-03 Eh
   gradient norm :     0.0054348 Eh/α   predicted    -0.2525152E-03 ( -16.60%)
   displ. norm   :     0.1646535 α      lambda       -0.1820336E-03
   maximum displ.:     0.0888472 α      in ANC's #7, #3, #6, ...

........................................................................
.............................. CYCLE    6 ..............................
........................................................................

 iter      E             dE          RMSdq      gap      omega  full diag
   1    -73.6069059 -0.736069E+02  0.388E-02    2.45       0.0  T
   2    -73.6069066 -0.689920E-06  0.228E-02    2.45       1.0  T
   3    -73.6069054  0.119739E-05  0.601E-03    2.45       2.6  T
   4    -73.6069068 -0.140573E-05  0.176E-03    2.45       8.9  T
   5    -73.6069068 -0.729273E-07  0.947E-04    2.45      16.5  T
   6    -73.6069068 -0.610902E-08  0.613E-04    2.45      25.5  T
     SCC iter.                  ...        0 min,  0.014 sec
     gradient                   ...        0 min,  0.025 sec
 * total energy  :   -72.6271949 Eh     change       -0.1309560E-03 Eh
   gradient norm :     0.0036299 Eh/α   predicted    -0.9348547E-04 ( -28.61%)
   displ. norm   :     0.2009280 α      lambda       -0.1641735E-03
   maximum displ.:     0.1003554 α      in ANC's #3, #7, #6, ...

........................................................................
.............................. CYCLE    7 ..............................
........................................................................

 iter      E             dE          RMSdq      gap      omega  full diag
   1    -73.6065267 -0.736065E+02  0.511E-02    2.44       0.0  T
   2    -73.6065276 -0.958156E-06  0.300E-02    2.43       1.0  T
   3    -73.6065240  0.367320E-05  0.104E-02    2.44       1.5  T
   4    -73.6065282 -0.424702E-05  0.192E-03    2.43       8.1  T
   5    -73.6065283 -0.729881E-07  0.107E-03    2.43      14.7  T
   6    -73.6065283 -0.825041E-08  0.578E-04    2.43      27.0  T
   7    -73.6065283 -0.278598E-08  0.338E-04    2.43      46.2  T
     SCC iter.                  ...        0 min,  0.056 sec
     gradient                   ...        0 min,  0.025 sec
 * total energy  :   -72.6273202 Eh     change       -0.1253048E-03 Eh
   gradient norm :     0.0042570 Eh/α   predicted    -0.8540631E-04 ( -31.84%)
   displ. norm   :     0.2700731 α      lambda       -0.1840646E-03
   maximum displ.:     0.1353092 α      in ANC's #3, #7, #4, ...

........................................................................
.............................. CYCLE    8 ..............................
........................................................................

 iter      E             dE          RMSdq      gap      omega  full diag
   1    -73.6062719 -0.736063E+02  0.737E-02    2.43       0.0  T
   2    -73.6062739 -0.201728E-05  0.433E-02    2.42       1.0  T
   3    -73.6062652  0.865954E-05  0.161E-02    2.42       1.0  T
   4    -73.6062752 -0.999267E-05  0.261E-03    2.42       6.0  T
   5    -73.6062753 -0.124692E-06  0.143E-03    2.42      10.9  T
   6    -73.6062754 -0.131111E-07  0.771E-04    2.42      20.3  T
   7    -73.6062754 -0.653650E-08  0.283E-04    2.42      55.2  T
     SCC iter.                  ...        0 min,  0.016 sec
     gradient                   ...        0 min,  0.064 sec
 * total energy  :   -72.6274605 Eh     change       -0.1403314E-03 Eh
   gradient norm :     0.0053198 Eh/α   predicted    -0.9874853E-04 ( -29.63%)
   displ. norm   :     0.3019910 α      lambda       -0.1797218E-03
   maximum displ.:     0.1532014 α      in ANC's #3, #4, #10, ...

........................................................................
.............................. CYCLE    9 ..............................
........................................................................

 iter      E             dE          RMSdq      gap      omega  full diag
   1    -73.6061099 -0.736061E+02  0.891E-02    2.41       0.0  T
   2    -73.6061135 -0.355199E-05  0.522E-02    2.40       1.0  T
   3    -73.6061009  0.126239E-04  0.198E-02    2.40       1.0  T
   4    -73.6061155 -0.145903E-04  0.347E-03    2.40       4.5  T
   5    -73.6061157 -0.246673E-06  0.186E-03    2.40       8.4  T
   6    -73.6061157 -0.153154E-07  0.113E-03    2.40      13.8  T
   7    -73.6061157 -0.183545E-07  0.533E-04    2.40      29.3  T
   8    -73.6061157 -0.249514E-08  0.396E-04    2.40      39.4  T
     SCC iter.                  ...        0 min,  0.019 sec
     gradient                   ...        0 min,  0.064 sec
 * total energy  :   -72.6275918 Eh     change       -0.1312142E-03 Eh
   gradient norm :     0.0057496 Eh/α   predicted    -0.9806055E-04 ( -25.27%)
   displ. norm   :     0.2487835 α      lambda       -0.1436773E-03
   maximum displ.:     0.1268490 α      in ANC's #3, #10, #4, ...

........................................................................
.............................. CYCLE   10 ..............................
........................................................................

 iter      E             dE          RMSdq      gap      omega  full diag
   1    -73.6070736 -0.736071E+02  0.772E-02    2.40       0.0  T
   2    -73.6070767 -0.312598E-05  0.452E-02    2.39       1.0  T
   3    -73.6070678  0.890530E-05  0.169E-02    2.39       1.0  T
   4    -73.6070781 -0.103108E-04  0.329E-03    2.39       4.7  T
   5    -73.6070784 -0.258583E-06  0.169E-03    2.39       9.2  T
   6    -73.6070784 -0.163813E-07  0.106E-03    2.39      14.7  T
   7    -73.6070784 -0.145373E-07  0.551E-04    2.39      28.4  T
   8    -73.6070784 -0.300874E-08  0.419E-04    2.39      37.3  T
     SCC iter.                  ...        0 min,  0.019 sec
     gradient                   ...        0 min,  0.064 sec
 * total energy  :   -72.6276936 Eh     change       -0.1018232E-03 Eh
   gradient norm :     0.0042770 Eh/α   predicted    -0.7628701E-04 ( -25.08%)
   displ. norm   :     0.2031307 α      lambda       -0.9828679E-04
   maximum displ.:     0.1003357 α      in ANC's #3, #10, #4, ...

........................................................................
.............................. CYCLE   11 ..............................
........................................................................

 iter      E             dE          RMSdq      gap      omega  full diag
   1    -73.6076323 -0.736076E+02  0.668E-02    2.39       0.0  T
   2    -73.6076346 -0.237421E-05  0.391E-02    2.39       1.0  T
   3    -73.6076286  0.604113E-05  0.138E-02    2.39       1.1  T
   4    -73.6076356 -0.698710E-05  0.275E-03    2.39       5.7  T
   5    -73.6076358 -0.189023E-06  0.130E-03    2.39      12.0  T
   6    -73.6076358 -0.108237E-07  0.736E-04    2.39      21.2  T
   7    -73.6076358 -0.658592E-08  0.277E-04    2.39      56.4  T
     SCC iter.                  ...        0 min,  0.016 sec
     gradient                   ...        0 min,  0.025 sec
 * total energy  :   -72.6277671 Eh     change       -0.7348639E-04 Eh
   gradient norm :     0.0049683 Eh/α   predicted    -0.5117265E-04 ( -30.36%)
   displ. norm   :     0.2014724 α      lambda       -0.1103316E-03
   maximum displ.:     0.0852489 α      in ANC's #10, #3, #1, ...

........................................................................
.............................. CYCLE   12 ..............................
........................................................................

 iter      E             dE          RMSdq      gap      omega  full diag
   1    -73.6089827 -0.736090E+02  0.651E-02    2.40       0.0  T
   2    -73.6089848 -0.217827E-05  0.382E-02    2.39       1.0  T
   3    -73.6089812  0.365505E-05  0.113E-02    2.40       1.4  T
   4    -73.6089856 -0.439551E-05  0.278E-03    2.39       5.6  T
   5    -73.6089858 -0.204007E-06  0.132E-03    2.39      11.9  T
   6    -73.6089858 -0.105730E-07  0.627E-04    2.39      24.9  T
   7    -73.6089858 -0.329402E-08  0.290E-04    2.39      53.9  T
     SCC iter.                  ...        0 min,  0.050 sec
     gradient                   ...        0 min,  0.025 sec
 * total energy  :   -72.6278406 Eh     change       -0.7354387E-04 Eh
   gradient norm :     0.0044223 Eh/α   predicted    -0.5740603E-04 ( -21.94%)
   displ. norm   :     0.3515728 α      lambda       -0.1254766E-03
   maximum displ.:     0.1676816 α      in ANC's #10, #3, #1, ...

........................................................................
.............................. CYCLE   13 ..............................
........................................................................

 iter      E             dE          RMSdq      gap      omega  full diag
   1    -73.6053776 -0.736054E+02  0.121E-01    2.40       0.0  T
   2    -73.6053850 -0.739087E-05  0.708E-02    2.39       1.0  T
   3    -73.6053727  0.123027E-04  0.201E-02    2.40       1.0  T
   4    -73.6053873 -0.146522E-04  0.516E-03    2.39       3.0  T
   5    -73.6053880 -0.633900E-06  0.244E-03    2.40       6.4  T
   6    -73.6053880 -0.369868E-07  0.122E-03    2.39      12.8  T
   7    -73.6053880 -0.100664E-07  0.397E-04    2.39      39.3  T
   8    -73.6053880 -0.325419E-08  0.226E-04    2.39      69.0  T
     SCC iter.                  ...        0 min,  0.019 sec
     gradient                   ...        0 min,  0.058 sec
 * total energy  :   -72.6278392 Eh     change        0.1449441E-05 Eh
   gradient norm :     0.0144574 Eh/α   predicted    -0.7049405E-04 (*******%)
   displ. norm   :     0.1224447 α      lambda       -0.2030639E-03
   maximum displ.:     0.0625860 α      in ANC's #3, #10, #4, ...

........................................................................
.............................. CYCLE   14 ..............................
........................................................................

 iter      E             dE          RMSdq      gap      omega  full diag
   1    -73.6083320 -0.736083E+02  0.439E-02    2.40       0.0  T
   2    -73.6083372 -0.514804E-05  0.263E-02    2.40       1.0  T
   3    -73.6083353  0.186749E-05  0.127E-02    2.40       1.2  T
   4    -73.6083381 -0.284382E-05  0.374E-03    2.40       4.2  T
   5    -73.6083386 -0.489686E-06  0.117E-03    2.40      13.4  T
   6    -73.6083386 -0.893091E-08  0.696E-04    2.40      22.5  T
   7    -73.6083386 -0.302360E-08  0.367E-04    2.40      42.6  T
     SCC iter.                  ...        0 min,  0.017 sec
     gradient                   ...        0 min,  0.052 sec
 * total energy  :   -72.6279489 Eh     change       -0.1096912E-03 Eh
   gradient norm :     0.0035841 Eh/α   predicted    -0.1030549E-03 (  -6.05%)
   displ. norm   :     0.1132069 α      lambda       -0.5940272E-04
   maximum displ.:     0.0630405 α      in ANC's #1, #10, #7, ...

........................................................................
.............................. CYCLE   15 ..............................
........................................................................

 iter      E             dE          RMSdq      gap      omega  full diag
   1    -73.6084212 -0.736084E+02  0.376E-02    2.41       0.0  T
   2    -73.6084217 -0.490286E-06  0.220E-02    2.41       1.0  T
   3    -73.6084214  0.253882E-06  0.392E-03    2.41       4.0  T
   4    -73.6084219 -0.460728E-06  0.115E-03    2.41      13.5  T
   5    -73.6084219 -0.763976E-08  0.716E-04    2.41      21.8  T
   6    -73.6084219 -0.416502E-08  0.274E-04    2.41      57.0  T
     SCC iter.                  ...        0 min,  0.014 sec
     gradient                   ...        0 min,  0.025 sec
 * total energy  :   -72.6279991 Eh     change       -0.5023223E-04 Eh
   gradient norm :     0.0023990 Eh/α   predicted    -0.3008270E-04 ( -40.11%)
   displ. norm   :     0.3131879 α      lambda       -0.1349160E-03
   maximum displ.:     0.1724121 α      in ANC's #1, #10, #12, ...

........................................................................
.............................. CYCLE   16 ..............................
........................................................................

 iter      E             dE          RMSdq      gap      omega  full diag
   1    -73.6067237 -0.736067E+02  0.108E-01    2.43       0.0  T
   2    -73.6067274 -0.367695E-05  0.633E-02    2.43       1.0  T
   3    -73.6067262  0.111042E-05  0.916E-03    2.43       1.7  T
   4    -73.6067287 -0.247120E-05  0.344E-03    2.43       4.5  T
   5    -73.6067289 -0.141632E-06  0.195E-03    2.43       8.0  T
   6    -73.6067289 -0.894927E-08  0.105E-03    2.43      14.9  T
   7    -73.6067289 -0.263184E-07  0.311E-04    2.43      50.2  T
   8    -73.6067289 -0.108379E-08  0.202E-04    2.43      77.3  T
     SCC iter.                  ...        0 min,  0.046 sec
     gradient                   ...        0 min,  0.025 sec
 * total energy  :   -72.6280742 Eh     change       -0.7510081E-04 Eh
   gradient norm :     0.0061923 Eh/α   predicted    -0.7407843E-04 (  -1.36%)
   displ. norm   :     0.0463354 α      lambda       -0.4267520E-04
   maximum displ.:     0.0246266 α      in ANC's #1, #22, #4, ...

........................................................................
.............................. CYCLE   17 ..............................
........................................................................

 iter      E             dE          RMSdq      gap      omega  full diag
   1    -73.6077329 -0.736077E+02  0.179E-02    2.43       0.0  T
   2    -73.6077336 -0.686254E-06  0.106E-02    2.43       1.5  T
   3    -73.6077334  0.202047E-06  0.379E-03    2.43       4.1  T
   4    -73.6077337 -0.269884E-06  0.112E-03    2.43      13.9  T
   5    -73.6077337 -0.369109E-07  0.496E-04    2.43      31.5  T
   6    -73.6077337 -0.380560E-08  0.329E-04    2.43      47.5  T
     SCC iter.                  ...        0 min,  0.014 sec
     gradient                   ...        0 min,  0.056 sec
 * total energy  :   -72.6281038 Eh     change       -0.2965855E-04 Eh
   gradient norm :     0.0027980 Eh/α   predicted    -0.2138436E-04 ( -27.90%)
   displ. norm   :     0.1391585 α      lambda       -0.4533953E-04
   maximum displ.:     0.0894840 α      in ANC's #1, #10, #11, ...

........................................................................
.............................. CYCLE   18 ..............................
........................................................................

 iter      E             dE          RMSdq      gap      omega  full diag
   1    -73.6079881 -0.736080E+02  0.468E-02    2.44       0.0  T
   2    -73.6079888 -0.715509E-06  0.274E-02    2.44       1.0  T
   3    -73.6079886  0.231139E-06  0.406E-03    2.44       3.8  T
   4    -73.6079891 -0.514518E-06  0.143E-03    2.44      10.9  T
   5    -73.6079891 -0.163657E-07  0.879E-04    2.44      17.8  T
   6    -73.6079891 -0.623486E-08  0.416E-04    2.44      37.5  T
     SCC iter.                  ...        0 min,  0.014 sec
     gradient                   ...        0 min,  0.025 sec
 * total energy  :   -72.6281379 Eh     change       -0.3402909E-04 Eh
   gradient norm :     0.0025019 Eh/α   predicted    -0.2311146E-04 ( -32.08%)
   displ. norm   :     0.1622948 α      lambda       -0.5290030E-04
   maximum displ.:     0.1043568 α      in ANC's #1, #10, #15, ...

........................................................................
.............................. CYCLE   19 ..............................
........................................................................

 iter      E             dE          RMSdq      gap      omega  full diag
   1    -73.6083517 -0.736084E+02  0.520E-02    2.45       0.0  T
   2    -73.6083525 -0.758556E-06  0.304E-02    2.45       1.0  T
   3    -73.6083519  0.581428E-06  0.503E-03    2.45       3.1  T
   4    -73.6083528 -0.930982E-06  0.175E-03    2.45       8.9  T
   5    -73.6083529 -0.334281E-07  0.103E-03    2.45      15.2  T
   6    -73.6083529 -0.107122E-07  0.400E-04    2.45      39.1  T
   7    -73.6083529 -0.264782E-08  0.136E-04    2.45     114.6  T
     SCC iter.                  ...        0 min,  0.017 sec
     gradient                   ...        0 min,  0.025 sec
 * total energy  :   -72.6281765 Eh     change       -0.3864744E-04 Eh
   gradient norm :     0.0026532 Eh/α   predicted    -0.2714902E-04 ( -29.75%)
   displ. norm   :     0.1622043 α      lambda       -0.4957860E-04
   maximum displ.:     0.1039061 α      in ANC's #1, #10, #5, ...

........................................................................
.............................. CYCLE   20 ..............................
........................................................................

 iter      E             dE          RMSdq      gap      omega  full diag
   1    -73.6085544 -0.736086E+02  0.512E-02    2.45       0.0  T
   2    -73.6085556 -0.121858E-05  0.299E-02    2.44       1.0  T
   3    -73.6085550  0.551355E-06  0.520E-03    2.44       3.0  T
   4    -73.6085559 -0.890904E-06  0.173E-03    2.44       9.0  T
   5    -73.6085560 -0.525505E-07  0.928E-04    2.44      16.8  T
   6    -73.6085560 -0.360879E-08  0.445E-04    2.44      35.1  T
     SCC iter.                  ...        0 min,  0.014 sec
     gradient                   ...        0 min,  0.058 sec
 * total energy  :   -72.6282134 Eh     change       -0.3690093E-04 Eh
   gradient norm :     0.0035765 Eh/α   predicted    -0.2544377E-04 ( -31.05%)
   displ. norm   :     0.2247648 α      lambda       -0.6442385E-04
   maximum displ.:     0.1352269 α      in ANC's #1, #10, #5, ...
 * RMSD in coord.:     0.4581367 α      energy gain  -0.1390526E-01 Eh

generating ANC from exact Hessian ...
Using Lindh-Hessian (1995)
 Shifting diagonal of input Hessian by    9.6148206114139104E-003
 Lowest  eigenvalues of input Hessian
    0.000000    0.000000    0.000000    0.000000    0.000000    0.000000
    0.010000    0.010265    0.010470    0.010826    0.011309    0.011889
    0.012961    0.013502    0.014162    0.014903    0.016099    0.017107
 Highest eigenvalues
    2.009891    2.067809    2.086064    2.190443    2.361979    2.362184


........................................................................
.............................. CYCLE   21 ..............................
........................................................................

 iter      E             dE          RMSdq      gap      omega  full diag
   1    -73.6078924 -0.736079E+02  0.686E-02    2.44       0.0  T
   2    -73.6078940 -0.159202E-05  0.405E-02    2.44       1.0  T
   3    -73.6078928  0.120561E-05  0.724E-03    2.44       2.2  T
   4    -73.6078947 -0.186915E-05  0.219E-03    2.44       7.1  T
   5    -73.6078947 -0.476359E-07  0.129E-03    2.44      12.1  T
   6    -73.6078947 -0.664821E-08  0.575E-04    2.44      27.2  T
   7    -73.6078948 -0.532373E-08  0.233E-04    2.44      66.9  T
     SCC iter.                  ...        0 min,  0.056 sec
     gradient                   ...        0 min,  0.025 sec
 * total energy  :   -72.6282576 Eh     change       -0.4419107E-04 Eh
   gradient norm :     0.0056200 Eh/α   predicted     0.0000000E+00 (-100.00%)
   displ. norm   :     0.0380809 α      lambda       -0.4630283E-04
   maximum displ.:     0.0162166 α      in ANC's #10, #8, #2, ...

........................................................................
.............................. CYCLE   22 ..............................
........................................................................

 iter      E             dE          RMSdq      gap      omega  full diag
   1    -73.6083196 -0.736083E+02  0.144E-02    2.43       0.0  T
   2    -73.6083203 -0.747581E-06  0.847E-03    2.43       1.8  T
   3    -73.6083202  0.921416E-07  0.423E-03    2.43       3.7  T
   4    -73.6083205 -0.217102E-06  0.135E-03    2.43      11.6  T
   5    -73.6083205 -0.653242E-07  0.404E-04    2.43      38.6  T
   6    -73.6083205 -0.221173E-08  0.215E-04    2.43      72.6  T
     SCC iter.                  ...        0 min,  0.014 sec
     gradient                   ...        0 min,  0.064 sec
 * total energy  :   -72.6283009 Eh     change       -0.4328897E-04 Eh
   gradient norm :     0.0027959 Eh/α   predicted    -0.2729469E-04 ( -36.95%)
   displ. norm   :     0.0985614 α      lambda       -0.7471140E-04
   maximum displ.:     0.0420402 α      in ANC's #8, #2, #10, ...

........................................................................
.............................. CYCLE   23 ..............................
........................................................................

 iter      E             dE          RMSdq      gap      omega  full diag
   1    -73.6084471 -0.736084E+02  0.344E-02    2.42       0.0  T
   2    -73.6084492 -0.211267E-05  0.199E-02    2.42       1.0  T
   3    -73.6084481  0.109134E-05  0.808E-03    2.42       1.9  T
   4    -73.6084495 -0.137516E-05  0.258E-03    2.42       6.0  T
   5    -73.6084497 -0.232144E-06  0.863E-04    2.42      18.1  T
   6    -73.6084497 -0.114138E-07  0.453E-04    2.42      34.5  T
     SCC iter.                  ...        0 min,  0.014 sec
     gradient                   ...        0 min,  0.065 sec
 * total energy  :   -72.6283507 Eh     change       -0.4980950E-04 Eh
   gradient norm :     0.0018968 Eh/α   predicted    -0.3771890E-04 ( -24.27%)
   displ. norm   :     0.1556483 α      lambda       -0.3907114E-04
   maximum displ.:     0.0709455 α      in ANC's #8, #2, #10, ...

........................................................................
.............................. CYCLE   24 ..............................
........................................................................

 iter      E             dE          RMSdq      gap      omega  full diag
   1    -73.6080772 -0.736081E+02  0.496E-02    2.41       0.0  T
   2    -73.6080782 -0.102189E-05  0.289E-02    2.41       1.0  T
   3    -73.6080769  0.132117E-05  0.683E-03    2.41       2.3  T
   4    -73.6080786 -0.170437E-05  0.198E-03    2.41       7.9  T
   5    -73.6080786 -0.791500E-07  0.106E-03    2.41      14.8  T
   6    -73.6080786 -0.900511E-08  0.541E-04    2.41      28.9  T
   7    -73.6080787 -0.318217E-08  0.131E-04    2.41     119.1  T
     SCC iter.                  ...        0 min,  0.017 sec
     gradient                   ...        0 min,  0.025 sec
 * total energy  :   -72.6283940 Eh     change       -0.4325668E-04 Eh
   gradient norm :     0.0033930 Eh/α   predicted    -0.1992396E-04 ( -53.94%)
   displ. norm   :     0.1759651 α      lambda       -0.6035524E-04
   maximum displ.:     0.0819734 α      in ANC's #8, #2, #10, ...

........................................................................
.............................. CYCLE   25 ..............................
........................................................................

 iter      E             dE          RMSdq      gap      omega  full diag
   1    -73.6075645 -0.736076E+02  0.567E-02    2.40       0.0  T
   2    -73.6075653 -0.857809E-06  0.334E-02    2.40       1.0  T
   3    -73.6075647  0.618790E-06  0.559E-03    2.40       2.8  T
   4    -73.6075658 -0.109504E-05  0.172E-03    2.40       9.1  T
   5    -73.6075658 -0.749601E-08  0.106E-03    2.40      14.7  T
   6    -73.6075658 -0.133629E-07  0.353E-04    2.40      44.2  T
   7    -73.6075658 -0.358511E-08  0.129E-04    2.40     120.7  T
     SCC iter.                  ...        0 min,  0.050 sec
     gradient                   ...        0 min,  0.025 sec
 * total energy  :   -72.6284418 Eh     change       -0.4783441E-04 Eh
   gradient norm :     0.0046426 Eh/α   predicted    -0.3112603E-04 ( -34.93%)
   displ. norm   :     0.2551921 α      lambda       -0.8352930E-04
   maximum displ.:     0.1212480 α      in ANC's #2, #8, #10, ...

........................................................................
.............................. CYCLE   26 ..............................
........................................................................

 iter      E             dE          RMSdq      gap      omega  full diag
   1    -73.6067551 -0.736068E+02  0.758E-02    2.39       0.0  T
   2    -73.6067586 -0.351825E-05  0.449E-02    2.39       1.0  T
   3    -73.6067569  0.167610E-05  0.964E-03    2.38       1.6  T
   4    -73.6067597 -0.275593E-05  0.247E-03    2.38       6.3  T
   5    -73.6067597 -0.612783E-07  0.151E-03    2.38      10.4  T
   6    -73.6067597 -0.162189E-07  0.695E-04    2.38      22.5  T
   7    -73.6067598 -0.382869E-08  0.245E-04    2.38      63.8  T
     SCC iter.                  ...        0 min,  0.017 sec
     gradient                   ...        0 min,  0.059 sec
 * total energy  :   -72.6284832 Eh     change       -0.4136708E-04 Eh
   gradient norm :     0.0085780 Eh/α   predicted    -0.4455253E-04 (   7.70%)
   displ. norm   :     0.0569429 α      lambda       -0.8431822E-04
   maximum displ.:     0.0287511 α      in ANC's #2, #3, #7, ...

........................................................................
.............................. CYCLE   27 ..............................
........................................................................

 iter      E             dE          RMSdq      gap      omega  full diag
   1    -73.6079105 -0.736079E+02  0.144E-02    2.38       0.0  T
   2    -73.6079112 -0.674738E-06  0.857E-03    2.38       1.8  T
   3    -73.6079111  0.548298E-07  0.386E-03    2.38       4.0  T
   4    -73.6079113 -0.195732E-06  0.654E-04    2.38      23.9  T
   5    -73.6079113 -0.711050E-08  0.372E-04    2.38      42.0  T
     SCC iter.                  ...        0 min,  0.012 sec
     gradient                   ...        0 min,  0.059 sec
 * total energy  :   -72.6285505 Eh     change       -0.6734381E-04 Eh
   gradient norm :     0.0047260 Eh/α   predicted    -0.4229722E-04 ( -37.19%)
   displ. norm   :     0.2663295 α      lambda       -0.1448397E-03
   maximum displ.:     0.1421785 α      in ANC's #2, #3, #8, ...

........................................................................
.............................. CYCLE   28 ..............................
........................................................................

 iter      E             dE          RMSdq      gap      omega  full diag
   1    -73.6084776 -0.736085E+02  0.648E-02    2.38       0.0  T
   2    -73.6084789 -0.121307E-05  0.380E-02    2.38       1.0  T
   3    -73.6084777  0.117341E-05  0.680E-03    2.37       2.3  T
   4    -73.6084794 -0.173237E-05  0.179E-03    2.37       8.7  T
   5    -73.6084794 -0.222721E-07  0.103E-03    2.37      15.2  T
   6    -73.6084795 -0.792902E-08  0.356E-04    2.37      43.9  T
   7    -73.6084795 -0.165410E-08  0.175E-04    2.37      89.1  T
     SCC iter.                  ...        0 min,  0.017 sec
     gradient                   ...        0 min,  0.025 sec
 * total energy  :   -72.6286491 Eh     change       -0.9863246E-04 Eh
   gradient norm :     0.0050106 Eh/α   predicted    -0.7755769E-04 ( -21.37%)
   displ. norm   :     0.2075354 α      lambda       -0.8342892E-04
   maximum displ.:     0.1102093 α      in ANC's #2, #3, #8, ...

........................................................................
.............................. CYCLE   29 ..............................
........................................................................

 iter      E             dE          RMSdq      gap      omega  full diag
   1    -73.6084222 -0.736084E+02  0.478E-02    2.37       0.0  T
   2    -73.6084227 -0.466335E-06  0.281E-02    2.37       1.0  T
   3    -73.6084220  0.703686E-06  0.471E-03    2.37       3.3  T
   4    -73.6084230 -0.994791E-06  0.139E-03    2.37      11.3  T
   5    -73.6084230 -0.121520E-07  0.929E-04    2.37      16.8  T
   6    -73.6084230 -0.105545E-07  0.261E-04    2.37      59.8  T
     SCC iter.                  ...        0 min,  0.014 sec
     gradient                   ...        0 min,  0.025 sec
 * total energy  :   -72.6287146 Eh     change       -0.6548450E-04 Eh
   gradient norm :     0.0054623 Eh/α   predicted    -0.4352180E-04 ( -33.54%)
   displ. norm   :     0.2873846 α      lambda       -0.1170199E-03
   maximum displ.:     0.1514320 α      in ANC's #2, #3, #8, ...

........................................................................
.............................. CYCLE   30 ..............................
........................................................................

 iter      E             dE          RMSdq      gap      omega  full diag
   1    -73.6078298 -0.736078E+02  0.682E-02    2.36       0.0  T
   2    -73.6078317 -0.191485E-05  0.401E-02    2.37       1.0  T
   3    -73.6078282  0.345530E-05  0.977E-03    2.36       1.6  T
   4    -73.6078323 -0.411008E-05  0.269E-03    2.36       5.8  T
   5    -73.6078325 -0.179155E-06  0.128E-03    2.36      12.2  T
   6    -73.6078325 -0.395771E-08  0.663E-04    2.36      23.6  T
   7    -73.6078325 -0.589066E-08  0.205E-04    2.36      76.1  T
     SCC iter.                  ...        0 min,  0.056 sec
     gradient                   ...        0 min,  0.025 sec
 * total energy  :   -72.6288004 Eh     change       -0.8574195E-04 Eh
   gradient norm :     0.0053884 Eh/α   predicted    -0.6334305E-04 ( -26.12%)
   displ. norm   :     0.2328611 α      lambda       -0.1144062E-03
   maximum displ.:     0.1185300 α      in ANC's #3, #2, #11, ...

........................................................................
.............................. CYCLE   31 ..............................
........................................................................

 iter      E             dE          RMSdq      gap      omega  full diag
   1    -73.6083572 -0.736084E+02  0.529E-02    2.36       0.0  T
   2    -73.6083600 -0.280620E-05  0.311E-02    2.37       1.0  T
   3    -73.6083548  0.517406E-05  0.135E-02    2.36       1.2  T
   4    -73.6083608 -0.600496E-05  0.329E-03    2.37       4.7  T
   5    -73.6083612 -0.372377E-06  0.112E-03    2.36      13.9  T
   6    -73.6083612 -0.958231E-08  0.618E-04    2.36      25.3  T
   7    -73.6083612 -0.130800E-08  0.241E-04    2.36      64.8  T
     SCC iter.                  ...        0 min,  0.017 sec
     gradient                   ...        0 min,  0.064 sec
 * total energy  :   -72.6288699 Eh     change       -0.6955121E-04 Eh
   gradient norm :     0.0038145 Eh/α   predicted    -0.6030817E-04 ( -13.29%)
   displ. norm   :     0.5708925 α      lambda       -0.1817056E-03
   maximum displ.:     0.2891813 α      in ANC's #2, #3, #8, ...

........................................................................
.............................. CYCLE   32 ..............................
........................................................................

 iter      E             dE          RMSdq      gap      omega  full diag
   1    -73.6033186 -0.736033E+02  0.140E-01    2.35       0.0  T
   2    -73.6033635 -0.449387E-04  0.840E-02    2.35       1.0  T
   3    -73.6033577  0.582176E-05  0.315E-02    2.35       1.0  T
   4    -73.6033727 -0.150465E-04  0.497E-03    2.35       3.1  T
   5    -73.6033729 -0.202154E-06  0.359E-03    2.35       4.4  T
   6    -73.6033732 -0.244307E-06  0.190E-03    2.35       8.2  T
   7    -73.6033732 -0.315307E-07  0.526E-04    2.35      29.7  T
   8    -73.6033732 -0.355493E-08  0.365E-04    2.35      42.7  T
     SCC iter.                  ...        0 min,  0.019 sec
     gradient                   ...        0 min,  0.025 sec
 * total energy  :   -72.6286428 Eh     change        0.2271451E-03 Eh
   gradient norm :     0.0212632 Eh/α   predicted    -0.1204643E-03 (-153.03%)
   displ. norm   :     0.2864101 α      lambda       -0.7599721E-03
   maximum displ.:     0.1441184 α      in ANC's #2, #3, #8, ...

........................................................................
.............................. CYCLE   33 ..............................
........................................................................

 iter      E             dE          RMSdq      gap      omega  full diag
   1    -73.6080033 -0.736080E+02  0.844E-02    2.36       0.0  T
   2    -73.6080701 -0.668162E-04  0.508E-02    2.36       1.0  T
   3    -73.6080766 -0.647969E-05  0.269E-02    2.36       1.0  T
   4    -73.6080780 -0.148691E-05  0.659E-03    2.36       2.4  T
   5    -73.6080789 -0.836690E-06  0.328E-03    2.36       4.8  T
   6    -73.6080792 -0.361589E-06  0.142E-03    2.36      11.0  T
   7    -73.6080792 -0.107390E-07  0.496E-04    2.36      31.5  T
   8    -73.6080793 -0.364641E-08  0.352E-04    2.36      44.3  T
     SCC iter.                  ...        0 min,  0.019 sec
     gradient                   ...        0 min,  0.025 sec
 * total energy  :   -72.6289654 Eh     change       -0.3226708E-03 Eh
   gradient norm :     0.0043767 Eh/α   predicted    -0.4111597E-03 (  27.42%)
   displ. norm   :     0.0613680 α      lambda       -0.4840572E-04
   maximum displ.:     0.0276333 α      in ANC's #4, #10, #8, ...

........................................................................
.............................. CYCLE   34 ..............................
........................................................................

 iter      E             dE          RMSdq      gap      omega  full diag
   1    -73.6086449 -0.736086E+02  0.152E-02    2.36       0.0  T
   2    -73.6086470 -0.210798E-05  0.863E-03    2.36       1.8  T
   3    -73.6086470 -0.247707E-07  0.415E-03    2.36       3.8  T
   4    -73.6086470  0.230136E-07  0.145E-03    2.36      10.8  T
   5    -73.6086470 -0.654756E-07  0.488E-04    2.36      32.0  T
   6    -73.6086470 -0.347811E-08  0.341E-04    2.36      45.8  T
     SCC iter.                  ...        0 min,  0.040 sec
     gradient                   ...        0 min,  0.026 sec
 * total energy  :   -72.6289989 Eh     change       -0.3341548E-04 Eh
   gradient norm :     0.0025059 Eh/α   predicted    -0.2429658E-04 ( -27.29%)
   displ. norm   :     0.2138021 α      lambda       -0.8574159E-04
   maximum displ.:     0.0839483 α      in ANC's #3, #2, #4, ...

........................................................................
.............................. CYCLE   35 ..............................
........................................................................

 iter      E             dE          RMSdq      gap      omega  full diag
   1    -73.6089201 -0.736089E+02  0.494E-02    2.36       0.0  T
   2    -73.6089209 -0.751411E-06  0.291E-02    2.37       1.0  T
   3    -73.6089199  0.974197E-06  0.628E-03    2.36       2.5  T
   4    -73.6089213 -0.139268E-05  0.184E-03    2.37       8.5  T
   5    -73.6089213 -0.311524E-07  0.119E-03    2.36      13.1  T
   6    -73.6089213 -0.154643E-07  0.527E-04    2.36      29.7  T
   7    -73.6089213 -0.346114E-08  0.341E-04    2.36      45.8  T
     SCC iter.                  ...        0 min,  0.016 sec
     gradient                   ...        0 min,  0.025 sec
 * total energy  :   -72.6290592 Eh     change       -0.6038527E-04 Eh
   gradient norm :     0.0032469 Eh/α   predicted    -0.4483503E-04 ( -25.75%)
   displ. norm   :     0.2333613 α      lambda       -0.5869145E-04
   maximum displ.:     0.0977838 α      in ANC's #3, #2, #4, ...

........................................................................
.............................. CYCLE   36 ..............................
........................................................................

 iter      E             dE          RMSdq      gap      omega  full diag
   1    -73.6085250 -0.736085E+02  0.526E-02    2.37       0.0  T
   2    -73.6085257 -0.692468E-06  0.310E-02    2.37       1.0  T
   3    -73.6085247  0.101230E-05  0.596E-03    2.37       2.6  T
   4    -73.6085261 -0.142844E-05  0.169E-03    2.37       9.2  T
   5    -73.6085262 -0.161337E-07  0.103E-03    2.37      15.2  T
   6    -73.6085262 -0.100580E-07  0.387E-04    2.37      40.4  T
   7    -73.6085262 -0.274170E-08  0.186E-04    2.37      83.9  T
     SCC iter.                  ...        0 min,  0.017 sec
     gradient                   ...        0 min,  0.025 sec
 * total energy  :   -72.6290974 Eh     change       -0.3815870E-04 Eh
   gradient norm :     0.0046030 Eh/α   predicted    -0.3094867E-04 ( -18.89%)
   displ. norm   :     0.1353926 α      lambda       -0.5402586E-04
   maximum displ.:     0.0692944 α      in ANC's #4, #3, #2, ...

........................................................................
.............................. CYCLE   37 ..............................
........................................................................

 iter      E             dE          RMSdq      gap      omega  full diag
   1    -73.6088600 -0.736089E+02  0.335E-02    2.37       0.0  T
   2    -73.6088622 -0.219046E-05  0.199E-02    2.37       1.0  T
   3    -73.6088613  0.877069E-06  0.721E-03    2.37       2.2  T
   4    -73.6088623 -0.102367E-05  0.257E-03    2.37       6.1  T
   5    -73.6088626 -0.251716E-06  0.800E-04    2.37      19.5  T
   6    -73.6088626 -0.113466E-07  0.413E-04    2.37      37.8  T
     SCC iter.                  ...        0 min,  0.014 sec
     gradient                   ...        0 min,  0.047 sec
 * total energy  :   -72.6291373 Eh     change       -0.3985851E-04 Eh
   gradient norm :     0.0032429 Eh/α   predicted    -0.2751007E-04 ( -30.98%)
   displ. norm   :     0.1705968 α      lambda       -0.4601786E-04
   maximum displ.:     0.0898139 α      in ANC's #4, #8, #5, ...

........................................................................
.............................. CYCLE   38 ..............................
........................................................................

 iter      E             dE          RMSdq      gap      omega  full diag
   1    -73.6089290 -0.736089E+02  0.406E-02    2.37       0.0  T
   2    -73.6089295 -0.449577E-06  0.240E-02    2.38       1.0  T
   3    -73.6089279  0.157263E-05  0.649E-03    2.37       2.4  T
   4    -73.6089298 -0.188794E-05  0.134E-03    2.38      11.6  T
   5    -73.6089298 -0.204523E-07  0.825E-04    2.38      18.9  T
   6    -73.6089298 -0.379576E-08  0.308E-04    2.38      50.7  T
     SCC iter.                  ...        0 min,  0.014 sec
     gradient                   ...        0 min,  0.026 sec
 * total energy  :   -72.6291718 Eh     change       -0.3456969E-04 Eh
   gradient norm :     0.0024491 Eh/α   predicted    -0.2367997E-04 ( -31.50%)
   displ. norm   :     0.1522209 α      lambda       -0.3771972E-04
   maximum displ.:     0.0926776 α      in ANC's #4, #5, #8, ...

........................................................................
.............................. CYCLE   39 ..............................
........................................................................

 iter      E             dE          RMSdq      gap      omega  full diag
   1    -73.6090953 -0.736091E+02  0.382E-02    2.38       0.0  T
   2    -73.6090959 -0.588759E-06  0.227E-02    2.38       1.0  T
   3    -73.6090939  0.201728E-05  0.733E-03    2.38       2.1  T
   4    -73.6090962 -0.234933E-05  0.148E-03    2.38      10.6  T
   5    -73.6090963 -0.444215E-07  0.786E-04    2.38      19.9  T
   6    -73.6090963 -0.302238E-08  0.400E-04    2.38      39.0  T
     SCC iter.                  ...        0 min,  0.035 sec
     gradient                   ...        0 min,  0.026 sec
 * total energy  :   -72.6291989 Eh     change       -0.2701845E-04 Eh
   gradient norm :     0.0016983 Eh/α   predicted    -0.1930106E-04 ( -28.56%)
   displ. norm   :     0.2795392 α      lambda       -0.2819068E-04
   maximum displ.:     0.1658652 α      in ANC's #4, #5, #8, ...

........................................................................
.............................. CYCLE   40 ..............................
........................................................................

 iter      E             dE          RMSdq      gap      omega  full diag
   1    -73.6081575 -0.736082E+02  0.695E-02    2.38       0.0  T
   2    -73.6081601 -0.257703E-05  0.409E-02    2.39       1.0  T
   3    -73.6081573  0.279917E-05  0.103E-02    2.38       1.5  T
   4    -73.6081609 -0.357842E-05  0.299E-03    2.39       5.2  T
   5    -73.6081611 -0.239583E-06  0.156E-03    2.38      10.0  T
   6    -73.6081611 -0.221928E-07  0.665E-04    2.38      23.5  T
   7    -73.6081611 -0.271200E-08  0.283E-04    2.38      55.3  T
     SCC iter.                  ...        0 min,  0.016 sec
     gradient                   ...        0 min,  0.046 sec
 * total energy  :   -72.6292086 Eh     change       -0.9712814E-05 Eh
   gradient norm :     0.0048189 Eh/α   predicted    -0.1458665E-04 (  50.18%)
   displ. norm   :     0.0813385 α      lambda       -0.4845780E-04
   maximum displ.:     0.0516443 α      in ANC's #3, #2, #4, ...

........................................................................
.............................. CYCLE   41 ..............................
........................................................................

 iter      E             dE          RMSdq      gap      omega  full diag
   1    -73.6091734 -0.736092E+02  0.206E-02    2.38       0.0  T
   2    -73.6091757 -0.230946E-05  0.126E-02    2.38       1.2  T
   3    -73.6091758 -0.112062E-06  0.630E-03    2.38       2.5  T
   4    -73.6091760 -0.235336E-06  0.190E-03    2.39       8.2  T
   5    -73.6091762 -0.123331E-06  0.622E-04    2.38      25.1  T
   6    -73.6091762 -0.781473E-08  0.369E-04    2.38      42.3  T
     SCC iter.                  ...        0 min,  0.014 sec
     gradient                   ...        0 min,  0.025 sec
 * total energy  :   -72.6292322 Eh     change       -0.2363500E-04 Eh
   gradient norm :     0.0018263 Eh/α   predicted    -0.2439341E-04 (   3.21%)
   displ. norm   :     0.0497367 α      lambda       -0.1351802E-04
   maximum displ.:     0.0317457 α      in ANC's #3, #2, #7, ...

........................................................................
.............................. CYCLE   42 ..............................
........................................................................

 iter      E             dE          RMSdq      gap      omega  full diag
   1    -73.6096293 -0.736096E+02  0.134E-02    2.38       0.0  T
   2    -73.6096296 -0.275048E-06  0.791E-03    2.38       2.0  T
   3    -73.6096295  0.461394E-07  0.195E-03    2.38       8.0  T
   4    -73.6096296 -0.557765E-07  0.642E-04    2.38      24.3  T
   5    -73.6096296 -0.110895E-07  0.167E-04    2.38      93.4  T
     SCC iter.                  ...        0 min,  0.012 sec
     gradient                   ...        0 min,  0.046 sec
 * total energy  :   -72.6292460 Eh     change       -0.1376147E-04 Eh
   gradient norm :     0.0015659 Eh/α   predicted    -0.6767393E-05 ( -50.82%)
   displ. norm   :     0.1097439 α      lambda       -0.2284638E-04
   maximum displ.:     0.0683600 α      in ANC's #3, #2, #7, ...
 * RMSD in coord.:     0.4576307 α      energy gain  -0.1032543E-02 Eh

generating ANC from exact Hessian ...
Using Lindh-Hessian (1995)
 Shifting diagonal of input Hessian by    9.6113964834238178E-003
 Lowest  eigenvalues of input Hessian
    0.000000    0.000000    0.000000    0.000000    0.000000    0.000000
    0.010000    0.010284    0.010460    0.010814    0.011340    0.011849
    0.012974    0.013176    0.014103    0.015171    0.015991    0.017587
 Highest eigenvalues
    2.010561    2.068623    2.087024    2.191312    2.358196    2.375505


........................................................................
.............................. CYCLE   43 ..............................
........................................................................

 iter      E             dE          RMSdq      gap      omega  full diag
   1    -73.6098029 -0.736098E+02  0.284E-02    2.38       0.0  T
   2    -73.6098034 -0.502074E-06  0.167E-02    2.38       1.0  T
   3    -73.6098029  0.509457E-06  0.422E-03    2.38       3.7  T
   4    -73.6098035 -0.570661E-06  0.126E-03    2.38      12.4  T
   5    -73.6098035 -0.499573E-07  0.455E-04    2.38      34.3  T
   6    -73.6098035 -0.308022E-08  0.277E-04    2.38      56.5  T
     SCC iter.                  ...        0 min,  0.014 sec
     gradient                   ...        0 min,  0.046 sec
 * total energy  :   -72.6292650 Eh     change       -0.1905029E-04 Eh
   gradient norm :     0.0014538 Eh/α   predicted     0.0000000E+00 (-100.00%)
   displ. norm   :     0.0311042 α      lambda       -0.8713856E-05
   maximum displ.:     0.0147609 α      in ANC's #3, #4, #5, ...

........................................................................
.............................. CYCLE   44 ..............................
........................................................................

 iter      E             dE          RMSdq      gap      omega  full diag
   1    -73.6095292 -0.736095E+02  0.113E-02    2.38       0.0  T
   2    -73.6095292 -0.870583E-07  0.675E-03    2.38       2.3  T
   3    -73.6095291  0.182275E-06  0.225E-03    2.38       6.9  T
   4    -73.6095293 -0.212726E-06  0.588E-04    2.38      26.6  T
   5    -73.6095293 -0.896175E-08  0.267E-04    2.38      58.6  T
     SCC iter.                  ...        0 min,  0.012 sec
     gradient                   ...        0 min,  0.026 sec
 * total energy  :   -72.6292760 Eh     change       -0.1101659E-04 Eh
   gradient norm :     0.0005413 Eh/α   predicted    -0.4601239E-05 ( -58.23%)
   displ. norm   :     0.0918059 α      lambda       -0.1650453E-04
   maximum displ.:     0.0469660 α      in ANC's #3, #4, #5, ...

........................................................................
.............................. CYCLE   45 ..............................
........................................................................

 iter      E             dE          RMSdq      gap      omega  full diag
   1    -73.6089933 -0.736090E+02  0.291E-02    2.38       0.0  T
   2    -73.6089936 -0.363971E-06  0.172E-02    2.38       1.0  T
   3    -73.6089931  0.555018E-06  0.415E-03    2.38       3.8  T
   4    -73.6089938 -0.704167E-06  0.125E-03    2.38      12.5  T
   5    -73.6089938 -0.322236E-07  0.674E-04    2.38      23.2  T
   6    -73.6089938 -0.205725E-08  0.343E-04    2.38      45.6  T
     SCC iter.                  ...        0 min,  0.041 sec
     gradient                   ...        0 min,  0.026 sec
 * total energy  :   -72.6292924 Eh     change       -0.1633834E-04 Eh
   gradient norm :     0.0014467 Eh/α   predicted    -0.8283682E-05 ( -49.30%)
   displ. norm   :     0.0879049 α      lambda       -0.1016350E-04
   maximum displ.:     0.0486258 α      in ANC's #3, #4, #5, ...

........................................................................
.............................. CYCLE   46 ..............................
........................................................................

 iter      E             dE          RMSdq      gap      omega  full diag
   1    -73.6088709 -0.736089E+02  0.268E-02    2.38       0.0  T
   2    -73.6088711 -0.173138E-06  0.158E-02    2.38       1.0  T
   3    -73.6088709  0.156705E-06  0.246E-03    2.38       6.4  T
   4    -73.6088712 -0.250484E-06  0.868E-04    2.38      18.0  T
   5    -73.6088712 -0.746283E-08  0.517E-04    2.38      30.2  T
     SCC iter.                  ...        0 min,  0.012 sec
     gradient                   ...        0 min,  0.025 sec
 * total energy  :   -72.6293034 Eh     change       -0.1100347E-04 Eh
   gradient norm :     0.0016594 Eh/α   predicted    -0.5100829E-05 ( -53.64%)
   displ. norm   :     0.1151904 α      lambda       -0.1254291E-04
   maximum displ.:     0.0649516 α      in ANC's #3, #4, #6, ...

........................................................................
.............................. CYCLE   47 ..............................
........................................................................

 iter      E             dE          RMSdq      gap      omega  full diag
   1    -73.6090276 -0.736090E+02  0.299E-02    2.38       0.0  T
   2    -73.6090278 -0.219402E-06  0.175E-02    2.38       1.0  T
   3    -73.6090279 -0.396086E-07  0.165E-03    2.38       9.5  T
   4    -73.6090279 -0.709770E-07  0.866E-04    2.38      18.0  T
   5    -73.6090279 -0.423894E-08  0.493E-04    2.38      31.7  T
     SCC iter.                  ...        0 min,  0.012 sec
     gradient                   ...        0 min,  0.025 sec
 * total energy  :   -72.6293175 Eh     change       -0.1412102E-04 Eh
   gradient norm :     0.0010321 Eh/α   predicted    -0.6311128E-05 ( -55.31%)
   displ. norm   :     0.1115171 α      lambda       -0.1015200E-04
   maximum displ.:     0.0675492 α      in ANC's #3, #4, #6, ...

........................................................................
.............................. CYCLE   48 ..............................
........................................................................

 iter      E             dE          RMSdq      gap      omega  full diag
   1    -73.6092851 -0.736093E+02  0.248E-02    2.38       0.0  T
   2    -73.6092853 -0.164356E-06  0.147E-02    2.38       1.1  T
   3    -73.6092853  0.519378E-08  0.181E-03    2.38       8.6  T
   4    -73.6092853 -0.849711E-07  0.750E-04    2.38      20.8  T
   5    -73.6092853 -0.277055E-08  0.448E-04    2.38      34.9  T
     SCC iter.                  ...        0 min,  0.051 sec
     gradient                   ...        0 min,  0.026 sec
 * total energy  :   -72.6293287 Eh     change       -0.1124794E-04 Eh
   gradient norm :     0.0007107 Eh/α   predicted    -0.5106156E-05 ( -54.60%)
   displ. norm   :     0.0817857 α      lambda       -0.6016863E-05
   maximum displ.:     0.0524647 α      in ANC's #3, #6, #4, ...

........................................................................
.............................. CYCLE   49 ..............................
........................................................................

 iter      E             dE          RMSdq      gap      omega  full diag
   1    -73.6095226 -0.736095E+02  0.138E-02    2.38       0.0  T
   2    -73.6095227 -0.870973E-07  0.824E-03    2.38       1.9  T
   3    -73.6095227  0.237417E-07  0.147E-03    2.38      10.6  T
   4    -73.6095228 -0.591194E-07  0.477E-04    2.38      32.7  T
   5    -73.6095228 -0.679094E-09  0.309E-04    2.38      50.6  T
     SCC iter.                  ...        0 min,  0.012 sec
     gradient                   ...        0 min,  0.062 sec
 * total energy  :   -72.6293358 Eh     change       -0.7031058E-05 Eh
   gradient norm :     0.0007604 Eh/α   predicted    -0.3017592E-05 ( -57.08%)
   displ. norm   :     0.0764530 α      lambda       -0.4762829E-05
   maximum displ.:     0.0493533 α      in ANC's #3, #6, #4, ...

........................................................................
.............................. CYCLE   50 ..............................
........................................................................

 iter      E             dE          RMSdq      gap      omega  full diag
   1    -73.6094422 -0.736094E+02  0.121E-02    2.38       0.0  T
   2    -73.6094423 -0.626699E-07  0.720E-03    2.38       2.2  T
   3    -73.6094423  0.270228E-07  0.122E-03    2.38      12.8  T
   4    -73.6094423 -0.500740E-07  0.515E-04    2.38      30.3  T
   5    -73.6094423 -0.463166E-08  0.302E-04    2.38      51.8  T
     SCC iter.                  ...        0 min,  0.012 sec
     gradient                   ...        0 min,  0.025 sec
 * total energy  :   -72.6293417 Eh     change       -0.5957230E-05 Eh
   gradient norm :     0.0005497 Eh/α   predicted    -0.2389021E-05 ( -59.90%)
   displ. norm   :     0.0787678 α      lambda       -0.5111813E-05
   maximum displ.:     0.0507862 α      in ANC's #3, #6, #2, ...

........................................................................
.............................. CYCLE   51 ..............................
........................................................................

 iter      E             dE          RMSdq      gap      omega  full diag
   1    -73.6095181 -0.736095E+02  0.123E-02    2.38       0.0  T
   2    -73.6095182 -0.843720E-07  0.734E-03    2.38       2.1  T
   3    -73.6095182  0.414238E-07  0.154E-03    2.38      10.1  T
   4    -73.6095183 -0.728689E-07  0.426E-04    2.38      36.6  T
   5    -73.6095183 -0.907960E-09  0.282E-04    2.38      55.3  T
     SCC iter.                  ...        0 min,  0.012 sec
     gradient                   ...        0 min,  0.025 sec
 * total energy  :   -72.6293477 Eh     change       -0.5975586E-05 Eh
   gradient norm :     0.0005757 Eh/α   predicted    -0.2565083E-05 ( -57.07%)
   displ. norm   :     0.0843692 α      lambda       -0.4034474E-05
   maximum displ.:     0.0545898 α      in ANC's #3, #6, #2, ...

........................................................................
.............................. CYCLE   52 ..............................
........................................................................

 iter      E             dE          RMSdq      gap      omega  full diag
   1    -73.6092173 -0.736092E+02  0.136E-02    2.38       0.0  T
   2    -73.6092174 -0.825028E-07  0.805E-03    2.38       1.9  T
   3    -73.6092174  0.155256E-07  0.138E-03    2.38      11.3  T
   4    -73.6092175 -0.441218E-07  0.545E-04    2.38      28.7  T
   5    -73.6092175 -0.348450E-08  0.315E-04    2.38      49.6  T
     SCC iter.                  ...        0 min,  0.012 sec
     gradient                   ...        0 min,  0.058 sec
 * total energy  :   -72.6293521 Eh     change       -0.4379603E-05 Eh
   gradient norm :     0.0006643 Eh/α   predicted    -0.2026261E-05 ( -53.73%)
   displ. norm   :     0.0562162 α      lambda       -0.2267642E-05
   maximum displ.:     0.0367598 α      in ANC's #3, #2, #6, ...

   *** GEOMETRY OPTIMIZATION CONVERGED AFTER 52 ITERATIONS ***

------------------------------------------------------------------------
 total energy gain   :        -0.0150439 Eh       -9.4402 kcal/mol
 total RMSD          :         0.7229995 a0        0.3826 Å
 total power (kW/mol):        -0.7595734 (step)  -10.1472 (real)
------------------------------------------------------------------------

 ANCopt (total)                0 d,  0 h,  0 min,  3.892 sec
 optimizer setup                ...        0 min,  0.000 sec (  0.002%)
 model hessian                  ...        0 min,  0.035 sec (  0.888%)
 ANC generation                 ...        0 min,  0.004 sec (  0.109%)
 coordinate transformation      ...        0 min,  0.000 sec (  0.009%)
 single point calculation       ...        0 min,  3.816 sec ( 98.047%)
 optimization log               ...        0 min,  0.007 sec (  0.186%)
 hessian update                 ...        0 min,  0.001 sec (  0.016%)
 rational function              ...        0 min,  0.026 sec (  0.677%)

================
 final structure:
================
41
 xtb: 6.7.1 (edcfbbe)
C            1.42474034240920       -1.84249629987559        1.00540097298511
C            0.37788446823731       -0.95084227040559        0.43386891606481
C           -0.88701809178599       -1.31097437617074        0.07331355787143
C           -1.61508184786042       -0.11548072496642       -0.24255811739376
C           -0.72419259455004        0.95900049479922       -0.04864483293833
N            0.51448924970363        0.43468807665279        0.32796413622621
C            1.64279032369568        1.21492704572438        0.52479941507114
C            2.95151029528161        0.57647834721171        0.21949210254402
C            4.05466670773129        0.86562818599925        1.01758242088328
C            5.29915445661170        0.35543315373486        0.70363687449168
C            5.44546690060175       -0.42392671575885       -0.43481919057892
Cl           6.99799520930915       -1.06041470021861       -0.83850351348463
C            4.36291180090749       -0.68979628027683       -1.26084348391937
C            3.11728626217076       -0.19090406426143       -0.93068491315276
O            1.56528790962062        2.37715083638398        0.85757915553169
C           -1.11725676485179        2.26320236177429       -0.27694514176358
C           -2.42033666741861        2.49097550628466       -0.68373911262545
C           -3.32078073560632        1.43605508537700       -0.86459642758767
O           -4.61967142504654        1.59275625297652       -1.25443393112036
C           -5.10895952099575        2.89202094069669       -1.47671535707227
C           -2.91791816971849        0.12217741263448       -0.64928634559622
C           -1.45386007764532       -2.69923819544568        0.06488163475717
C           -1.93719688741139       -2.98731824508119        1.46771515343040
O           -3.22354695840478       -2.66973304088059        1.62591345198436
O           -1.25384476255227       -3.41190287212266        2.36183753975242
H            2.04819323617764       -2.29046120207919        0.23148556334654
H            2.07123721345595       -1.29601465037030        1.68702003467275
H            0.93589047812101       -2.64104981433473        1.55981734390000
H            3.92180480136144        1.48906131228598        1.88863155765744
H            6.15325667345501        0.56488678406565        1.32791272387360
H            4.49868663280559       -1.27957656529028       -2.15377025568806
H            2.27434681357444       -0.38158928564667       -1.57872587431882
H           -0.43611436432854        3.08506246807885       -0.12998893503098
H           -2.73196805115852        3.50873347077698       -0.85363925327968
H           -4.57403445292594        3.39146494868815       -2.29127936299241
H           -6.15375793775858        2.76772431444321       -1.75783294113293
H           -5.04995880447789        3.50611164715203       -0.57224012518745
H           -3.62726417869734       -0.67620318680162       -0.79274932530038
H           -0.68749412016493       -3.42429219985016       -0.20724223527276
H           -2.29392913609807       -2.75062296376716       -0.62537285477658
H           -3.50351422577841       -2.80070099213696        2.54585897517147

 Bond Distances (Angstroems)
 ---------------------------
C1-C2=1.4892         C1-H26=1.0901        C1-H27=1.0868        C1-H28=1.0881        C2-C1=1.4892         C2-C3=1.3637         
C2-N6=1.3963         C3-C2=1.3637         C3-C4=1.4349         C3-C22=1.4996        C4-C3=1.4349         C4-C5=1.4092         
C4-C21=1.3854        C5-C4=1.4092         C5-N6=1.3968         C5-C16=1.3811        N6-C2=1.3963         N6-C5=1.3968         
N6-C7=1.3859         C7-N6=1.3859         C7-C8=1.4878         C7-O15=1.2114        C8-C7=1.4878         C8-C9=1.3919         
C8-C14=1.3926        C9-C8=1.3919         C9-C10=1.3812        C9-H29=1.0794        C10-C9=1.3812        C10-C11=1.3874       
C10-H30=1.0785       C11-C10=1.3874       C11-Cl12=1.7258      C11-C13=1.3874       Cl12-C11=1.7258      C13-C11=1.3874       
C13-C14=1.3818       C13-H31=1.0787       C14-C8=1.3926        C14-C13=1.3818       C14-H32=1.0802       O15-C7=1.2114        
C16-C5=1.3811        C16-C17=1.3840       C16-H33=1.0775       C17-C16=1.3840       C17-C18=1.3987       C17-H34=1.0779       
C18-C17=1.3987       C18-O19=1.3652       C18-C21=1.3910       O19-C18=1.3652       O19-C20=1.4060       C20-O19=1.4060       
C20-H35=1.0950       C20-H36=1.0891       C20-H37=1.0948       C21-C4=1.3854        C21-C18=1.3910       C21-H38=1.0776       
C22-C3=1.4996        C22-C23=1.5115       C22-H39=1.0895       C22-H40=1.0885       C23-C22=1.5115       C23-O24=1.3344       
C23-O25=1.2028       O24-C23=1.3344       O24-H41=0.9705       O25-C23=1.2028       H26-C1=1.0901        H27-C1=1.0868        
H28-C1=1.0881        H29-C9=1.0794        H30-C10=1.0785       H31-C13=1.0787       H32-C14=1.0802       H33-C16=1.0775       
H34-C17=1.0779       H35-C20=1.0950       H36-C20=1.0891       H37-C20=1.0948       H38-C21=1.0776       H39-C22=1.0895       
[...]
     DOI: 10.1002/anie.202004239
   
   for ALPB and GBSA implicit solvation:
   * S. Ehlert, M. Stahn, S. Spicher, S. Grimme, J. Chem. Theory Comput.,
     2021, 17, 4250-4261. DOI: 10.1021/acs.jctc.1c00471
   
   for ddCOSMO and CPCM-X implicit solvation:
   * M. Stahn, S. Ehlert, S. Grimme, J. Phys. Chem. A,
     2023, XX, XXXX-XXXX. DOI: 10.1021/acs.jpca.3c04382
   
   for DFT-D4:
   * E. Caldeweyher, C. Bannwarth and S. Grimme, J. Chem. Phys., 2017,
     147, 034112. DOI: 10.1063/1.4993215
   * E. Caldeweyher, S. Ehlert, A. Hansen, H. Neugebauer, S. Spicher,
     C. Bannwarth and S. Grimme, J. Chem. Phys., 2019, 150, 154122.
     DOI: 10.1063/1.5090222
   * E. Caldeweyher, J.-M. Mewes, S. Ehlert and S. Grimme, Phys. Chem. Chem. Phys.
     2020, 22, 8499-8512. DOI: 10.1039/D0CP00502A
   
   for sTDA-xTB:
   * S. Grimme and C. Bannwarth, J. Chem. Phys., 2016, 145, 054103.
     DOI: 10.1063/1.4959605
   
   in the mass-spec context:
   * V. Asgeirsson, C. Bauer and S. Grimme, Chem. Sci., 2017, 8, 4879.
     DOI: 10.1039/c7sc00601b
   * J. Koopman and S. Grimme, ACS Omega 2019, 4, 12, 15120-15133.
     DOI: 10.1021/acsomega.9b02011
   
   for metadynamics refer to:
   * S. Grimme, J. Chem. Theory Comput., 2019, 155, 2847-2862
     DOI: 10.1021/acs.jctc.9b00143
   
   for SPH calculations refer to:
   * S. Spicher and S. Grimme, J. Chem. Theory Comput., 2021, 17, 1701-1714
     DOI: 10.1021/acs.jctc.0c01306
   
   for ONIOM refer to:
   * C. Plett, A. Katbashev, S. Ehlert, S. Grimme, M. Bursch,
     Phys. Chem. Chem. Phys., 2023, 25, 17860-17868. DOI: 10.1039/D3CP02178E
   
   for DIPRO refer to:
   * J. Kohn, N. Gildemeister, S. Grimme, D. Fazzi, A. Hansen,
     J. Chem. Phys., 2023, just accepted.
   
   for PTB refer to:
   * S. Grimme, M. Mueller, A. Hansen, J. Chem. Phys., 2023, 158, 124111.
     DOI: 10.1063/5.0137838
   
   with help from (in alphabetical order)
   P. Atkinson, C. Bannwarth, F. Bohle, G. Brandenburg, E. Caldeweyher
   M. Checinski, S. Dohm, S. Ehlert, S. Ehrlich, I. Gerasimov, C. Hölzer
   A. Katbashev, J. Kohn, J. Koopman, C. Lavigne, S. Lehtola, F. März, M. Müller,
   F. Musil, H. Neugebauer, J. Pisarek, C. Plett, P. Pracht, F. Pultar,
   J. Seibert, P. Shushkov, S. Spicher, M. Stahn, M. Steiner, T. Strunk,
   J. Stückrath, T. Rose, and J. Unsleber
   
 * started run on 2025/05/15 at 16:25:11.882     
   ID    Z sym.   atoms
    1    6 C      1-5, 7-11, 13, 14, 16-18, 20-23
    2    7 N      6
    3   17 Cl     12
    4    8 O      15, 19, 24, 25
    5    1 H      26-41

           -------------------------------------------------
          |                Calculation Setup                |
           -------------------------------------------------

          program call               : xtb /rds/general/user/hgt20/home/callum/QDESCP/Indomethacin_rdkit_conf_9/Indomethacin_rdkit_conf_9.xyz --acc 1 --gfn 2 --chrg 0 --uhf 2 --etemp 300 --input /rds/general/user/hgt20/home/callum/QDESCP/Indomethacin_rdkit_conf_9/Indomethacin_rdkit_conf_9_xtb.inp -P 1
          hostname                   : login-c
          coordinate file            : /rds/general/user/hgt20/home/callum/QDESCP/Indomethacin_rdkit_conf_9/Indomethacin_rdkit_conf_9.xyz
          omp threads                :                     1


           -------------------------------------------------
          |                 G F N 2 - x T B                 |
           -------------------------------------------------

        Reference                      10.1021/acs.jctc.8b01176
      * Hamiltonian:
        H0-scaling (s, p, d)           1.850000    2.230000    2.230000
        zeta-weighting                 0.500000
      * Dispersion:
        s8                             2.700000
        a1                             0.520000
        a2                             5.000000
        s9                             5.000000
      * Repulsion:
        kExp                           1.500000    1.000000
        rExp                           1.000000
      * Coulomb:
        alpha                          2.000000
        third order                    shell-resolved
        anisotropic                    true
        a3                             3.000000
        a5                             4.000000
        cn-shift                       1.200000
        cn-exp                         4.000000
        max-rad                        5.000000


          ...................................................
          :                      SETUP                      :
          :.................................................:
          :  # basis functions                 122          :
          :  # atomic orbitals                 121          :
          :  # shells                           67          :
          :  # electrons                       128          :
          :  max. iterations                   250          :
          :  Hamiltonian                  GFN2-xTB          :
          :  restarted?                      false          :
          :  GBSA solvation                  false          :
          :  PC potential                    false          :
          :  electronic temp.          300.0000000     K    :
          :  accuracy                    1.0000000          :
          :  -> integral cutoff          0.2500000E+02      :
          :  -> integral neglect         0.1000000E-07      :
          :  -> SCF convergence          0.1000000E-05 Eh   :
          :  -> wf. convergence          0.1000000E-03 e    :
          :  Broyden damping             0.4000000          :
          :  net charge                          0          :
          :  unpaired electrons                  2          :
          ...................................................

 iter      E             dE          RMSdq      gap      omega  full diag
   1    -73.3521078 -0.733521E+02  0.449E+00    0.65       0.0  T
   2    -73.2732263  0.788815E-01  0.282E+00    0.51       1.0  T
   3    -73.2412219  0.320044E-01  0.267E+00    1.14       1.0  T
   4    -73.4044631 -0.163241E+00  0.151E+00    0.90       1.0  T
   5    -73.4286294 -0.241663E-01  0.117E+00    0.37       1.0  T
   6    -73.4930316 -0.644022E-01  0.540E-01    0.54       1.0  T
   7    -73.4925062  0.525422E-03  0.444E-01    0.49       1.0  T
   8    -73.4756060  0.169002E-01  0.530E-01    0.47       1.0  T
   9    -73.4914562 -0.158503E-01  0.391E-01    0.52       1.0  T
  10    -73.4961587 -0.470247E-02  0.252E-01    0.51       1.0  T
  11    -73.5002209 -0.406219E-02  0.113E-01    0.48       1.0  T
  12    -73.4988576  0.136327E-02  0.163E-01    0.49       1.0  T
  13    -73.5008205 -0.196291E-02  0.486E-02    0.48       1.0  T
  14    -73.5008853 -0.648085E-04  0.232E-02    0.48       1.0  T
  15    -73.5009078 -0.225129E-04  0.867E-03    0.48       1.8  T
  16    -73.5009041  0.376580E-05  0.932E-03    0.48       1.7  T
  17    -73.5009107 -0.659831E-05  0.157E-03    0.48      10.0  T
  18    -73.5009104  0.297018E-06  0.233E-03    0.48       6.7  T
  19    -73.5009100  0.398774E-06  0.314E-03    0.48       5.0  T
  20    -73.5009106 -0.683497E-06  0.123E-03    0.48      12.7  T
  21    -73.5009107 -0.102342E-06  0.242E-04    0.48      64.5  T
  22    -73.5009107  0.430891E-07  0.774E-04    0.48      20.2  T

   *** convergence criteria satisfied after 22 iterations ***

         #    Occupation            Energy/Eh            Energy/eV
      -------------------------------------------------------------
         1        2.0000           -1.0508288             -28.5945
       ...           ...                  ...                  ...
        59        2.0000           -0.4132822             -11.2460
        60        2.0000           -0.4117859             -11.2053
        61        1.9993           -0.3947845             -10.7426
        62        1.9776           -0.3914392             -10.6516
        63        1.8891           -0.3898308             -10.6078
        64        1.1340           -0.3860804             -10.5058
        65        0.9999           -0.2694891              -7.3332 (HOMO)
        66        0.0001           -0.2518404              -6.8529 (LUMO)
        67        0.0000           -0.2479409              -6.7468
        68                         -0.2312484              -6.2926
        69                         -0.2234239              -6.0797
        70                         -0.1968682              -5.3571
       ...                                ...                  ...
       121                          0.7045510              19.1718
      -------------------------------------------------------------
                  HL-Gap            0.0176487 Eh            0.4802 eV
             Fermi-level           -0.3242629 Eh           -8.8236 eV

 transition dipole moment (au) for excitation:          64          65
     X       Y       Z   
  -1.6780  -0.4050  -0.3000  total (au/Debye):    1.752   4.453
 dE (eV)             :    3.173
 oscillator strength :  0.33743E+00

 SCC (total)                   0 d,  0 h,  0 min,  0.124 sec
 SCC setup                      ...        0 min,  0.000 sec (  0.323%)
 Dispersion                     ...        0 min,  0.000 sec (  0.386%)
 classical contributions        ...        0 min,  0.000 sec (  0.122%)
 integral evaluation            ...        0 min,  0.009 sec (  6.985%)
 iterations                     ...        0 min,  0.053 sec ( 43.197%)
 molecular gradient             ...        0 min,  0.053 sec ( 42.442%)
 printout                       ...        0 min,  0.008 sec (  6.539%)

         :::::::::::::::::::::::::::::::::::::::::::::::::::::
         ::                     SUMMARY                     ::
         :::::::::::::::::::::::::::::::::::::::::::::::::::::
         :: total energy             -72.521045327392 Eh    ::
         :: gradient norm              0.111069271210 Eh/a0 ::
         :: HOMO-LUMO gap              0.480245268615 eV    ::
         ::.................................................::
         :: SCC energy               -73.500784371019 Eh    ::
         :: -> isotropic ES            0.098058248753 Eh    ::
         :: -> anisotropic ES          0.000922032843 Eh    ::
         :: -> anisotropic XC          0.017662172670 Eh    ::
         :: -> dispersion             -0.049320665783 Eh    ::
         :: repulsion energy           0.979739043627 Eh    ::
         :: add. restraining           0.000000000000 Eh    ::
         :: total charge              -0.000000000033 e     ::
         :::::::::::::::::::::::::::::::::::::::::::::::::::::

           -------------------------------------------------
          |                Property Printout                |
           -------------------------------------------------

    * Orbital Energies and Occupations

         #    Occupation            Energy/Eh            Energy/eV
      -------------------------------------------------------------
         1        2.0000           -1.0508288             -28.5945
       ...           ...                  ...                  ...
        53        2.0000           -0.4515252             -12.2866
        54        2.0000           -0.4472525             -12.1704
        55        2.0000           -0.4412996             -12.0084
        56        2.0000           -0.4384957             -11.9321
        57        2.0000           -0.4362828             -11.8719
        58        2.0000           -0.4321827             -11.7603
        59        2.0000           -0.4132822             -11.2460
        60        2.0000           -0.4117859             -11.2053
        61        1.9993           -0.3947845             -10.7426
        62        1.9776           -0.3914392             -10.6516
        63        1.8891           -0.3898308             -10.6078
        64        1.1340           -0.3860804             -10.5058
        65        0.9999           -0.2694891              -7.3332 (HOMO)
        66        0.0001           -0.2518404              -6.8529 (LUMO)
        67        0.0000           -0.2479409              -6.7468
        68                         -0.2312484              -6.2926
        69                         -0.2234239              -6.0797
        70                         -0.1968682              -5.3571
        71                         -0.1682600              -4.5786
        72                         -0.1294010              -3.5212
        73                         -0.0997632              -2.7147
        74                         -0.0924771              -2.5164
        75                         -0.0054003              -0.1470
        76                          0.0117409               0.3195
       ...                                ...                  ...
       121                          0.7045510              19.1718
      -------------------------------------------------------------
                  HL-Gap            0.0176487 Eh            0.4802 eV
             Fermi-level           -0.3242629 Eh           -8.8236 eV

     #   Z          covCN         q      C6AA      α(0)
     1   6 C        3.754    -0.120    22.862     6.818
     2   6 C        3.036     0.032    27.251     8.562
     3   6 C        3.064    -0.002    28.018     8.680
     4   6 C        3.084    -0.023    28.472     8.747
     5   6 C        3.067     0.044    26.953     8.513
     6   7 N        2.812    -0.026    21.743     6.925
     7   6 C        2.763     0.234    23.094     7.870
     8   6 C        2.973    -0.021    28.518     8.760
     9   6 C        2.926    -0.027    28.678     8.782
    10   6 C        2.954    -0.040    28.994     8.832
    11   6 C        2.889     0.089    26.023     8.363
    12  17 Cl       0.968    -0.177   104.698    15.654
    13   6 C        2.954    -0.041    29.008     8.834
    14   6 C        2.924    -0.036    28.894     8.815
    15   8 O        0.859    -0.418    22.034     6.294
    16   6 C        2.910    -0.028    28.696     8.784
    17   6 C        2.923    -0.075    29.879     8.964
    18   6 C        2.864     0.146    24.822     8.167
    19   8 O        1.706    -0.250    18.140     5.750
    20   6 C        3.643     0.032    20.382     6.490
    21   6 C        2.914    -0.044    29.085     8.844
    22   6 C        3.806    -0.089    22.195     6.707
    23   6 C        2.699     0.365    20.812     7.467
    24   8 O        1.660    -0.369    20.254     6.075
    25   8 O        0.856    -0.408    21.836     6.265
    26   1 H        0.925     0.063     2.166     2.302
    27   1 H        0.925     0.059     2.207     2.323
    28   1 H        0.925     0.082     1.955     2.186
    29   1 H        0.926     0.055     2.263     2.352
    30   1 H        0.926     0.054     2.269     2.356
    31   1 H        0.926     0.050     2.319     2.381
    32   1 H        0.926     0.034     2.533     2.489
    33   1 H        0.926     0.080     1.980     2.200
    34   1 H        0.926     0.047     2.361     2.403
    35   1 H        0.924     0.049     2.327     2.386
    36   1 H        0.925     0.069     2.097     2.265
    37   1 H        0.924     0.050     2.323     2.383
    38   1 H        0.926     0.064     2.152     2.294
    39   1 H        0.925     0.080     1.975     2.197
    40   1 H        0.925     0.082     1.960     2.190
    41   1 H        0.804     0.332     0.632     1.248

 Mol. C6AA /au·bohr⁶  :      23486.873437
 Mol. C8AA /au·bohr⁸  :     596843.101269
 Mol. α(0) /au        :        239.917915


Wiberg/Mayer (AO) data.
largest (>0.10) Wiberg bond orders for each atom

 ---------------------------------------------------------------------------
     #   Z sym  total        # sym  WBO       # sym  WBO       # sym  WBO
 ---------------------------------------------------------------------------
     1   6 C    3.985 --     2 C    1.045    27 H    0.971    28 H    0.963
                            26 H    0.951
     2   6 C    3.851 --     3 C    1.305     6 N    1.178     1 C    1.045
     3   6 C    3.844 --     2 C    1.305     4 C    1.217    22 C    1.008
     4   6 C    3.959 --    21 C    1.317     5 C    1.219     3 C    1.217
     5   6 C    3.927 --    16 C    1.407     4 C    1.219     6 N    1.085
     6   7 N    3.609 --     2 C    1.178     5 C    1.085     7 C    1.058
     7   6 C    3.901 --    15 O    1.596     6 N    1.058     8 C    1.024
     8   6 C    3.924 --     9 C    1.329    14 C    1.329     7 C    1.024
     9   6 C    3.960 --    10 C    1.478     8 C    1.329    29 H    0.967
    10   6 C    3.976 --     9 C    1.478    11 C    1.365    30 H    0.967
    11   6 C    3.852 --    10 C    1.365    13 C    1.362    12 Cl   0.968
    12  17 Cl   1.081 --    11 C    0.968
    13   6 C    3.971 --    14 C    1.476    11 C    1.362    31 H    0.967
    14   6 C    3.973 --    13 C    1.476     8 C    1.329    32 H    0.968
    15   8 O    1.967 --     7 C    1.596
    16   6 C    3.937 --     5 C    1.407    17 C    1.364    33 H    0.958
    17   6 C    3.909 --    16 C    1.364    18 C    1.355    34 H    0.965
    18   6 C    3.906 --    17 C    1.355    21 C    1.321    19 O    1.077
    19   8 O    2.230 --    18 C    1.077    20 C    0.985
    20   6 C    3.938 --    19 O    0.985    36 H    0.978    37 H    0.973
                            35 H    0.973
    21   6 C    3.871 --    18 C    1.321     4 C    1.317    38 H    0.963
    22   6 C    3.983 --     3 C    1.008    40 H    0.961    39 H    0.957
                            23 C    0.937
    23   6 C    3.883 --    25 O    1.740    24 O    1.136    22 C    0.937
    24   8 O    2.199 --    23 C    1.136    41 H    0.864    25 O    0.166
    25   8 O    2.029 --    23 C    1.740    24 O    0.166
    26   1 H    0.987 --     1 C    0.951
    27   1 H    0.995 --     1 C    0.971
    28   1 H    0.989 --     1 C    0.963
    29   1 H    0.997 --     9 C    0.967
    30   1 H    0.996 --    10 C    0.967
    31   1 H    0.996 --    13 C    0.967
    32   1 H    0.999 --    14 C    0.968
    33   1 H    0.992 --    16 C    0.958
    34   1 H    0.997 --    17 C    0.965
    35   1 H    0.993 --    20 C    0.973
    36   1 H    0.995 --    20 C    0.978
    37   1 H    0.993 --    20 C    0.973
    38   1 H    0.995 --    21 C    0.963
    39   1 H    0.989 --    22 C    0.957
    40   1 H    0.990 --    22 C    0.961
    41   1 H    0.889 --    24 O    0.864
 ---------------------------------------------------------------------------

Topologies differ in total number of bonds
Writing topology from bond orders to xtbtopo.mol

molecular dipole:
                 x           y           z       tot (Debye)
 q only:       -2.671      -0.199      -0.657
   full:       -2.560      -0.248      -0.687       6.766
molecular quadrupole (traceless):
                xx          xy          yy          xz          yz          zz
 q only:       -5.944      -7.769       3.087       4.914      -1.937       2.857
  q+dip:       -1.223      -8.538       0.019       2.837      -0.622       1.204
   full:       -2.876      -8.861       0.168       1.266      -2.119       2.708


           -------------------------------------------------
          | TOTAL ENERGY              -72.521045327392 Eh   |
          | GRADIENT NORM               0.111069271210 Eh/α |
          | HOMO-LUMO GAP               0.480245268615 eV   |
           -------------------------------------------------

------------------------------------------------------------------------
 * finished run on 2025/05/15 at 16:25:12.019     
------------------------------------------------------------------------
 total:
 * wall-time:     0 d,  0 h,  0 min,  0.138 sec
 *  cpu-time:     0 d,  0 h,  0 min,  0.108 sec
 * ratio c/w:     0.785 speedup
 SCF:
 * wall-time:     0 d,  0 h,  0 min,  0.124 sec
 *  cpu-time:     0 d,  0 h,  0 min,  0.095 sec
 * ratio c/w:     0.770 speedup


