----- Optimization -----
      -----------------------------------------------------------      
     |                   =====================                   |     
     |                           x T B                           |     
     |                   =====================                   |     
     |                         S. Grimme                         |     
     |          Mulliken Center for Theoretical Chemistry        |     
     |                    University of Bonn                     |     
      -----------------------------------------------------------      

   * xtb version 6.7.1 (edcfbbe) compiled by 'conda@3ef47c1a292c' on 2024-11-25

   xtb is free software: you can redistribute it and/or modify it under
   the terms of the GNU Lesser General Public License as published by
   the Free Software Foundation, either version 3 of the License, or
   (at your option) any later version.
   
   xtb is distributed in the hope that it will be useful,
   but WITHOUT ANY WARRANTY; without even the implied warranty of
   MERCHANTABILITY or FITNESS FOR A PARTICULAR PURPOSE.  See the
   GNU Lesser General Public License for more details.
   
   Cite this work as:
   * C. Bannwarth, E. Caldeweyher, S. Ehlert, A. Hansen, P. Pracht,
     J. Seibert, S. Spicher, S. Grimme, WIREs Comput. Mol. Sci., 2020, 11,
     e01493. DOI: 10.1002/wcms.1493
   
   for GFN2-xTB:
   * C. Bannwarth, S. Ehlert and S. Grimme., J. Chem. Theory Comput., 2019,
     15, 1652-1671. DOI: 10.1021/acs.jctc.8b01176
   for GFN1-xTB:
   * S. Grimme, C. Bannwarth, P. Shushkov, J. Chem. Theory Comput., 2017,
     13, 1989-2009. DOI: 10.1021/acs.jctc.7b00118
   for GFN0-xTB:
   * P. Pracht, E. Caldeweyher, S. Ehlert, S. Grimme, ChemRxiv, 2019, preprint.
     DOI: 10.26434/chemrxiv.8326202.v1
   for GFN-FF:
   * S. Spicher and S. Grimme, Angew. Chem. Int. Ed., 2020, 59, 15665-15673.
     DOI: 10.1002/anie.202004239
   
   for ALPB and GBSA implicit solvation:
   * S. Ehlert, M. Stahn, S. Spicher, S. Grimme, J. Chem. Theory Comput.,
     2021, 17, 4250-4261. DOI: 10.1021/acs.jctc.1c00471
   
   for ddCOSMO and CPCM-X implicit solvation:
   * M. Stahn, S. Ehlert, S. Grimme, J. Phys. Chem. A,
     2023, XX, XXXX-XXXX. DOI: 10.1021/acs.jpca.3c04382
   
   for DFT-D4:
   * E. Caldeweyher, C. Bannwarth and S. Grimme, J. Chem. Phys., 2017,
     147, 034112. DOI: 10.1063/1.4993215
   * E. Caldeweyher, S. Ehlert, A. Hansen, H. Neugebauer, S. Spicher,
     C. Bannwarth and S. Grimme, J. Chem. Phys., 2019, 150, 154122.
     DOI: 10.1063/1.5090222
   * E. Caldeweyher, J.-M. Mewes, S. Ehlert and S. Grimme, Phys. Chem. Chem. Phys.
     2020, 22, 8499-8512. DOI: 10.1039/D0CP00502A
   
   for sTDA-xTB:
   * S. Grimme and C. Bannwarth, J. Chem. Phys., 2016, 145, 054103.
     DOI: 10.1063/1.4959605
   
   in the mass-spec context:
   * V. Asgeirsson, C. Bauer and S. Grimme, Chem. Sci., 2017, 8, 4879.
     DOI: 10.1039/c7sc00601b
   * J. Koopman and S. Grimme, ACS Omega 2019, 4, 12, 15120-15133.
     DOI: 10.1021/acsomega.9b02011
   
   for metadynamics refer to:
   * S. Grimme, J. Chem. Theory Comput., 2019, 155, 2847-2862
     DOI: 10.1021/acs.jctc.9b00143
   
   for SPH calculations refer to:
   * S. Spicher and S. Grimme, J. Chem. Theory Comput., 2021, 17, 1701-1714
     DOI: 10.1021/acs.jctc.0c01306
   
   for ONIOM refer to:
   * C. Plett, A. Katbashev, S. Ehlert, S. Grimme, M. Bursch,
     Phys. Chem. Chem. Phys., 2023, 25, 17860-17868. DOI: 10.1039/D3CP02178E
   
   for DIPRO refer to:
   * J. Kohn, N. Gildemeister, S. Grimme, D. Fazzi, A. Hansen,
     J. Chem. Phys., 2023, just accepted.
   
   for PTB refer to:
   * S. Grimme, M. Mueller, A. Hansen, J. Chem. Phys., 2023, 158, 124111.
     DOI: 10.1063/5.0137838
   
   with help from (in alphabetical order)
   P. Atkinson, C. Bannwarth, F. Bohle, G. Brandenburg, E. Caldeweyher
   M. Checinski, S. Dohm, S. Ehlert, S. Ehrlich, I. Gerasimov, C. Hölzer
   A. Katbashev, J. Kohn, J. Koopman, C. Lavigne, S. Lehtola, F. März, M. Müller,
   F. Musil, H. Neugebauer, J. Pisarek, C. Plett, P. Pracht, F. Pultar,
   J. Seibert, P. Shushkov, S. Spicher, M. Stahn, M. Steiner, T. Strunk,
   J. Stückrath, T. Rose, and J. Unsleber
   
 * started run on 2025/05/15 at 16:11:38.030     
   ID    Z sym.   atoms
    1    6 C      1-7, 9, 11, 13-16, 18, 19, 21, 22, 24, 26-31
    2    7 N      8, 10, 12, 17, 20, 23, 25
    3    8 O      32, 33
    4    1 H      34-62

           -------------------------------------------------
          |                Calculation Setup                |
           -------------------------------------------------

          program call               : xtb /rds/general/user/hgt20/home/callum/QDESCP/Palbociclib_rdkit_conf_6/Palbociclib_rdkit_conf_6.xyz --opt normal --acc 1 --gfn 2 --chrg 0 --uhf 0 -P 1
          hostname                   : login-c
          coordinate file            : /rds/general/user/hgt20/home/callum/QDESCP/Palbociclib_rdkit_conf_6/Palbociclib_rdkit_conf_6.xyz
          omp threads                :                     1


           -------------------------------------------------
          |                 G F N 2 - x T B                 |
           -------------------------------------------------

        Reference                      10.1021/acs.jctc.8b01176
      * Hamiltonian:
        H0-scaling (s, p, d)           1.850000    2.230000    2.230000
        zeta-weighting                 0.500000
      * Dispersion:
        s8                             2.700000
        a1                             0.520000
        a2                             5.000000
        s9                             5.000000
      * Repulsion:
        kExp                           1.500000    1.000000
        rExp                           1.000000
      * Coulomb:
        alpha                          2.000000
        third order                    shell-resolved
        anisotropic                    true
        a3                             3.000000
        a5                             4.000000
        cn-shift                       1.200000
        cn-exp                         4.000000
        max-rad                        5.000000


          ...................................................
          :                      SETUP                      :
          :.................................................:
          :  # basis functions                 161          :
          :  # atomic orbitals                 161          :
          :  # shells                           95          :
          :  # electrons                       172          :
          :  max. iterations                   250          :
          :  Hamiltonian                  GFN2-xTB          :
          :  restarted?                      false          :
          :  GBSA solvation                  false          :
          :  PC potential                    false          :
          :  electronic temp.          300.0000000     K    :
          :  accuracy                    1.0000000          :
          :  -> integral cutoff          0.2500000E+02      :
          :  -> integral neglect         0.1000000E-07      :
          :  -> SCF convergence          0.1000000E-05 Eh   :
          :  -> wf. convergence          0.1000000E-03 e    :
          :  Broyden damping             0.4000000          :
          :  net charge                          0          :
          :  unpaired electrons                  0          :
          ...................................................

 iter      E             dE          RMSdq      gap      omega  full diag
   1    -95.9219333 -0.959219E+02  0.393E+00    1.82       0.0  T
   2    -96.0710579 -0.149125E+00  0.234E+00    1.91       1.0  T
   3    -96.0779625 -0.690458E-02  0.125E+00    1.80       1.0  T
   4    -96.0874534 -0.949097E-02  0.343E-01    1.60       1.0  T
   5    -96.0922889 -0.483547E-02  0.140E-01    1.68       1.0  T
   6    -96.0930641 -0.775201E-03  0.529E-02    1.67       1.0  T
   7    -96.0931337 -0.695920E-04  0.207E-02    1.67       1.0  T
   8    -96.0931372 -0.353017E-05  0.859E-03    1.68       1.5  T
   9    -96.0931381 -0.870580E-06  0.325E-03    1.68       3.9  T
  10    -96.0931383 -0.207109E-06  0.122E-03    1.68      10.4  T
  11    -96.0931383 -0.286540E-07  0.626E-04    1.68      20.3  T
  12    -96.0931383 -0.679057E-08  0.260E-04    1.68      48.9  T

   *** convergence criteria satisfied after 12 iterations ***

         #    Occupation            Energy/Eh            Energy/eV
      -------------------------------------------------------------
         1        2.0000           -0.7014312             -19.0869
       ...           ...                  ...                  ...
        80        2.0000           -0.4026494             -10.9566
        81        2.0000           -0.3968586             -10.7991
        82        2.0000           -0.3901814             -10.6174
        83        2.0000           -0.3800088             -10.3406
        84        2.0000           -0.3772070             -10.2643
        85        2.0000           -0.3750447             -10.2055
        86        2.0000           -0.3559623              -9.6862 (HOMO)
        87                         -0.2942138              -8.0060 (LUMO)
        88                         -0.2717340              -7.3943
        89                         -0.2535815              -6.9003
        90                         -0.2445137              -6.6536
        91                         -0.2356176              -6.4115
       ...                                ...                  ...
       161                          0.6839224              18.6105
      -------------------------------------------------------------
                  HL-Gap            0.0617485 Eh            1.6803 eV
             Fermi-level           -0.3250880 Eh           -8.8461 eV

 SCC (total)                   0 d,  0 h,  0 min,  0.195 sec
 SCC setup                      ...        0 min,  0.001 sec (  0.335%)
 Dispersion                     ...        0 min,  0.001 sec (  0.503%)
 classical contributions        ...        0 min,  0.000 sec (  0.161%)
 integral evaluation            ...        0 min,  0.053 sec ( 27.258%)
 iterations                     ...        0 min,  0.092 sec ( 47.139%)
 molecular gradient             ...        0 min,  0.047 sec ( 24.403%)
 printout                       ...        0 min,  0.000 sec (  0.197%)

         :::::::::::::::::::::::::::::::::::::::::::::::::::::
         ::                     SUMMARY                     ::
         :::::::::::::::::::::::::::::::::::::::::::::::::::::
         :: total energy             -94.855455243811 Eh    ::
         :: gradient norm              0.126731324487 Eh/a0 ::
         :: HOMO-LUMO gap              1.680260855991 eV    ::
         ::.................................................::
         :: SCC energy               -96.093469861851 Eh    ::
         :: -> isotropic ES            0.110807906672 Eh    ::
         :: -> anisotropic ES          0.010391916215 Eh    ::
         :: -> anisotropic XC          0.055966378060 Eh    ::
         :: -> dispersion             -0.068962547482 Eh    ::
         :: repulsion energy           1.238014618040 Eh    ::
         :: add. restraining           0.000000000000 Eh    ::
         :: total charge               0.000000000000 e     ::
         :::::::::::::::::::::::::::::::::::::::::::::::::::::

      ----------------------------------------------------------- 
     |                   =====================                   |
     |                        A N C O P T                        |
     |                   =====================                   |
     |               Approximate Normal Coordinate               |
     |                Rational Function Optimizer                |
      ----------------------------------------------------------- 
      ----------------------------------------------------------- 
     |                   =====================                   |
     |                        A N C O P T                        |
     |                   =====================                   |
     |               Approximate Normal Coordinate               |
     |                Rational Function Optimizer                |
      ----------------------------------------------------------- 

          ...................................................
          :                      SETUP                      :
          :.................................................:
          :   optimization level            normal          :
          :   max. optcycles                   200          :
          :   ANC micro-cycles                  20          :
          :   degrees of freedom               180          :
          :.................................................:
          :   RF solver                   davidson          :
          :   write xtbopt.log                true          :
          :   linear?                        false          :
          :   energy convergence         0.5000000E-05 Eh   :
          :   grad. convergence          0.1000000E-02 Eh/α :
          :   maxmium RF displ.          1.0000000          :
          :   Hlow (freq-cutoff)         0.1000000E-01      :
          :   Hmax (freq-cutoff)         5.0000000          :
          :   S6 in model hess.         20.0000000          :
          ...................................................

generating ANC from exact Hessian ...
Using Lindh-Hessian (1995)
 Shifting diagonal of input Hessian by    9.8484107141566853E-003
 Lowest  eigenvalues of input Hessian
    0.000000    0.000000    0.000000    0.000000    0.000000    0.000000
    0.010000    0.010178    0.010272    0.010427    0.010743    0.011028
    0.011138    0.011818    0.011986    0.012305    0.012886    0.013745
 Highest eigenvalues
    2.047600    2.063067    2.120299    2.225108    2.258289    2.301063


........................................................................
.............................. CYCLE    1 ..............................
........................................................................

 iter      E             dE          RMSdq      gap      omega  full diag
   1    -96.0931383 -0.960931E+02  0.849E-05    1.68       0.0  T
   2    -96.0931383 -0.125354E-09  0.562E-05    1.68     226.1  T
   3    -96.0931383 -0.102673E-09  0.322E-05    1.68     394.3  T
     SCC iter.                  ...        0 min,  0.059 sec
     gradient                   ...        0 min,  0.047 sec
 * total energy  :   -94.8554552 Eh     change       -0.1084430E-08 Eh
   gradient norm :     0.1267324 Eh/α   predicted     0.0000000E+00 (-100.00%)
   displ. norm   :     0.3838997 α      lambda       -0.2069358E-01
   maximum displ.:     0.1379073 α      in ANC's #13, #20, #38, ...

........................................................................
.............................. CYCLE    2 ..............................
........................................................................

 iter      E             dE          RMSdq      gap      omega  full diag
   1    -96.1369239 -0.961369E+02  0.183E-01    1.67       0.0  T
   2    -96.1371746 -0.250761E-03  0.112E-01    1.74       1.0  T
   3    -96.1371755 -0.849172E-06  0.606E-02    1.73       1.0  T
   4    -96.1372370 -0.615753E-04  0.167E-02    1.74       1.0  T
   5    -96.1372511 -0.140390E-04  0.533E-03    1.74       2.4  T
   6    -96.1372521 -0.982543E-06  0.253E-03    1.74       5.0  T
   7    -96.1372521 -0.759818E-07  0.990E-04    1.74      12.8  T
   8    -96.1372522 -0.227327E-07  0.292E-04    1.74      43.6  T
     SCC iter.                  ...        0 min,  0.034 sec
     gradient                   ...        0 min,  0.104 sec
 * total energy  :   -94.8702863 Eh     change       -0.1483107E-01 Eh
   gradient norm :     0.0565720 Eh/α   predicted    -0.1190157E-01 ( -19.75%)
   displ. norm   :     0.4438726 α      lambda       -0.8751761E-02
   maximum displ.:     0.2455895 α      in ANC's #13, #20, #9, ...

........................................................................
.............................. CYCLE    3 ..............................
........................................................................

 iter      E             dE          RMSdq      gap      omega  full diag
   1    -96.1670089 -0.961670E+02  0.132E-01    1.70       0.0  T
   2    -96.1671780 -0.169025E-03  0.803E-02    1.76       1.0  T
   3    -96.1672070 -0.290030E-04  0.475E-02    1.76       1.0  T
   4    -96.1672328 -0.258572E-04  0.145E-02    1.76       1.0  T
   5    -96.1672438 -0.109565E-04  0.401E-03    1.76       3.2  T
   6    -96.1672445 -0.707636E-06  0.170E-03    1.76       7.5  T
   7    -96.1672445 -0.302353E-07  0.659E-04    1.76      19.3  T
   8    -96.1672445 -0.784863E-08  0.205E-04    1.76      62.1  T
     SCC iter.                  ...        0 min,  0.034 sec
     gradient                   ...        0 min,  0.097 sec
 * total energy  :   -94.8758331 Eh     change       -0.5546830E-02 Eh
   gradient norm :     0.0183300 Eh/α   predicted    -0.5238031E-02 (  -5.57%)
   displ. norm   :     0.3957657 α      lambda       -0.2515977E-02
   maximum displ.:     0.2694482 α      in ANC's #13, #9, #20, ...

........................................................................
.............................. CYCLE    4 ..............................
........................................................................

 iter      E             dE          RMSdq      gap      omega  full diag
   1    -96.1770162 -0.961770E+02  0.699E-02    1.72       0.0  T
   2    -96.1770455 -0.292320E-04  0.419E-02    1.75       1.0  T
   3    -96.1770407  0.471367E-05  0.250E-02    1.75       1.0  T
   4    -96.1770546 -0.138494E-04  0.661E-03    1.75       1.9  T
   5    -96.1770570 -0.244792E-05  0.183E-03    1.75       7.0  T
   6    -96.1770572 -0.115999E-06  0.825E-04    1.75      15.4  T
   7    -96.1770572 -0.536608E-08  0.255E-04    1.75      49.8  T
     SCC iter.                  ...        0 min,  0.075 sec
     gradient                   ...        0 min,  0.092 sec
 * total energy  :   -94.8777286 Eh     change       -0.1895462E-02 Eh
   gradient norm :     0.0148333 Eh/α   predicted    -0.1455072E-02 ( -23.23%)
   displ. norm   :     0.4689635 α      lambda       -0.1833216E-02
   maximum displ.:     0.3212382 α      in ANC's #13, #9, #20, ...

........................................................................
.............................. CYCLE    5 ..............................
........................................................................

 iter      E             dE          RMSdq      gap      omega  full diag
   1    -96.1826890 -0.961827E+02  0.754E-02    1.72       0.0  T
   2    -96.1827093 -0.203340E-04  0.449E-02    1.73       1.0  T
   3    -96.1827001  0.927515E-05  0.192E-02    1.72       1.0  T
   4    -96.1827125 -0.124503E-04  0.516E-03    1.72       2.5  T
   5    -96.1827139 -0.139213E-05  0.185E-03    1.73       6.9  T
   6    -96.1827140 -0.817330E-07  0.878E-04    1.72      14.5  T
   7    -96.1827140 -0.734124E-08  0.263E-04    1.72      48.3  T
     SCC iter.                  ...        0 min,  0.075 sec
     gradient                   ...        0 min,  0.047 sec
 * total energy  :   -94.8789994 Eh     change       -0.1270772E-02 Eh
   gradient norm :     0.0102765 Eh/α   predicted    -0.1118200E-02 ( -12.01%)
   displ. norm   :     0.3488698 α      lambda       -0.7314539E-03
   maximum displ.:     0.2201946 α      in ANC's #13, #9, #8, ...

........................................................................
.............................. CYCLE    6 ..............................
........................................................................

 iter      E             dE          RMSdq      gap      omega  full diag
   1    -96.1854569 -0.961855E+02  0.564E-02    1.71       0.0  T
   2    -96.1854626 -0.564311E-05  0.331E-02    1.71       1.0  T
   3    -96.1854595  0.307397E-05  0.962E-03    1.71       1.3  T
   4    -96.1854636 -0.409111E-05  0.231E-03    1.71       5.5  T
   5    -96.1854638 -0.181307E-06  0.108E-03    1.71      11.8  T
   6    -96.1854638 -0.151408E-07  0.560E-04    1.71      22.7  T
   7    -96.1854638 -0.786770E-08  0.177E-04    1.71      71.7  T
     SCC iter.                  ...        0 min,  0.029 sec
     gradient                   ...        0 min,  0.098 sec
 * total energy  :   -94.8795160 Eh     change       -0.5166390E-03 Eh
   gradient norm :     0.0079825 Eh/α   predicted    -0.4102406E-03 ( -20.59%)
   displ. norm   :     0.3047467 α      lambda       -0.4538126E-03
   maximum displ.:     0.1727437 α      in ANC's #9, #13, #8, ...

........................................................................
.............................. CYCLE    7 ..............................
........................................................................

 iter      E             dE          RMSdq      gap      omega  full diag
   1    -96.1870493 -0.961870E+02  0.534E-02    1.70       0.0  T
   2    -96.1870518 -0.247753E-05  0.313E-02    1.70       1.0  T
   3    -96.1870496  0.221234E-05  0.693E-03    1.70       1.8  T
   4    -96.1870525 -0.289615E-05  0.156E-03    1.70       8.2  T
   5    -96.1870525 -0.545872E-07  0.800E-04    1.70      15.9  T
   6    -96.1870525 -0.554277E-08  0.373E-04    1.70      34.1  T
     SCC iter.                  ...        0 min,  0.070 sec
     gradient                   ...        0 min,  0.095 sec
 * total energy  :   -94.8798606 Eh     change       -0.3445667E-03 Eh
   gradient norm :     0.0069980 Eh/α   predicted    -0.2479798E-03 ( -28.03%)
   displ. norm   :     0.3413653 α      lambda       -0.4589558E-03
   maximum displ.:     0.1872362 α      in ANC's #9, #8, #13, ...

........................................................................
.............................. CYCLE    8 ..............................
........................................................................

 iter      E             dE          RMSdq      gap      omega  full diag
   1    -96.1877687 -0.961878E+02  0.692E-02    1.70       0.0  T
   2    -96.1877717 -0.305812E-05  0.407E-02    1.70       1.0  T
   3    -96.1877669  0.486244E-05  0.962E-03    1.70       1.3  T
   4    -96.1877728 -0.591231E-05  0.206E-03    1.70       6.2  T
   5    -96.1877729 -0.113369E-06  0.105E-03    1.70      12.1  T
   6    -96.1877729 -0.122602E-07  0.558E-04    1.70      22.8  T
   7    -96.1877729 -0.833252E-08  0.194E-04    1.70      65.4  T
     SCC iter.                  ...        0 min,  0.068 sec
     gradient                   ...        0 min,  0.047 sec
 * total energy  :   -94.8802138 Eh     change       -0.3532111E-03 Eh
   gradient norm :     0.0073957 Eh/α   predicted    -0.2562196E-03 ( -27.46%)
   displ. norm   :     0.3977458 α      lambda       -0.4642636E-03
   maximum displ.:     0.1952347 α      in ANC's #9, #8, #5, ...

........................................................................
.............................. CYCLE    9 ..............................
........................................................................

 iter      E             dE          RMSdq      gap      omega  full diag
   1    -96.1874281 -0.961874E+02  0.849E-02    1.69       0.0  T
   2    -96.1874324 -0.436187E-05  0.498E-02    1.69       1.0  T
   3    -96.1874221  0.102906E-04  0.145E-02    1.69       1.0  T
   4    -96.1874343 -0.121970E-04  0.268E-03    1.69       4.7  T
   5    -96.1874345 -0.203143E-06  0.135E-03    1.69       9.4  T
   6    -96.1874346 -0.259971E-07  0.673E-04    1.69      18.9  T
   7    -96.1874346 -0.100822E-07  0.241E-04    1.69      52.8  T
     SCC iter.                  ...        0 min,  0.030 sec
     gradient                   ...        0 min,  0.096 sec
 * total energy  :   -94.8805620 Eh     change       -0.3482101E-03 Eh
   gradient norm :     0.0084102 Eh/α   predicted    -0.2688567E-03 ( -22.79%)
   displ. norm   :     0.3697720 α      lambda       -0.3975016E-03
   maximum displ.:     0.1436792 α      in ANC's #9, #5, #4, ...

........................................................................
.............................. CYCLE   10 ..............................
........................................................................

 iter      E             dE          RMSdq      gap      omega  full diag
   1    -96.1874966 -0.961875E+02  0.810E-02    1.67       0.0  T
   2    -96.1875009 -0.429669E-05  0.472E-02    1.68       1.0  T
   3    -96.1874877  0.132415E-04  0.172E-02    1.69       1.0  T
   4    -96.1875032 -0.155269E-04  0.268E-03    1.69       4.7  T
   5    -96.1875034 -0.227700E-06  0.132E-03    1.69       9.6  T
   6    -96.1875034 -0.311158E-07  0.611E-04    1.69      20.8  T
   7    -96.1875035 -0.699337E-08  0.227E-04    1.69      56.0  T
     SCC iter.                  ...        0 min,  0.075 sec
     gradient                   ...        0 min,  0.047 sec
 * total energy  :   -94.8808556 Eh     change       -0.2936161E-03 Eh
   gradient norm :     0.0075295 Eh/α   predicted    -0.2259277E-03 ( -23.05%)
   displ. norm   :     0.3492894 α      lambda       -0.3048237E-03
   maximum displ.:     0.1309024 α      in ANC's #5, #4, #10, ...

........................................................................
.............................. CYCLE   11 ..............................
........................................................................

 iter      E             dE          RMSdq      gap      omega  full diag
   1    -96.1871560 -0.961872E+02  0.680E-02    1.66       0.0  T
   2    -96.1871598 -0.376266E-05  0.394E-02    1.67       1.0  T
   3    -96.1871496  0.101682E-04  0.160E-02    1.68       1.0  T
   4    -96.1871618 -0.121374E-04  0.256E-03    1.68       5.0  T
   5    -96.1871620 -0.235253E-06  0.121E-03    1.68      10.5  T
   6    -96.1871620 -0.213046E-07  0.576E-04    1.68      22.1  T
   7    -96.1871620 -0.559780E-08  0.169E-04    1.68      75.4  T
     SCC iter.                  ...        0 min,  0.030 sec
     gradient                   ...        0 min,  0.089 sec
 * total energy  :   -94.8810672 Eh     change       -0.2116069E-03 Eh
   gradient norm :     0.0068198 Eh/α   predicted    -0.1710070E-03 ( -19.19%)
   displ. norm   :     0.2729596 α      lambda       -0.2415937E-03
   maximum displ.:     0.1252943 α      in ANC's #5, #4, #2, ...

........................................................................
.............................. CYCLE   12 ..............................
........................................................................

 iter      E             dE          RMSdq      gap      omega  full diag
   1    -96.1890616 -0.961891E+02  0.541E-02    1.65       0.0  T
   2    -96.1890657 -0.404604E-05  0.312E-02    1.66       1.0  T
   3    -96.1890583  0.735301E-05  0.141E-02    1.66       1.0  T
   4    -96.1890672 -0.888629E-05  0.252E-03    1.66       5.0  T
   5    -96.1890675 -0.257043E-06  0.108E-03    1.66      11.8  T
   6    -96.1890675 -0.236663E-07  0.506E-04    1.66      25.1  T
   7    -96.1890675 -0.407169E-08  0.169E-04    1.66      75.3  T
     SCC iter.                  ...        0 min,  0.081 sec
     gradient                   ...        0 min,  0.080 sec
 * total energy  :   -94.8811844 Eh     change       -0.1171793E-03 Eh
   gradient norm :     0.0055371 Eh/α   predicted    -0.1297999E-03 (  10.77%)
   displ. norm   :     0.2532153 α      lambda       -0.1520405E-03
   maximum displ.:     0.1115236 α      in ANC's #5, #2, #4, ...

........................................................................
.............................. CYCLE   13 ..............................
........................................................................

 iter      E             dE          RMSdq      gap      omega  full diag
   1    -96.1864108 -0.961864E+02  0.410E-02    1.64       0.0  T
   2    -96.1864131 -0.224080E-05  0.240E-02    1.64       1.0  T
   3    -96.1864105  0.255465E-05  0.859E-03    1.64       1.5  T
   4    -96.1864138 -0.323539E-05  0.182E-03    1.65       7.0  T
   5    -96.1864139 -0.106542E-06  0.883E-04    1.65      14.4  T
   6    -96.1864139 -0.761126E-08  0.462E-04    1.65      27.5  T
     SCC iter.                  ...        0 min,  0.025 sec
     gradient                   ...        0 min,  0.080 sec
 * total energy  :   -94.8812606 Eh     change       -0.7623562E-04 Eh
   gradient norm :     0.0056071 Eh/α   predicted    -0.8090421E-04 (   6.12%)
   displ. norm   :     0.0832553 α      lambda       -0.9211460E-04
   maximum displ.:     0.0448115 α      in ANC's #9, #5, #14, ...

........................................................................
.............................. CYCLE   14 ..............................
........................................................................

 iter      E             dE          RMSdq      gap      omega  full diag
   1    -96.1891283 -0.961891E+02  0.230E-02    1.65       0.0  T
   2    -96.1891301 -0.181336E-05  0.137E-02    1.65       1.0  T
   3    -96.1891289  0.127270E-05  0.600E-03    1.64       2.1  T
   4    -96.1891303 -0.143681E-05  0.177E-03    1.64       7.2  T
   5    -96.1891305 -0.171158E-06  0.378E-04    1.64      33.6  T
   6    -96.1891305 -0.287314E-08  0.192E-04    1.64      66.1  T
     SCC iter.                  ...        0 min,  0.076 sec
     gradient                   ...        0 min,  0.085 sec
 * total energy  :   -94.8813187 Eh     change       -0.5803773E-04 Eh
   gradient norm :     0.0060313 Eh/α   predicted    -0.4637837E-04 ( -20.09%)
   displ. norm   :     0.1618580 α      lambda       -0.1094435E-03
   maximum displ.:     0.0861174 α      in ANC's #5, #2, #4, ...

........................................................................
.............................. CYCLE   15 ..............................
........................................................................

 iter      E             dE          RMSdq      gap      omega  full diag
   1    -96.1892647 -0.961893E+02  0.239E-02    1.64       0.0  T
   2    -96.1892657 -0.997456E-06  0.139E-02    1.64       1.0  T
   3    -96.1892648  0.902830E-06  0.460E-03    1.64       2.8  T
   4    -96.1892659 -0.109991E-05  0.116E-03    1.64      11.0  T
   5    -96.1892659 -0.532067E-07  0.482E-04    1.64      26.4  T
   6    -96.1892659 -0.558860E-08  0.230E-04    1.64      55.3  T
     SCC iter.                  ...        0 min,  0.025 sec
     gradient                   ...        0 min,  0.089 sec
 * total energy  :   -94.8813899 Eh     change       -0.7122957E-04 Eh
   gradient norm :     0.0035281 Eh/α   predicted    -0.5615674E-04 ( -21.16%)
   displ. norm   :     0.1984007 α      lambda       -0.7023876E-04
   maximum displ.:     0.0988952 α      in ANC's #5, #2, #4, ...

........................................................................
.............................. CYCLE   16 ..............................
........................................................................

 iter      E             dE          RMSdq      gap      omega  full diag
   1    -96.1888455 -0.961888E+02  0.269E-02    1.64       0.0  T
   2    -96.1888460 -0.514938E-06  0.157E-02    1.64       1.0  T
   3    -96.1888448  0.122019E-05  0.502E-03    1.64       2.5  T
   4    -96.1888463 -0.145228E-05  0.919E-04    1.64      13.8  T
   5    -96.1888463 -0.239724E-07  0.482E-04    1.64      26.4  T
   6    -96.1888463 -0.339179E-08  0.203E-04    1.64      62.7  T
     SCC iter.                  ...        0 min,  0.025 sec
     gradient                   ...        0 min,  0.093 sec
 * total energy  :   -94.8814442 Eh     change       -0.5423862E-04 Eh
   gradient norm :     0.0039271 Eh/α   predicted    -0.3650340E-04 ( -32.70%)
   displ. norm   :     0.2539843 α      lambda       -0.8400438E-04
   maximum displ.:     0.1232642 α      in ANC's #2, #5, #4, ...

........................................................................
.............................. CYCLE   17 ..............................
........................................................................

 iter      E             dE          RMSdq      gap      omega  full diag
   1    -96.1882739 -0.961883E+02  0.373E-02    1.64       0.0  T
   2    -96.1882749 -0.104184E-05  0.216E-02    1.64       1.0  T
   3    -96.1882731  0.178655E-05  0.643E-03    1.64       2.0  T
   4    -96.1882753 -0.213752E-05  0.132E-03    1.64       9.6  T
   5    -96.1882753 -0.658590E-07  0.629E-04    1.64      20.2  T
   6    -96.1882753 -0.589787E-08  0.287E-04    1.64      44.2  T
     SCC iter.                  ...        0 min,  0.076 sec
     gradient                   ...        0 min,  0.099 sec
 * total energy  :   -94.8815039 Eh     change       -0.5979471E-04 Eh
   gradient norm :     0.0031648 Eh/α   predicted    -0.4471404E-04 ( -25.22%)
   displ. norm   :     0.1885864 α      lambda       -0.5381624E-04
   maximum displ.:     0.0952343 α      in ANC's #2, #5, #4, ...

........................................................................
.............................. CYCLE   18 ..............................
........................................................................

 iter      E             dE          RMSdq      gap      omega  full diag
   1    -96.1884327 -0.961884E+02  0.324E-02    1.65       0.0  T
   2    -96.1884335 -0.781111E-06  0.188E-02    1.65       1.0  T
   3    -96.1884320  0.148995E-05  0.579E-03    1.65       2.2  T
   4    -96.1884337 -0.172747E-05  0.120E-03    1.65      10.6  T
   5    -96.1884338 -0.598204E-07  0.507E-04    1.65      25.1  T
   6    -96.1884338 -0.358303E-08  0.252E-04    1.65      50.5  T
     SCC iter.                  ...        0 min,  0.026 sec
     gradient                   ...        0 min,  0.091 sec
 * total energy  :   -94.8815443 Eh     change       -0.4033856E-04 Eh
   gradient norm :     0.0026510 Eh/α   predicted    -0.2786708E-04 ( -30.92%)
   displ. norm   :     0.2000120 α      lambda       -0.5568553E-04
   maximum displ.:     0.1017259 α      in ANC's #2, #4, #6, ...

........................................................................
.............................. CYCLE   19 ..............................
........................................................................

 iter      E             dE          RMSdq      gap      omega  full diag
   1    -96.1885263 -0.961885E+02  0.386E-02    1.65       0.0  T
   2    -96.1885273 -0.992075E-06  0.225E-02    1.65       1.0  T
   3    -96.1885247  0.259474E-05  0.745E-03    1.65       1.7  T
   4    -96.1885277 -0.296954E-05  0.132E-03    1.65       9.6  T
   5    -96.1885278 -0.703309E-07  0.560E-04    1.65      22.7  T
   6    -96.1885278 -0.353202E-08  0.290E-04    1.65      43.8  T
     SCC iter.                  ...        0 min,  0.065 sec
     gradient                   ...        0 min,  0.084 sec
 * total energy  :   -94.8815865 Eh     change       -0.4216862E-04 Eh
   gradient norm :     0.0028398 Eh/α   predicted    -0.2895931E-04 ( -31.32%)
   displ. norm   :     0.2163118 α      lambda       -0.6086181E-04
   maximum displ.:     0.1051119 α      in ANC's #2, #6, #12, ...

........................................................................
.............................. CYCLE   20 ..............................
........................................................................

 iter      E             dE          RMSdq      gap      omega  full diag
   1    -96.1891289 -0.961891E+02  0.466E-02    1.65       0.0  T
   2    -96.1891298 -0.926624E-06  0.273E-02    1.66       1.0  T
   3    -96.1891250  0.480079E-05  0.983E-03    1.65       1.3  T
   4    -96.1891305 -0.546999E-05  0.125E-03    1.66      10.1  T
   5    -96.1891306 -0.440286E-07  0.637E-04    1.66      19.9  T
   6    -96.1891306 -0.391483E-08  0.312E-04    1.66      40.7  T
     SCC iter.                  ...        0 min,  0.026 sec
     gradient                   ...        0 min,  0.075 sec
 * total energy  :   -94.8816300 Eh     change       -0.4351348E-04 Eh
   gradient norm :     0.0034648 Eh/α   predicted    -0.3185737E-04 ( -26.79%)
   displ. norm   :     0.2117238 α      lambda       -0.5258229E-04
   maximum displ.:     0.1014766 α      in ANC's #2, #6, #4, ...
 * RMSD in coord.:     0.5163613 α      energy gain  -0.2617472E-01 Eh

generating ANC from exact Hessian ...
Using Lindh-Hessian (1995)
 Shifting diagonal of input Hessian by    9.8297793373683870E-003
 Lowest  eigenvalues of input Hessian
    0.000000    0.000000    0.000000    0.000000    0.000000    0.000000
    0.010000    0.010182    0.010248    0.010488    0.010848    0.011110
    0.011210    0.011799    0.012047    0.012645    0.013034    0.014029
 Highest eigenvalues
    2.110300    2.169371    2.220789    2.301937    2.350813    2.390236


........................................................................
.............................. CYCLE   21 ..............................
........................................................................

 iter      E             dE          RMSdq      gap      omega  full diag
   1    -96.1886583 -0.961887E+02  0.434E-02    1.65       0.0  T
   2    -96.1886592 -0.961728E-06  0.255E-02    1.65       1.0  T
   3    -96.1886548  0.445189E-05  0.939E-03    1.65       1.4  T
   4    -96.1886599 -0.507654E-05  0.121E-03    1.65      10.5  T
   5    -96.1886599 -0.396046E-07  0.604E-04    1.65      21.0  T
   6    -96.1886599 -0.405454E-08  0.305E-04    1.65      41.6  T
     SCC iter.                  ...        0 min,  0.026 sec
     gradient                   ...        0 min,  0.081 sec
 * total energy  :   -94.8816647 Eh     change       -0.3469509E-04 Eh
   gradient norm :     0.0035791 Eh/α   predicted     0.0000000E+00 (-100.00%)
   displ. norm   :     0.0275105 α      lambda       -0.1746032E-04
   maximum displ.:     0.0114308 α      in ANC's #13, #11, #7, ...

........................................................................
.............................. CYCLE   22 ..............................
........................................................................

 iter      E             dE          RMSdq      gap      omega  full diag
   1    -96.1897365 -0.961897E+02  0.673E-03    1.65       0.0  T
   2    -96.1897366 -0.145822E-06  0.391E-03    1.65       3.3  T
   3    -96.1897366  0.524712E-07  0.135E-03    1.65       9.4  T
   4    -96.1897366 -0.586924E-07  0.505E-04    1.65      25.2  T
   5    -96.1897366 -0.133845E-07  0.140E-04    1.65      91.0  T
     SCC iter.                  ...        0 min,  0.021 sec
     gradient                   ...        0 min,  0.086 sec
 * total energy  :   -94.8816843 Eh     change       -0.1965785E-04 Eh
   gradient norm :     0.0017270 Eh/α   predicted    -0.1267458E-04 ( -35.52%)
   displ. norm   :     0.1005316 α      lambda       -0.2976931E-04
   maximum displ.:     0.0410031 α      in ANC's #13, #6, #11, ...

........................................................................
.............................. CYCLE   23 ..............................
........................................................................

 iter      E             dE          RMSdq      gap      omega  full diag
   1    -96.1911347 -0.961911E+02  0.203E-02    1.65       0.0  T
   2    -96.1911353 -0.652677E-06  0.118E-02    1.65       1.1  T
   3    -96.1911350  0.334324E-06  0.304E-03    1.65       4.2  T
   4    -96.1911354 -0.374543E-06  0.108E-03    1.65      11.8  T
   5    -96.1911354 -0.602777E-07  0.316E-04    1.65      40.2  T
   6    -96.1911354 -0.140055E-08  0.167E-04    1.65      76.0  T
     SCC iter.                  ...        0 min,  0.058 sec
     gradient                   ...        0 min,  0.047 sec
 * total energy  :   -94.8817066 Eh     change       -0.2230438E-04 Eh
   gradient norm :     0.0025506 Eh/α   predicted    -0.1495161E-04 ( -32.97%)
   displ. norm   :     0.0379357 α      lambda       -0.1104552E-04
   maximum displ.:     0.0161452 α      in ANC's #6, #11, #13, ...

........................................................................
.............................. CYCLE   24 ..............................
........................................................................

 iter      E             dE          RMSdq      gap      omega  full diag
   1    -96.1907755 -0.961908E+02  0.699E-03    1.65       0.0  T
   2    -96.1907755 -0.168452E-07  0.410E-03    1.65       3.1  T
   3    -96.1907755 -0.148535E-08  0.330E-04    1.65      38.5  T
   4    -96.1907755 -0.385936E-08  0.145E-04    1.65      87.8  T
     SCC iter.                  ...        0 min,  0.017 sec
     gradient                   ...        0 min,  0.074 sec
 * total energy  :   -94.8817171 Eh     change       -0.1045367E-04 Eh
   gradient norm :     0.0022298 Eh/α   predicted    -0.5692770E-05 ( -45.54%)
   displ. norm   :     0.2189511 α      lambda       -0.5620673E-04
   maximum displ.:     0.0946028 α      in ANC's #6, #7, #11, ...

........................................................................
.............................. CYCLE   25 ..............................
........................................................................

 iter      E             dE          RMSdq      gap      omega  full diag
   1    -96.1890029 -0.961890E+02  0.409E-02    1.64       0.0  T
   2    -96.1890034 -0.563768E-06  0.240E-02    1.65       1.0  T
   3    -96.1890034  0.491099E-07  0.236E-03    1.65       5.4  T
   4    -96.1890036 -0.218079E-06  0.926E-04    1.65      13.7  T
   5    -96.1890036 -0.153291E-07  0.514E-04    1.65      24.7  T
     SCC iter.                  ...        0 min,  0.021 sec
     gradient                   ...        0 min,  0.081 sec
 * total energy  :   -94.8817493 Eh     change       -0.3225621E-04 Eh
   gradient norm :     0.0020929 Eh/α   predicted    -0.2946854E-04 (  -8.64%)
   displ. norm   :     0.0566288 α      lambda       -0.9202073E-05
   maximum displ.:     0.0286982 α      in ANC's #6, #5, #7, ...

........................................................................
.............................. CYCLE   26 ..............................
........................................................................

 iter      E             dE          RMSdq      gap      omega  full diag
   1    -96.1891981 -0.961892E+02  0.105E-02    1.65       0.0  T
   2    -96.1891982 -0.655169E-07  0.618E-03    1.65       2.1  T
   3    -96.1891982  0.134687E-07  0.795E-04    1.65      16.0  T
   4    -96.1891982 -0.273226E-07  0.265E-04    1.65      48.0  T
     SCC iter.                  ...        0 min,  0.017 sec
     gradient                   ...        0 min,  0.087 sec
 * total energy  :   -94.8817571 Eh     change       -0.7729446E-05 Eh
   gradient norm :     0.0016486 Eh/α   predicted    -0.4619673E-05 ( -40.23%)
   displ. norm   :     0.1472496 α      lambda       -0.1821963E-04
   maximum displ.:     0.0782721 α      in ANC's #6, #4, #1, ...

........................................................................
.............................. CYCLE   27 ..............................
........................................................................

 iter      E             dE          RMSdq      gap      omega  full diag
   1    -96.1904790 -0.961905E+02  0.287E-02    1.65       0.0  T
   2    -96.1904795 -0.488797E-06  0.168E-02    1.65       1.0  T
   3    -96.1904788  0.696098E-06  0.375E-03    1.65       3.4  T
   4    -96.1904796 -0.817307E-06  0.981E-04    1.65      12.9  T
   5    -96.1904796 -0.392797E-07  0.427E-04    1.65      29.7  T
     SCC iter.                  ...        0 min,  0.054 sec
     gradient                   ...        0 min,  0.047 sec
 * total energy  :   -94.8817721 Eh     change       -0.1505265E-04 Eh
   gradient norm :     0.0013366 Eh/α   predicted    -0.9200153E-05 ( -38.88%)
   displ. norm   :     0.0943801 α      lambda       -0.6374549E-05
   maximum displ.:     0.0486254 α      in ANC's #6, #4, #1, ...

........................................................................
.............................. CYCLE   28 ..............................
........................................................................

 iter      E             dE          RMSdq      gap      omega  full diag
   1    -96.1901938 -0.961902E+02  0.189E-02    1.65       0.0  T
   2    -96.1901939 -0.107744E-06  0.112E-02    1.65       1.1  T
   3    -96.1901932  0.625062E-06  0.340E-03    1.65       3.7  T
   4    -96.1901940 -0.712431E-06  0.432E-04    1.65      29.4  T
   5    -96.1901940 -0.297597E-08  0.244E-04    1.65      52.1  T
     SCC iter.                  ...        0 min,  0.042 sec
     gradient                   ...        0 min,  0.047 sec
 * total energy  :   -94.8817796 Eh     change       -0.7497010E-05 Eh
   gradient norm :     0.0011591 Eh/α   predicted    -0.3210084E-05 ( -57.18%)
   displ. norm   :     0.1521025 α      lambda       -0.1390656E-04
   maximum displ.:     0.0782695 α      in ANC's #6, #1, #12, ...

........................................................................
.............................. CYCLE   29 ..............................
........................................................................

 iter      E             dE          RMSdq      gap      omega  full diag
   1    -96.1902175 -0.961902E+02  0.325E-02    1.65       0.0  T
   2    -96.1902180 -0.455423E-06  0.191E-02    1.65       1.0  T
   3    -96.1902153  0.263696E-05  0.715E-03    1.65       1.8  T
   4    -96.1902183 -0.298530E-05  0.794E-04    1.65      16.0  T
   5    -96.1902183 -0.151974E-07  0.405E-04    1.65      31.4  T
   6    -96.1902183 -0.105824E-08  0.189E-04    1.65      67.4  T
     SCC iter.                  ...        0 min,  0.040 sec
     gradient                   ...        0 min,  0.047 sec
 * total energy  :   -94.8817941 Eh     change       -0.1450011E-04 Eh
   gradient norm :     0.0012175 Eh/α   predicted    -0.7028504E-05 ( -51.53%)
   displ. norm   :     0.1271844 α      lambda       -0.8490062E-05
   maximum displ.:     0.0622858 α      in ANC's #6, #1, #12, ...

........................................................................
.............................. CYCLE   30 ..............................
........................................................................

 iter      E             dE          RMSdq      gap      omega  full diag
   1    -96.1899709 -0.961900E+02  0.279E-02    1.66       0.0  T
   2    -96.1899711 -0.202741E-06  0.164E-02    1.65       1.0  T
   3    -96.1899694  0.169956E-05  0.569E-03    1.65       2.2  T
   4    -96.1899714 -0.192183E-05  0.582E-04    1.65      21.8  T
   5    -96.1899714 -0.427976E-08  0.327E-04    1.65      38.9  T
   6    -96.1899714 -0.767159E-09  0.145E-04    1.65      87.6  T
     SCC iter.                  ...        0 min,  0.049 sec
     gradient                   ...        0 min,  0.081 sec
 * total energy  :   -94.8818026 Eh     change       -0.8490529E-05 Eh
   gradient norm :     0.0012723 Eh/α   predicted    -0.4277352E-05 ( -49.62%)
   displ. norm   :     0.0767160 α      lambda       -0.5825055E-05
   maximum displ.:     0.0280357 α      in ANC's #6, #8, #1, ...

........................................................................
.............................. CYCLE   31 ..............................
........................................................................

 iter      E             dE          RMSdq      gap      omega  full diag
   1    -96.1905095 -0.961905E+02  0.156E-02    1.66       0.0  T
   2    -96.1905097 -0.189778E-06  0.915E-03    1.66       1.4  T
   3    -96.1905093  0.362680E-06  0.271E-03    1.66       4.7  T
   4    -96.1905097 -0.417737E-06  0.580E-04    1.66      21.9  T
   5    -96.1905097 -0.129317E-07  0.235E-04    1.66      54.1  T
     SCC iter.                  ...        0 min,  0.022 sec
     gradient                   ...        0 min,  0.082 sec
 * total energy  :   -94.8818070 Eh     change       -0.4350534E-05 Eh
   gradient norm :     0.0008395 Eh/α   predicted    -0.2925048E-05 ( -32.77%)
   displ. norm   :     0.0755000 α      lambda       -0.3214308E-05
   maximum displ.:     0.0353601 α      in ANC's #6, #1, #4, ...

   *** GEOMETRY OPTIMIZATION CONVERGED AFTER 31 ITERATIONS ***

------------------------------------------------------------------------
 total energy gain   :        -0.0263517 Eh      -16.5359 kcal/mol
 total RMSD          :         0.5557680 a0        0.2941 Å
 total power (kW/mol):        -2.2318196 (step)  -14.7929 (real)
------------------------------------------------------------------------

 ANCopt (total)                0 d,  0 h,  0 min,  4.677 sec
 optimizer setup                ...        0 min,  0.000 sec (  0.002%)
 model hessian                  ...        0 min,  0.099 sec (  2.119%)
 ANC generation                 ...        0 min,  0.007 sec (  0.143%)
 coordinate transformation      ...        0 min,  0.001 sec (  0.013%)
 single point calculation       ...        0 min,  4.559 sec ( 97.476%)
 optimization log               ...        0 min,  0.006 sec (  0.132%)
 hessian update                 ...        0 min,  0.001 sec (  0.017%)
 rational function              ...        0 min,  0.003 sec (  0.071%)

================
 final structure:
================
62
 xtb: 6.7.1 (edcfbbe)
C           -7.00002860758686       -1.82751061377453       -1.97057306775410
C           -6.16338977962657       -2.29950591114383       -0.81714687686301
C           -4.84687591160523       -1.60510167285568       -0.65532863829019
C           -3.68879837751253       -2.30804502061121       -0.49759362201732
C           -3.62451850007678       -3.80190799735198       -0.51087354983943
C           -2.46758988776912       -1.57969421383365       -0.34869268470939
C           -1.19987712566935       -2.15413076152292       -0.19643937614670
N           -0.09731080881915       -1.45940827871324       -0.05231864709598
C           -0.21940319738052       -0.12363063611878       -0.05192354319424
N            0.86838845803870        0.66000408113567        0.09396394165874
C            2.21052594524515        0.34230870400921        0.23932831711762
N            2.99292303489739        1.41104592240489        0.34258950899633
C            4.29457814178737        1.24876366002217        0.46899715418427
C            4.92882023520350        0.00022690522751        0.50149500520257
C            4.08243973980481       -1.11608808054030        0.40756076330573
C            2.72112985347789       -0.95531468423924        0.27628350402470
N            6.29086536758260       -0.15344379859726        0.68580255147441
C            7.11007086204054        0.98486744375181        1.04520062157197
C            8.35830048307262        0.48555192660556        1.79262406189013
N            9.11964782190623       -0.49393196927731        1.04500381797977
C            8.25974585103356       -1.59435470492970        0.65575308610421
C            7.02288162860834       -1.11669563945167       -0.11516160839325
N           -1.36816312414273        0.53997870146632       -0.18690231722261
C           -2.48601078921765       -0.16221985382976       -0.33390559776058
N           -3.65961909881770        0.51091004141331       -0.47264034890110
C           -3.63192961847367        1.97325493624507       -0.43389480799632
C           -4.38403974733778        2.55478322100078        0.77454053244441
C           -4.91292296722819        3.89073667732866        0.26303743860414
C           -5.35895523125071        3.55092326965158       -1.15584960303552
C           -4.24550931030800        2.64228283481085       -1.68251249521678
C           -4.87903680956377       -0.14166815685311       -0.63710396680621
O           -5.90495916118388        0.50744087854174       -0.73945399226010
O           -6.51257155815905       -3.18987449907444       -0.07742866332678
H           -7.85308646966513       -2.48714228631324       -2.10405919197516
H           -7.34259584926423       -0.81823278651760       -1.74952592606920
H           -6.40373804359065       -1.78626009001674       -2.87942084399096
H           -4.60780307963588       -4.24061201657795       -0.63633156566205
H           -3.21274551221242       -4.15919352603230        0.43187333919197
H           -2.97485213255269       -4.14210703969775       -1.31699700928928
H           -1.06793567801347       -3.22733922409149       -0.18850096168280
H            0.68571127254313        1.65611314426465        0.08756387338998
H            4.85154075780795        2.17270809657111        0.53293780313997
H            4.49041002874314       -2.11422729199175        0.45743947612941
H            2.05580429465669       -1.79802624070406        0.20831493013773
H            7.41774543394529        1.55653839636484        0.15254818210731
H            6.54585775452535        1.64136781993117        1.70746425497277
H            8.04400265885335        0.00989761755219        2.72597992275210
H            9.00680815780333        1.33034791001374        2.03226297634078
H            9.51310721792484       -0.05926175185123        0.21374737392285
H            8.83371138827102       -2.29473350092253        0.04595696924581
H            7.94176321449019       -2.10218737490333        1.57052407354933
H            7.34882281194461       -0.64637652702272       -1.06044546698127
H            6.38540683248878       -1.96309814237631       -0.36279678161115
H           -2.57283638023485        2.22425457843101       -0.36391421466723
H           -3.73455867400325        2.65326617607028        1.64360960293219
H           -5.22233714859380        1.90973973246547        1.03327727021738
H           -5.72503905481331        4.27612181709768        0.87684255981957
H           -4.11027018822162        4.63057265775999        0.24108813417356
H           -5.50060863501300        4.43324239207429       -1.77811495780166
H           -6.29220710252200        2.99114601310234       -1.11496372646659
H           -3.47965917851962        3.22780015246323       -2.19256794481636
H           -4.62922650811243        1.90512858396097       -2.38462904874426

 Bond Distances (Angstroems)
 ---------------------------
C1-C2=1.5010         C1-H34=1.0866        C1-H35=1.0885        C1-H36=1.0878        C2-C1=1.5010         C2-C3=1.4972         
C2-O33=1.2091        C3-C2=1.4972         C3-C4=1.3639         C3-C31=1.4639        C4-C3=1.3639         C4-C5=1.4953         
C4-C6=1.4297         C5-C4=1.4953         C5-H37=1.0840        C5-H38=1.0890        C5-H39=1.0898        C6-C4=1.4297         
C6-C7=1.4001         C6-C24=1.4177        C7-C6=1.4001         C7-N8=1.3111         C7-H40=1.0813        N8-C7=1.3111         
N8-C9=1.3413         C9-N8=1.3413         C9-N10=1.3486        C9-N23=1.3335        N10-C9=1.3486        N10-C11=1.3869       
N10-H41=1.0127       C11-N10=1.3869       C11-N12=1.3285       C11-C16=1.3950       N12-C11=1.3285       N12-C13=1.3178       
C13-N12=1.3178       C13-C14=1.4008       C13-H42=1.0807       C14-C13=1.4008       C14-C15=1.4040       C14-N17=1.3830       
C15-C14=1.4040       C15-C16=1.3770       C15-H43=1.0794       C16-C11=1.3950       C16-C15=1.3770       C16-H44=1.0758       
N17-C14=1.3830       N17-C18=1.4478       N17-C22=1.4509       C18-N17=1.4478       C18-C19=1.5382       C18-H45=1.1038       
C18-H46=1.0899       C19-C18=1.5382       C19-N20=1.4484       C19-H47=1.0937       C19-H48=1.0916       N20-C19=1.4484       
N20-C21=1.4498       N20-H49=1.0172       C21-N20=1.4498       C21-C22=1.5337       C21-H50=1.0917       C21-H51=1.0935       
C22-N17=1.4509       C22-C21=1.5337       C22-H52=1.1050       C22-H53=1.0882       N23-C9=1.3335        N23-C24=1.3283       
C24-C6=1.4177        C24-N23=1.3283       C24-N25=1.3600       N25-C24=1.3600       N25-C26=1.4631       N25-C31=1.3928       
C26-N25=1.4631       C26-C27=1.5376       C26-C30=1.5437       C26-H54=1.0907       C27-C26=1.5376       C27-C28=1.5252       
C27-H55=1.0894       C27-H56=1.0889       C28-C27=1.5252       C28-C29=1.5257       C28-H57=1.0885       C28-H58=1.0918       
C29-C28=1.5257       C29-C30=1.5306       C29-H59=1.0889       C29-H60=1.0890       C30-C26=1.5437       C30-C29=1.5306       
C30-H61=1.0906       C30-H62=1.0879       C31-C3=1.4639        C31-N25=1.3928       C31-O32=1.2183       O32-C31=1.2183       
O33-C2=1.2091        H34-C1=1.0866        H35-C1=1.0885        H36-C1=1.0878        H37-C5=1.0840        H38-C5=1.0890        
H39-C5=1.0898        H40-C7=1.0813        H41-N10=1.0127       H42-C13=1.0807       H43-C15=1.0794       H44-C16=1.0758       
H45-C18=1.1038       H46-C18=1.0899       H47-C19=1.0937       H48-C19=1.0916       H49-N20=1.0172       H50-C21=1.0917       
H51-C21=1.0935       H52-C22=1.1050       H53-C22=1.0882       H54-C26=1.0907       H55-C27=1.0894       H56-C27=1.0889       
H57-C28=1.0885       H58-C28=1.0918       H59-C29=1.0889       H60-C29=1.0890       H61-C30=1.0906       H62-C30=1.0879       
 C  H  Rav=1.0891 sigma=0.0060  Rmin=1.0758  Rmax=1.1050    27
 C  C  Rav=1.4674 sigma=0.0627  Rmin=1.3639  Rmax=1.5437    19
 N  H  Rav=1.0150 sigma=0.0022  Rmin=1.0127  Rmax=1.0172     2
 N  C  Rav=1.3807 sigma=0.0532  Rmin=1.3111  Rmax=1.4631    16
 O  C  Rav=1.2137 sigma=0.0046  Rmin=1.2091  Rmax=1.2183     2

 selected bond angles (degree)
 --------------------
H34-C1-C2=109.94               H35-C1-C2=108.11               H35-C1-H34=109.92              H36-C1-C2=110.39               
H36-C1-H34=110.53              H36-C1-H35=107.88              C3-C2-C1=115.30                O33-C2-C1=122.73               
O33-C2-C3=121.96               C4-C3-C2=121.34                C31-C3-C2=116.47               C31-C3-C4=122.17               
C5-C4-C3=123.39                C6-C4-C3=118.34                C6-C4-C5=118.24                H37-C5-C4=111.49               
H38-C5-C4=109.65               H38-C5-H37=108.08              H39-C5-C4=110.12               H39-C5-H37=109.20              
H39-C5-H38=108.21              C7-C6-C4=125.15                C24-C6-C4=119.96               C24-C6-C7=114.89               
N8-C7-C6=123.78                H40-C7-C6=121.23               H40-C7-N8=114.99               C9-N8-C7=116.82                
N10-C9-N8=120.35               N23-C9-N8=125.03               N23-C9-N10=114.62              C11-N10-C9=131.21              
H41-N10-C9=115.17              H41-N10-C11=113.61             

 selected dihedral angles (degree)
 ---------------------------------
C3-C2-C1-H34=171.01           C3-C2-C1-H35=291.01           C3-C2-C1-H36= 48.80           O33-C2-C1-H34=352.00          
O33-C2-C1-H35=112.00          O33-C2-C1-H36=229.79          C4-C3-C2-C1=229.46            C4-C3-C2-O33= 48.47           
C31-C3-C2-C1= 51.17           C31-C3-C2-O33=230.19          C5-C4-C3-C2=  1.78            C5-C4-C3-C31=179.97           
C6-C4-C3-C2=179.99            C6-C4-C3-C31=358.18           H37-C5-C4-C3=358.64           H37-C5-C4-C6=180.43           
H38-C5-C4-C3=238.98           H38-C5-C4-C6= 60.77           H39-C5-C4-C3=120.02           H39-C5-C4-C6=301.80           
C7-C6-C4-C3=180.90            C7-C6-C4-C5=359.20            C24-C6-C4-C3=  1.57           C24-C6-C4-C5=179.88           
N8-C7-C6-C4=180.50            N8-C7-C6-C24=359.86           H40-C7-C6-C4=  0.38           H40-C7-C6-C24=179.73          
C9-N8-C7-C6=  0.12            C9-N8-C7-H40=180.24           N10-C9-N8-C7=179.87           N23-C9-N8-C7=359.95           
C11-N10-C9-N8=  1.06          C11-N10-C9-N23=180.99         H41-N10-C9-N8=180.30          H41-N10-C9-N23=  0.23         
           -------------------------------------------------
          |                Final Singlepoint                |
           -------------------------------------------------

          ...................................................
          :                      SETUP                      :
          :.................................................:
          :  # basis functions                 161          :
          :  # atomic orbitals                 161          :
          :  # shells                           95          :
          :  # electrons                       172          :
          :  max. iterations                   250          :
          :  Hamiltonian                  GFN2-xTB          :
          :  restarted?                      false          :
          :  GBSA solvation                  false          :
          :  PC potential                    false          :
          :  electronic temp.          300.0000000     K    :
          :  accuracy                    1.0000000          :
          :  -> integral cutoff          0.2500000E+02      :
          :  -> integral neglect         0.1000000E-07      :
          :  -> SCF convergence          0.1000000E-05 Eh   :
          :  -> wf. convergence          0.1000000E-03 e    :
          :  Broyden damping             0.4000000          :
          :  net charge                          0          :
          :  unpaired electrons                  0          :
          ...................................................

 iter      E             dE          RMSdq      gap      omega  full diag
   1    -96.1905097 -0.961905E+02  0.127E-04    1.66       0.0  T
   2    -96.1905097 -0.151886E-09  0.831E-05    1.66     152.9  T
   3    -96.1905097 -0.876099E-10  0.558E-05    1.66     227.7  T

   *** convergence criteria satisfied after 3 iterations ***

         #    Occupation            Energy/Eh            Energy/eV
      -------------------------------------------------------------
         1        2.0000           -0.7034741             -19.1425
       ...           ...                  ...                  ...
        80        2.0000           -0.3995806             -10.8731
        81        2.0000           -0.3926467             -10.6845
        82        2.0000           -0.3855462             -10.4912
        83        2.0000           -0.3784892             -10.2992
        84        2.0000           -0.3744233             -10.1886
        85        2.0000           -0.3743247             -10.1859
        86        2.0000           -0.3512363              -9.5576 (HOMO)
        87                         -0.2903799              -7.9016 (LUMO)
        88                         -0.2611102              -7.1052
        89                         -0.2449952              -6.6667
        90                         -0.2372864              -6.4569
        91                         -0.2277658              -6.1978
       ...                                ...                  ...
       161                          0.6944286              18.8964
      -------------------------------------------------------------
                  HL-Gap            0.0608564 Eh            1.6560 eV
             Fermi-level           -0.3208081 Eh           -8.7296 eV

 SCC (total)                   0 d,  0 h,  0 min,  0.116 sec
 SCC setup                      ...        0 min,  0.001 sec (  0.529%)
 Dispersion                     ...        0 min,  0.001 sec (  0.641%)
 classical contributions        ...        0 min,  0.000 sec (  0.265%)
 integral evaluation            ...        0 min,  0.013 sec ( 11.042%)
 iterations                     ...        0 min,  0.013 sec ( 11.651%)
 molecular gradient             ...        0 min,  0.087 sec ( 75.314%)
 printout                       ...        0 min,  0.001 sec (  0.547%)

         :::::::::::::::::::::::::::::::::::::::::::::::::::::
         ::                     SUMMARY                     ::
         :::::::::::::::::::::::::::::::::::::::::::::::::::::
         :: total energy             -94.881806955571 Eh    ::
         :: gradient norm              0.000839577452 Eh/a0 ::
         :: HOMO-LUMO gap              1.655986386732 eV    ::
         ::.................................................::
         :: SCC energy               -96.190849505137 Eh    ::
         :: -> isotropic ES            0.109125798330 Eh    ::
         :: -> anisotropic ES          0.005932423607 Eh    ::
         :: -> anisotropic XC          0.053248501716 Eh    ::
         :: -> dispersion             -0.070310255688 Eh    ::
         :: repulsion energy           1.309042549565 Eh    ::
         :: add. restraining           0.000000000000 Eh    ::
         :: total charge               0.000000000000 e     ::
         :::::::::::::::::::::::::::::::::::::::::::::::::::::

           -------------------------------------------------
          |                Property Printout                |
           -------------------------------------------------

    * Orbital Energies and Occupations

         #    Occupation            Energy/Eh            Energy/eV
      -------------------------------------------------------------
         1        2.0000           -0.7034741             -19.1425
       ...           ...                  ...                  ...
        74        2.0000           -0.4343329             -11.8188
        75        2.0000           -0.4314585             -11.7406
        76        2.0000           -0.4220925             -11.4857
        77        2.0000           -0.4202031             -11.4343
        78        2.0000           -0.4158726             -11.3165
        79        2.0000           -0.4073904             -11.0857
        80        2.0000           -0.3995806             -10.8731
        81        2.0000           -0.3926467             -10.6845
        82        2.0000           -0.3855462             -10.4912
        83        2.0000           -0.3784892             -10.2992
        84        2.0000           -0.3744233             -10.1886
        85        2.0000           -0.3743247             -10.1859
        86        2.0000           -0.3512363              -9.5576 (HOMO)
        87                         -0.2903799              -7.9016 (LUMO)
        88                         -0.2611102              -7.1052
        89                         -0.2449952              -6.6667
        90                         -0.2372864              -6.4569
        91                         -0.2277658              -6.1978
        92                         -0.2047432              -5.5713
        93                         -0.1586448              -4.3169
        94                         -0.1027359              -2.7956
        95                         -0.0898393              -2.4447
        96                         -0.0195214              -0.5312
        97                         -0.0104609              -0.2847
       ...                                ...                  ...
       161                          0.6944286              18.8964
      -------------------------------------------------------------
                  HL-Gap            0.0608564 Eh            1.6560 eV
             Fermi-level           -0.3208081 Eh           -8.7296 eV

     #   Z          covCN         q      C6AA      α(0)
     1   6 C        3.754    -0.140    23.263     6.877
     2   6 C        2.817     0.252    22.781     7.820
     3   6 C        2.964    -0.070    29.743     8.946
     4   6 C        2.957     0.033    27.256     8.563
     5   6 C        3.758    -0.115    22.748     6.800
     6   6 C        2.979    -0.051    29.261     8.873
     7   6 C        2.925     0.077    26.291     8.409
     8   7 N        1.838    -0.279    28.095     7.855
     9   6 C        2.882     0.241    22.979     7.859
    10   7 N        2.726    -0.133    23.891     7.259
    11   6 C        2.891     0.142    24.911     8.183
    12   7 N        1.852    -0.257    27.534     7.777
    13   6 C        2.906     0.031    27.307     8.568
    14   6 C        2.905     0.046    26.959     8.514
    15   6 C        2.935    -0.038    28.941     8.823
    16   6 C        2.910    -0.061    29.504     8.907
    17   7 N        2.738    -0.121    23.621     7.218
    18   6 C        3.754    -0.000    20.637     6.478
    19   6 C        3.757     0.005    20.548     6.463
    20   7 N        2.678    -0.253    26.577     7.657
    21   6 C        3.757     0.005    20.552     6.464
    22   6 C        3.755     0.003    20.591     6.470
    23   7 N        1.861    -0.323    29.220     8.012
    24   6 C        2.920     0.164    24.461     8.111
    25   7 N        2.749    -0.072    22.630     7.065
    26   6 C        3.820     0.036    19.957     6.358
    27   6 C        3.828    -0.061    21.654     6.621
    28   6 C        3.829    -0.056    21.562     6.607
    29   6 C        3.829    -0.061    21.642     6.619
    30   6 C        3.820    -0.057    21.580     6.611
    31   6 C        2.773     0.267    22.493     7.768
    32   8 O        0.859    -0.432    22.331     6.336
    33   8 O        0.857    -0.366    21.012     6.146
    34   1 H        0.925     0.065     2.147     2.291
    35   1 H        0.925     0.105     1.743     2.065
    36   1 H        0.925     0.056     2.246     2.344
    37   1 H        0.925     0.072     2.068     2.249
    38   1 H        0.925     0.063     2.159     2.298
    39   1 H        0.925     0.053     2.286     2.364
    40   1 H        0.925     0.051     2.309     2.376
    41   1 H        0.860     0.210     1.056     1.610
    42   1 H        0.926     0.034     2.524     2.484
    43   1 H        0.926     0.036     2.500     2.473
    44   1 H        0.926     0.070     2.083     2.257
    45   1 H        0.923     0.018     2.771     2.603
    46   1 H        0.925     0.044     2.403     2.424
    47   1 H        0.924     0.048     2.344     2.394
    48   1 H        0.924     0.040     2.454     2.450
    49   1 H        0.860     0.137     1.495     1.915
    50   1 H        0.924     0.039     2.462     2.454
    51   1 H        0.924     0.048     2.340     2.392
    52   1 H        0.922     0.018     2.770     2.603
    53   1 H        0.925     0.044     2.402     2.423
    54   1 H        0.924     0.069     2.094     2.263
    55   1 H        0.925     0.030     2.584     2.514
    56   1 H        0.925     0.059     2.212     2.326
    57   1 H        0.925     0.037     2.490     2.468
    58   1 H        0.924     0.032     2.561     2.503
    59   1 H        0.925     0.031     2.573     2.508
    60   1 H        0.925     0.061     2.188     2.313
    61   1 H        0.924     0.032     2.561     2.503
    62   1 H        0.925     0.045     2.388     2.417

 Mol. C6AA /au·bohr⁶  :      42312.022279
 Mol. C8AA /au·bohr⁸  :     982106.752427
 Mol. α(0) /au        :        315.318224


Wiberg/Mayer (AO) data.
largest (>0.10) Wiberg bond orders for each atom

 ---------------------------------------------------------------------------
     #   Z sym  total        # sym  WBO       # sym  WBO       # sym  WBO
 ---------------------------------------------------------------------------
     1   6 C    3.990 --     2 C    1.012    34 H    0.982    36 H    0.966
                            35 H    0.936
     2   6 C    3.919 --    33 O    1.831     1 C    1.012     3 C    0.997
     3   6 C    3.962 --     4 C    1.585    31 C    1.074     2 C    0.997
     4   6 C    3.978 --     3 C    1.585     6 C    1.173     5 C    1.034
     5   6 C    3.992 --     4 C    1.034    37 H    0.977    39 H    0.966
                            38 H    0.962
     6   6 C    3.974 --     7 C    1.332    24 C    1.220     4 C    1.173
     7   6 C    3.956 --     8 N    1.492     6 C    1.332    40 H    0.958
     8   7 N    3.036 --     7 C    1.492     9 C    1.267
     9   6 C    3.956 --    23 N    1.314     8 N    1.267    10 N    1.223
    10   7 N    3.503 --     9 C    1.223    11 C    1.087    41 H    0.921
    11   6 C    3.954 --    12 N    1.364    16 C    1.325    10 N    1.087
    12   7 N    3.048 --    13 C    1.449    11 C    1.364
    13   6 C    3.979 --    12 N    1.449    14 C    1.332    42 H    0.959
                            16 C    0.100
    14   6 C    3.962 --    13 C    1.332    15 C    1.326    17 N    1.132
    15   6 C    3.990 --    16 C    1.494    14 C    1.326    43 H    0.963
    16   6 C    3.983 --    15 C    1.494    11 C    1.325    44 H    0.957
                            13 C    0.100
    17   7 N    3.336 --    14 C    1.132    18 C    1.000    22 C    0.990
    18   6 C    3.982 --    17 N    1.000    19 C    0.985    46 H    0.970
                            45 H    0.964
    19   6 C    3.986 --    20 N    1.021    18 C    0.985    48 H    0.974
                            47 H    0.972
    20   7 N    3.077 --    19 C    1.021    21 C    1.019    49 H    0.956
    21   6 C    3.987 --    20 N    1.019    22 C    0.989    50 H    0.974
                            51 H    0.972
    22   6 C    3.980 --    17 N    0.990    21 C    0.989    53 H    0.968
                            52 H    0.964
    23   7 N    3.027 --    24 C    1.361     9 C    1.314
    24   6 C    3.965 --    23 N    1.361     6 C    1.220    25 N    1.198
    25   7 N    3.596 --    24 C    1.198    31 C    1.107    26 C    0.953
                            32 O    0.137
    26   6 C    3.948 --    27 C    0.983    30 C    0.981    54 H    0.957
                            25 N    0.953
    27   6 C    3.993 --    28 C    1.006    26 C    0.983    55 H    0.980
                            56 H    0.974
    28   6 C    3.997 --    29 C    1.007    27 C    1.006    58 H    0.980
                            57 H    0.979
    29   6 C    3.995 --    28 C    1.007    30 C    1.006    59 H    0.980
                            60 H    0.977
    30   6 C    3.994 --    29 C    1.006    61 H    0.981    26 C    0.981
                            62 H    0.978
    31   6 C    3.952 --    32 O    1.651    25 N    1.107     3 C    1.074
    32   8 O    1.977 --    31 C    1.651    25 N    0.137
    33   8 O    2.057 --     2 C    1.831
    34   1 H    0.995 --     1 C    0.982
    35   1 H    0.989 --     1 C    0.936
    36   1 H    0.997 --     1 C    0.966
    37   1 H    0.994 --     5 C    0.977
    38   1 H    0.994 --     5 C    0.962
    39   1 H    0.995 --     5 C    0.966
    40   1 H    0.997 --     7 C    0.958
    41   1 H    0.955 --    10 N    0.921
    42   1 H    0.998 --    13 C    0.959
    43   1 H    0.998 --    15 C    0.963
    44   1 H    0.994 --    16 C    0.957
    45   1 H    0.997 --    18 C    0.964
    46   1 H    0.998 --    18 C    0.970
    47   1 H    0.998 --    19 C    0.972
    48   1 H    0.998 --    19 C    0.974
    49   1 H    0.981 --    20 N    0.956
    50   1 H    0.998 --    21 C    0.974
    51   1 H    0.998 --    21 C    0.972
    52   1 H    0.997 --    22 C    0.964
    53   1 H    0.998 --    22 C    0.968
    54   1 H    0.995 --    26 C    0.957
    55   1 H    0.999 --    27 C    0.980
    56   1 H    0.996 --    27 C    0.974
    57   1 H    0.998 --    28 C    0.979
    58   1 H    0.999 --    28 C    0.980
    59   1 H    0.999 --    29 C    0.980
    60   1 H    0.996 --    29 C    0.977
    61   1 H    0.999 --    30 C    0.981
    62   1 H    0.998 --    30 C    0.978
 ---------------------------------------------------------------------------

Topologies differ in total number of bonds
Writing topology from bond orders to xtbtopo.mol

molecular dipole:
                 x           y           z       tot (Debye)
 q only:        2.848       0.487      -0.472
   full:        2.718       0.251      -0.958       7.352
molecular quadrupole (traceless):
                xx          xy          yy          xz          yz          zz
 q only:       -7.152     -15.340       5.057      10.458       5.350       2.096
  q+dip:      -16.137      -7.837       9.266       1.356       6.696       6.871
   full:      -18.615      -8.434       6.602       0.485       7.713      12.013

           -------------------------------------------------
          |                Geometry Summary                 |
           -------------------------------------------------

      molecular mass/u    :      447.5336757
   center of mass at/Å    :       -0.2538794      -0.1368845      -0.0730784
  moments of inertia/u·Å² :        0.1678943E+04   0.1165020E+05   0.1307556E+05
rotational constants/cm⁻¹ :        0.1004062E-01   0.1446983E-02   0.1289248E-02

 * 61 selected distances

     #   Z          #   Z                                           value/Å
     3   6 C        4   6 C                                       1.3638745
     4   6 C        6   6 C                                       1.4296912
     6   6 C        7   6 C                                       1.4000909
     7   6 C        8   7 N                                       1.3111304
     8   7 N        9   6 C                                       1.3413459
     9   6 C       10   7 N                                       1.3485761
    10   7 N       11   6 C                                       1.3868650
    11   6 C       12   7 N                                       1.3285359
    12   7 N       13   6 C                                       1.3178091
    13   6 C       14   6 C                                       1.4007725
    14   6 C       15   6 C                                       1.4040453
    11   6 C       16   6 C                                       1.3949584
    15   6 C       16   6 C                                       1.3770428
    14   6 C       17   7 N                                       1.3830225
    17   7 N       18   6 C                                       1.4477629
    18   6 C       19   6 C                                       1.5381923 (max)
    19   6 C       20   7 N                                       1.4484388
    20   7 N       21   6 C                                       1.4497855
    17   7 N       22   6 C                                       1.4509466
    21   6 C       22   6 C                                       1.5337214
     9   6 C       23   7 N                                       1.3335090
     6   6 C       24   6 C                                       1.4176713
    23   7 N       24   6 C                                       1.3282607
    24   6 C       25   7 N                                       1.3600397
    25   7 N       26   6 C                                       1.4631203
    26   6 C       27   6 C                                       1.5375829
    27   6 C       28   6 C                                       1.5251639
    28   6 C       29   6 C                                       1.5256667
    29   6 C       30   6 C                                       1.5306089
    25   7 N       31   6 C                                       1.3927981
    31   6 C       32   8 O                                       1.2183329
     2   6 C       33   8 O                                       1.2090771
     1   6 C       34   1 H                                       1.0865728
     1   6 C       35   1 H                                       1.0885110
     1   6 C       36   1 H                                       1.0877815
     5   6 C       37   1 H                                       1.0839971
     5   6 C       38   1 H                                       1.0890279
     5   6 C       39   1 H                                       1.0897876
     7   6 C       40   1 H                                       1.0813178
    10   7 N       41   1 H                                       1.0127415 (min)
    13   6 C       42   1 H                                       1.0807263
[...]
    2    7 N      8, 10, 12, 17, 20, 23, 25
    3    8 O      32, 33
    4    1 H      34-62

           -------------------------------------------------
          |                Calculation Setup                |
           -------------------------------------------------

          program call               : xtb /rds/general/user/hgt20/home/callum/QDESCP/Palbociclib_rdkit_conf_6/Palbociclib_rdkit_conf_6.xyz --acc 1 --gfn 2 --chrg 0 --uhf 2 --etemp 300 --input /rds/general/user/hgt20/home/callum/QDESCP/Palbociclib_rdkit_conf_6/Palbociclib_rdkit_conf_6_xtb.inp -P 1
          hostname                   : login-c
          coordinate file            : /rds/general/user/hgt20/home/callum/QDESCP/Palbociclib_rdkit_conf_6/Palbociclib_rdkit_conf_6.xyz
          omp threads                :                     1


           -------------------------------------------------
          |                 G F N 2 - x T B                 |
           -------------------------------------------------

        Reference                      10.1021/acs.jctc.8b01176
      * Hamiltonian:
        H0-scaling (s, p, d)           1.850000    2.230000    2.230000
        zeta-weighting                 0.500000
      * Dispersion:
        s8                             2.700000
        a1                             0.520000
        a2                             5.000000
        s9                             5.000000
      * Repulsion:
        kExp                           1.500000    1.000000
        rExp                           1.000000
      * Coulomb:
        alpha                          2.000000
        third order                    shell-resolved
        anisotropic                    true
        a3                             3.000000
        a5                             4.000000
        cn-shift                       1.200000
        cn-exp                         4.000000
        max-rad                        5.000000


          ...................................................
          :                      SETUP                      :
          :.................................................:
          :  # basis functions                 161          :
          :  # atomic orbitals                 161          :
          :  # shells                           95          :
          :  # electrons                       172          :
          :  max. iterations                   250          :
          :  Hamiltonian                  GFN2-xTB          :
          :  restarted?                      false          :
          :  GBSA solvation                  false          :
          :  PC potential                    false          :
          :  electronic temp.          300.0000000     K    :
          :  accuracy                    1.0000000          :
          :  -> integral cutoff          0.2500000E+02      :
          :  -> integral neglect         0.1000000E-07      :
          :  -> SCF convergence          0.1000000E-05 Eh   :
          :  -> wf. convergence          0.1000000E-03 e    :
          :  Broyden damping             0.4000000          :
          :  net charge                          0          :
          :  unpaired electrons                  2          :
          ...................................................

 iter      E             dE          RMSdq      gap      omega  full diag
   1    -95.8293048 -0.958293E+02  0.376E+00    0.87       0.0  T
   2    -95.6893223  0.139982E+00  0.281E+00    0.45       1.0  T
   3    -95.7814029 -0.920806E-01  0.200E+00    0.82       1.0  T
   4    -96.0385660 -0.257163E+00  0.110E+00    0.25       1.0  T
   5    -96.0115216  0.270445E-01  0.947E-01    0.50       1.0  T
   6    -96.0392482 -0.277266E-01  0.720E-01    0.57       1.0  T
   7    -96.0534440 -0.141958E-01  0.555E-01    0.35       1.0  T
   8    -96.0883972 -0.349532E-01  0.356E-01    0.51       1.0  T
   9    -96.1005125 -0.121153E-01  0.217E-01    0.39       1.0  T
  10    -96.1026302 -0.211772E-02  0.870E-02    0.37       1.0  T
  11    -96.1001521  0.247812E-02  0.129E-01    0.33       1.0  T
  12    -96.1024329 -0.228077E-02  0.779E-02    0.37       1.0  T
  13    -96.1029403 -0.507426E-03  0.479E-02    0.36       1.0  T
  14    -96.1033368 -0.396520E-03  0.660E-03    0.35       1.9  T
  15    -96.1033362  0.660677E-06  0.495E-03    0.35       2.6  T
  16    -96.1033382 -0.199503E-05  0.246E-03    0.35       5.2  T
  17    -96.1033385 -0.346467E-06  0.157E-03    0.35       8.1  T
  18    -96.1033388 -0.270609E-06  0.458E-04    0.35      27.7  T
  19    -96.1033388 -0.156143E-07  0.321E-04    0.35      39.6  T

   *** convergence criteria satisfied after 19 iterations ***

         #    Occupation            Energy/Eh            Energy/eV
      -------------------------------------------------------------
         1        2.0000           -0.6926928             -18.8491
       ...           ...                  ...                  ...
        81        2.0000           -0.3892163             -10.5911
        82        2.0000           -0.3833762             -10.4322
        83        2.0000           -0.3770377             -10.2597
        84        1.8822           -0.3681643             -10.0183
        85        1.8233           -0.3677131             -10.0060
        86        1.2945           -0.3654215              -9.9436
        87        0.9988           -0.2695531              -7.3349 (HOMO)
        88        0.0012           -0.2567929              -6.9877 (LUMO)
        89                         -0.2460261              -6.6947
        90                         -0.2337046              -6.3594
        91                         -0.2120680              -5.7707
        92                         -0.1977106              -5.3800
       ...                                ...                  ...
       161                          0.7160674              19.4852
      -------------------------------------------------------------
                  HL-Gap            0.0127601 Eh            0.3472 eV
             Fermi-level           -0.3147122 Eh           -8.5638 eV

 transition dipole moment (au) for excitation:          86          87
     X       Y       Z   
   2.4714   0.1003   0.3152  total (au/Debye):    2.493   6.338
 dE (eV)             :    2.609
 oscillator strength :  0.56193E+00

 SCC (total)                   0 d,  0 h,  0 min,  0.213 sec
 SCC setup                      ...        0 min,  0.001 sec (  0.326%)
 Dispersion                     ...        0 min,  0.001 sec (  0.486%)
 classical contributions        ...        0 min,  0.000 sec (  0.143%)
 integral evaluation            ...        0 min,  0.013 sec (  6.208%)
 iterations                     ...        0 min,  0.116 sec ( 54.467%)
 molecular gradient             ...        0 min,  0.071 sec ( 33.321%)
 printout                       ...        0 min,  0.011 sec (  5.044%)

         :::::::::::::::::::::::::::::::::::::::::::::::::::::
         ::                     SUMMARY                     ::
         :::::::::::::::::::::::::::::::::::::::::::::::::::::
         :: total energy             -94.794636007211 Eh    ::
         :: gradient norm              0.099231508092 Eh/a0 ::
         :: HOMO-LUMO gap              0.347220431592 eV    ::
         ::.................................................::
         :: SCC energy               -96.103678556777 Eh    ::
         :: -> isotropic ES            0.109141382537 Eh    ::
         :: -> anisotropic ES          0.005632817563 Eh    ::
         :: -> anisotropic XC          0.048409703417 Eh    ::
         :: -> dispersion             -0.070262439774 Eh    ::
         :: repulsion energy           1.309042549565 Eh    ::
         :: add. restraining           0.000000000000 Eh    ::
         :: total charge               0.000000000004 e     ::
         :::::::::::::::::::::::::::::::::::::::::::::::::::::

           -------------------------------------------------
          |                Property Printout                |
           -------------------------------------------------

    * Orbital Energies and Occupations

         #    Occupation            Energy/Eh            Energy/eV
      -------------------------------------------------------------
         1        2.0000           -0.6926928             -18.8491
       ...           ...                  ...                  ...
        75        2.0000           -0.4232763             -11.5179
        76        2.0000           -0.4182561             -11.3813
        77        2.0000           -0.4132629             -11.2455
        78        2.0000           -0.4085682             -11.1177
        79        2.0000           -0.3997046             -10.8765
        80        2.0000           -0.3933269             -10.7030
        81        2.0000           -0.3892163             -10.5911
        82        2.0000           -0.3833762             -10.4322
        83        2.0000           -0.3770377             -10.2597
        84        1.8822           -0.3681643             -10.0183
        85        1.8233           -0.3677131             -10.0060
        86        1.2945           -0.3654215              -9.9436
        87        0.9988           -0.2695531              -7.3349 (HOMO)
        88        0.0012           -0.2567929              -6.9877 (LUMO)
        89                         -0.2460261              -6.6947
        90                         -0.2337046              -6.3594
        91                         -0.2120680              -5.7707
        92                         -0.1977106              -5.3800
        93                         -0.1423089              -3.8724
        94                         -0.1113308              -3.0295
        95                         -0.0726738              -1.9776
        96                         -0.0314348              -0.8554
        97                         -0.0066869              -0.1820
        98                          0.0123348               0.3356
       ...                                ...                  ...
       161                          0.7160674              19.4852
      -------------------------------------------------------------
                  HL-Gap            0.0127601 Eh            0.3472 eV
             Fermi-level           -0.3147122 Eh           -8.5638 eV

     #   Z          covCN         q      C6AA      α(0)
     1   6 C        3.754    -0.135    23.152     6.861
     2   6 C        2.817     0.244    22.919     7.844
     3   6 C        2.964    -0.076    29.885     8.967
     4   6 C        2.957    -0.001    28.043     8.686
     5   6 C        3.758    -0.107    22.600     6.778
     6   6 C        2.979    -0.039    28.957     8.827
     7   6 C        2.925     0.039    27.136     8.543
     8   7 N        1.838    -0.262    27.651     7.793
     9   6 C        2.882     0.213    23.503     7.948
    10   7 N        2.726    -0.121    23.636     7.221
    11   6 C        2.891     0.145    24.852     8.173
    12   7 N        1.852    -0.253    27.437     7.763
    13   6 C        2.906     0.038    27.147     8.543
    14   6 C        2.905     0.041    27.073     8.532
    15   6 C        2.935    -0.037    28.923     8.820
    16   6 C        2.910    -0.054    29.347     8.883
    17   7 N        2.738    -0.090    23.005     7.124
    18   6 C        3.754    -0.005    20.717     6.490
    19   6 C        3.757     0.003    20.586     6.469
    20   7 N        2.678    -0.242    26.309     7.618
    21   6 C        3.757     0.002    20.592     6.470
    22   6 C        3.755    -0.002    20.677     6.484
    23   7 N        1.861    -0.316    29.038     7.987
    24   6 C        2.920     0.164    24.470     8.112
    25   7 N        2.749    -0.079    22.780     7.089
    26   6 C        3.820     0.040    19.887     6.346
    27   6 C        3.828    -0.061    21.651     6.621
    28   6 C        3.829    -0.056    21.553     6.606
    29   6 C        3.829    -0.060    21.637     6.619
    30   6 C        3.820    -0.057    21.579     6.611
    31   6 C        2.773     0.258    22.660     7.796
    32   8 O        0.859    -0.440    22.485     6.358
    33   8 O        0.857    -0.370    21.083     6.156
    34   1 H        0.925     0.060     2.197     2.318
    35   1 H        0.925     0.099     1.792     2.093
    36   1 H        0.925     0.053     2.285     2.364
    37   1 H        0.925     0.064     2.153     2.294
    38   1 H        0.925     0.050     2.324     2.384
    39   1 H        0.925     0.040     2.443     2.444
    40   1 H        0.925     0.041     2.440     2.442
    41   1 H        0.860     0.211     1.051     1.606
    42   1 H        0.926     0.040     2.450     2.448
    43   1 H        0.926     0.040     2.446     2.446
    44   1 H        0.926     0.079     1.984     2.203
    45   1 H        0.923     0.030     2.588     2.516
    46   1 H        0.925     0.052     2.297     2.370
    47   1 H        0.924     0.054     2.271     2.357
    48   1 H        0.924     0.047     2.355     2.400
    49   1 H        0.860     0.143     1.452     1.888
    50   1 H        0.924     0.047     2.360     2.403
    51   1 H        0.924     0.054     2.267     2.355
    52   1 H        0.922     0.030     2.587     2.515
    53   1 H        0.925     0.053     2.287     2.365
    54   1 H        0.924     0.065     2.143     2.290
    55   1 H        0.925     0.029     2.605     2.524
    56   1 H        0.925     0.062     2.173     2.305
    57   1 H        0.925     0.035     2.512     2.478
    58   1 H        0.924     0.030     2.592     2.517
    59   1 H        0.925     0.029     2.602     2.522
    60   1 H        0.925     0.062     2.180     2.309
    61   1 H        0.924     0.030     2.593     2.518
    62   1 H        0.925     0.047     2.355     2.400

 Mol. C6AA /au·bohr⁶  :      42277.088242
 Mol. C8AA /au·bohr⁸  :     981884.848217
 Mol. α(0) /au        :        315.210053


Wiberg/Mayer (AO) data.
largest (>0.10) Wiberg bond orders for each atom

 ---------------------------------------------------------------------------
     #   Z sym  total        # sym  WBO       # sym  WBO       # sym  WBO
 ---------------------------------------------------------------------------
     1   6 C    3.964 --     2 C    0.995    34 H    0.981    36 H    0.968
                            35 H    0.941
     2   6 C    3.890 --    33 O    1.773     3 C    1.020     1 C    0.995
     3   6 C    3.821 --     4 C    1.387    31 C    1.116     2 C    1.020
     4   6 C    3.894 --     3 C    1.387     6 C    1.252     5 C    1.025
     5   6 C    3.985 --     4 C    1.025    37 H    0.978    39 H    0.969
                            38 H    0.968
     6   6 C    3.894 --     4 C    1.252     7 C    1.222    24 C    1.197
     7   6 C    3.868 --     8 N    1.441     6 C    1.222    40 H    0.953
     8   7 N    3.008 --     7 C    1.441     9 C    1.301
     9   6 C    3.914 --     8 N    1.301    23 N    1.236    10 N    1.167
    10   7 N    3.475 --     9 C    1.167    11 C    1.149    41 H    0.920
    11   6 C    3.905 --    12 N    1.303    16 C    1.282    10 N    1.149
    12   7 N    3.006 --    13 C    1.467    11 C    1.303
    13   6 C    3.941 --    12 N    1.467    14 C    1.317    42 H    0.957
    14   6 C    3.904 --    13 C    1.317    15 C    1.282    17 N    1.138
    15   6 C    3.947 --    16 C    1.531    14 C    1.282    43 H    0.962
    16   6 C    3.961 --    15 C    1.531    11 C    1.282    44 H    0.953
    17   7 N    3.295 --    14 C    1.138    18 C    1.002    22 C    0.992
    18   6 C    3.973 --    17 N    1.002    19 C    0.978    46 H    0.969
                            45 H    0.960
    19   6 C    3.979 --    20 N    1.023    18 C    0.978    48 H    0.973
                            47 H    0.971
    20   7 N    3.082 --    19 C    1.023    21 C    1.021    49 H    0.954
    21   6 C    3.980 --    20 N    1.021    22 C    0.983    50 H    0.973
                            51 H    0.971
    22   6 C    3.971 --    17 N    0.992    21 C    0.983    53 H    0.967
                            52 H    0.959
    23   7 N    2.962 --    24 C    1.370     9 C    1.236
    24   6 C    3.948 --    23 N    1.370    25 N    1.201     6 C    1.197
    25   7 N    3.557 --    24 C    1.201    31 C    1.074    26 C    0.955
                            32 O    0.106
    26   6 C    3.943 --    27 C    0.984    30 C    0.982    25 N    0.955
                            54 H    0.952
    27   6 C    3.988 --    28 C    1.007    26 C    0.984    55 H    0.980
                            56 H    0.970
    28   6 C    3.997 --    29 C    1.007    27 C    1.007    58 H    0.980
                            57 H    0.979
    29   6 C    3.994 --    28 C    1.007    30 C    1.006    59 H    0.980
                            60 H    0.977
    30   6 C    3.992 --    29 C    1.006    26 C    0.982    61 H    0.980
                            62 H    0.977
    31   6 C    3.932 --    32 O    1.605     3 C    1.116    25 N    1.074
    32   8 O    1.913 --    31 C    1.605    25 N    0.106
    33   8 O    1.990 --     2 C    1.773
    34   1 H    0.994 --     1 C    0.981
    35   1 H    0.988 --     1 C    0.941
    36   1 H    0.995 --     1 C    0.968
    37   1 H    0.995 --     5 C    0.978
    38   1 H    0.994 --     5 C    0.968
    39   1 H    0.994 --     5 C    0.969
    40   1 H    0.987 --     7 C    0.953
    41   1 H    0.955 --    10 N    0.920
    42   1 H    0.997 --    13 C    0.957
    43   1 H    0.997 --    15 C    0.962
    44   1 H    0.992 --    16 C    0.953
    45   1 H    0.988 --    18 C    0.960
    46   1 H    0.997 --    18 C    0.969
    47   1 H    0.996 --    19 C    0.971
    48   1 H    0.997 --    19 C    0.973
    49   1 H    0.979 --    20 N    0.954
    50   1 H    0.997 --    21 C    0.973
    51   1 H    0.996 --    21 C    0.971
    52   1 H    0.988 --    22 C    0.959
    53   1 H    0.997 --    22 C    0.967
    54   1 H    0.992 --    26 C    0.952
    55   1 H    0.998 --    27 C    0.980
    56   1 H    0.993 --    27 C    0.970
    57   1 H    0.998 --    28 C    0.979
    58   1 H    0.999 --    28 C    0.980
    59   1 H    0.999 --    29 C    0.980
    60   1 H    0.996 --    29 C    0.977
    61   1 H    0.997 --    30 C    0.980
    62   1 H    0.997 --    30 C    0.977
 ---------------------------------------------------------------------------

Topologies differ in total number of bonds
Writing topology from bond orders to xtbtopo.mol

molecular dipole:
                 x           y           z       tot (Debye)
 q only:        5.480       1.001      -0.184
   full:        5.416       0.828      -0.633      14.019
molecular quadrupole (traceless):
                xx          xy          yy          xz          yz          zz
 q only:        8.514     -21.163      -5.157      11.502       4.788      -3.357
  q+dip:       -0.050     -13.994      -0.997       2.805       6.077       1.047
   full:       -2.300     -14.703      -3.444       2.108       7.000       5.744


           -------------------------------------------------
          | TOTAL ENERGY              -94.794636007211 Eh   |
          | GRADIENT NORM               0.099231508092 Eh/α |
          | HOMO-LUMO GAP               0.347220431592 eV   |
           -------------------------------------------------

------------------------------------------------------------------------
 * finished run on 2025/05/15 at 16:11:47.252     
------------------------------------------------------------------------
 total:
 * wall-time:     0 d,  0 h,  0 min,  0.233 sec
 *  cpu-time:     0 d,  0 h,  0 min,  0.175 sec
 * ratio c/w:     0.753 speedup
 SCF:
 * wall-time:     0 d,  0 h,  0 min,  0.214 sec
 *  cpu-time:     0 d,  0 h,  0 min,  0.158 sec
 * ratio c/w:     0.739 speedup


