62
 energy: -94.881806955571 gnorm: 0.000839577452 xtb: 6.7.1 (edcfbbe)
C           -7.00002860758686       -1.82751061377453       -1.97057306775410
C           -6.16338977962657       -2.29950591114383       -0.81714687686301
C           -4.84687591160523       -1.60510167285568       -0.65532863829019
C           -3.68879837751253       -2.30804502061121       -0.49759362201732
C           -3.62451850007678       -3.80190799735198       -0.51087354983943
C           -2.46758988776912       -1.57969421383365       -0.34869268470939
C           -1.19987712566935       -2.15413076152292       -0.19643937614670
N           -0.09731080881915       -1.45940827871324       -0.05231864709598
C           -0.21940319738052       -0.12363063611878       -0.05192354319424
N            0.86838845803870        0.66000408113567        0.09396394165874
C            2.21052594524515        0.34230870400921        0.23932831711762
N            2.99292303489739        1.41104592240489        0.34258950899633
C            4.29457814178737        1.24876366002217        0.46899715418427
C            4.92882023520350        0.00022690522751        0.50149500520257
C            4.08243973980481       -1.11608808054030        0.40756076330573
C            2.72112985347789       -0.95531468423924        0.27628350402470
N            6.29086536758260       -0.15344379859726        0.68580255147441
C            7.11007086204054        0.98486744375181        1.04520062157197
C            8.35830048307262        0.48555192660556        1.79262406189013
N            9.11964782190623       -0.49393196927731        1.04500381797977
C            8.25974585103356       -1.59435470492970        0.65575308610421
C            7.02288162860834       -1.11669563945167       -0.11516160839325
N           -1.36816312414273        0.53997870146632       -0.18690231722261
C           -2.48601078921765       -0.16221985382976       -0.33390559776058
N           -3.65961909881770        0.51091004141331       -0.47264034890110
C           -3.63192961847367        1.97325493624507       -0.43389480799632
C           -4.38403974733778        2.55478322100078        0.77454053244441
C           -4.91292296722819        3.89073667732866        0.26303743860414
C           -5.35895523125071        3.55092326965158       -1.15584960303552
C           -4.24550931030800        2.64228283481085       -1.68251249521678
C           -4.87903680956377       -0.14166815685311       -0.63710396680621
O           -5.90495916118388        0.50744087854174       -0.73945399226010
O           -6.51257155815905       -3.18987449907444       -0.07742866332678
H           -7.85308646966513       -2.48714228631324       -2.10405919197516
H           -7.34259584926423       -0.81823278651760       -1.74952592606920
H           -6.40373804359065       -1.78626009001674       -2.87942084399096
H           -4.60780307963588       -4.24061201657795       -0.63633156566205
H           -3.21274551221242       -4.15919352603230        0.43187333919197
H           -2.97485213255269       -4.14210703969775       -1.31699700928928
H           -1.06793567801347       -3.22733922409149       -0.18850096168280
H            0.68571127254313        1.65611314426465        0.08756387338998
H            4.85154075780795        2.17270809657111        0.53293780313997
H            4.49041002874314       -2.11422729199175        0.45743947612941
H            2.05580429465669       -1.79802624070406        0.20831493013773
H            7.41774543394529        1.55653839636484        0.15254818210731
H            6.54585775452535        1.64136781993117        1.70746425497277
H            8.04400265885335        0.00989761755219        2.72597992275210
H            9.00680815780333        1.33034791001374        2.03226297634078
H            9.51310721792484       -0.05926175185123        0.21374737392285
H            8.83371138827102       -2.29473350092253        0.04595696924581
H            7.94176321449019       -2.10218737490333        1.57052407354933
H            7.34882281194461       -0.64637652702272       -1.06044546698127
H            6.38540683248878       -1.96309814237631       -0.36279678161115
H           -2.57283638023485        2.22425457843101       -0.36391421466723
H           -3.73455867400325        2.65326617607028        1.64360960293219
H           -5.22233714859380        1.90973973246547        1.03327727021738
H           -5.72503905481331        4.27612181709768        0.87684255981957
H           -4.11027018822162        4.63057265775999        0.24108813417356
H           -5.50060863501300        4.43324239207429       -1.77811495780166
H           -6.29220710252200        2.99114601310234       -1.11496372646659
H           -3.47965917851962        3.22780015246323       -2.19256794481636
H           -4.62922650811243        1.90512858396097       -2.38462904874426
