----- Optimization -----
      -----------------------------------------------------------      
     |                   =====================                   |     
     |                           x T B                           |     
     |                   =====================                   |     
     |                         S. Grimme                         |     
     |          Mulliken Center for Theoretical Chemistry        |     
     |                    University of Bonn                     |     
      -----------------------------------------------------------      

   * xtb version 6.7.1 (edcfbbe) compiled by 'conda@3ef47c1a292c' on 2024-11-25

   xtb is free software: you can redistribute it and/or modify it under
   the terms of the GNU Lesser General Public License as published by
   the Free Software Foundation, either version 3 of the License, or
   (at your option) any later version.
   
   xtb is distributed in the hope that it will be useful,
   but WITHOUT ANY WARRANTY; without even the implied warranty of
   MERCHANTABILITY or FITNESS FOR A PARTICULAR PURPOSE.  See the
   GNU Lesser General Public License for more details.
   
   Cite this work as:
   * C. Bannwarth, E. Caldeweyher, S. Ehlert, A. Hansen, P. Pracht,
     J. Seibert, S. Spicher, S. Grimme, WIREs Comput. Mol. Sci., 2020, 11,
     e01493. DOI: 10.1002/wcms.1493
   
   for GFN2-xTB:
   * C. Bannwarth, S. Ehlert and S. Grimme., J. Chem. Theory Comput., 2019,
     15, 1652-1671. DOI: 10.1021/acs.jctc.8b01176
   for GFN1-xTB:
   * S. Grimme, C. Bannwarth, P. Shushkov, J. Chem. Theory Comput., 2017,
     13, 1989-2009. DOI: 10.1021/acs.jctc.7b00118
   for GFN0-xTB:
   * P. Pracht, E. Caldeweyher, S. Ehlert, S. Grimme, ChemRxiv, 2019, preprint.
     DOI: 10.26434/chemrxiv.8326202.v1
   for GFN-FF:
   * S. Spicher and S. Grimme, Angew. Chem. Int. Ed., 2020, 59, 15665-15673.
     DOI: 10.1002/anie.202004239
   
   for ALPB and GBSA implicit solvation:
   * S. Ehlert, M. Stahn, S. Spicher, S. Grimme, J. Chem. Theory Comput.,
     2021, 17, 4250-4261. DOI: 10.1021/acs.jctc.1c00471
   
   for ddCOSMO and CPCM-X implicit solvation:
   * M. Stahn, S. Ehlert, S. Grimme, J. Phys. Chem. A,
     2023, XX, XXXX-XXXX. DOI: 10.1021/acs.jpca.3c04382
   
   for DFT-D4:
   * E. Caldeweyher, C. Bannwarth and S. Grimme, J. Chem. Phys., 2017,
     147, 034112. DOI: 10.1063/1.4993215
   * E. Caldeweyher, S. Ehlert, A. Hansen, H. Neugebauer, S. Spicher,
     C. Bannwarth and S. Grimme, J. Chem. Phys., 2019, 150, 154122.
     DOI: 10.1063/1.5090222
   * E. Caldeweyher, J.-M. Mewes, S. Ehlert and S. Grimme, Phys. Chem. Chem. Phys.
     2020, 22, 8499-8512. DOI: 10.1039/D0CP00502A
   
   for sTDA-xTB:
   * S. Grimme and C. Bannwarth, J. Chem. Phys., 2016, 145, 054103.
     DOI: 10.1063/1.4959605
   
   in the mass-spec context:
   * V. Asgeirsson, C. Bauer and S. Grimme, Chem. Sci., 2017, 8, 4879.
     DOI: 10.1039/c7sc00601b
   * J. Koopman and S. Grimme, ACS Omega 2019, 4, 12, 15120-15133.
     DOI: 10.1021/acsomega.9b02011
   
   for metadynamics refer to:
   * S. Grimme, J. Chem. Theory Comput., 2019, 155, 2847-2862
     DOI: 10.1021/acs.jctc.9b00143
   
   for SPH calculations refer to:
   * S. Spicher and S. Grimme, J. Chem. Theory Comput., 2021, 17, 1701-1714
     DOI: 10.1021/acs.jctc.0c01306
   
   for ONIOM refer to:
   * C. Plett, A. Katbashev, S. Ehlert, S. Grimme, M. Bursch,
     Phys. Chem. Chem. Phys., 2023, 25, 17860-17868. DOI: 10.1039/D3CP02178E
   
   for DIPRO refer to:
   * J. Kohn, N. Gildemeister, S. Grimme, D. Fazzi, A. Hansen,
     J. Chem. Phys., 2023, just accepted.
   
   for PTB refer to:
   * S. Grimme, M. Mueller, A. Hansen, J. Chem. Phys., 2023, 158, 124111.
     DOI: 10.1063/5.0137838
   
   with help from (in alphabetical order)
   P. Atkinson, C. Bannwarth, F. Bohle, G. Brandenburg, E. Caldeweyher
   M. Checinski, S. Dohm, S. Ehlert, S. Ehrlich, I. Gerasimov, C. Hölzer
   A. Katbashev, J. Kohn, J. Koopman, C. Lavigne, S. Lehtola, F. März, M. Müller,
   F. Musil, H. Neugebauer, J. Pisarek, C. Plett, P. Pracht, F. Pultar,
   J. Seibert, P. Shushkov, S. Spicher, M. Stahn, M. Steiner, T. Strunk,
   J. Stückrath, T. Rose, and J. Unsleber
   
 * started run on 2025/05/15 at 16:09:17.655     
   ID    Z sym.   atoms
    1    6 C      1-8, 10, 11, 13-16
    2    7 N      9, 12
    3    8 O      17
    4    1 H      18-39

           -------------------------------------------------
          |                Calculation Setup                |
           -------------------------------------------------

          program call               : xtb /rds/general/user/hgt20/home/callum/QDESCP/Lidocaine_rdkit_conf_5/Lidocaine_rdkit_conf_5.xyz --opt normal --acc 1 --gfn 2 --chrg 0 --uhf 0 -P 1
          hostname                   : login-c
          coordinate file            : /rds/general/user/hgt20/home/callum/QDESCP/Lidocaine_rdkit_conf_5/Lidocaine_rdkit_conf_5.xyz
          omp threads                :                     1


           -------------------------------------------------
          |                 G F N 2 - x T B                 |
           -------------------------------------------------

        Reference                      10.1021/acs.jctc.8b01176
      * Hamiltonian:
        H0-scaling (s, p, d)           1.850000    2.230000    2.230000
        zeta-weighting                 0.500000
      * Dispersion:
        s8                             2.700000
        a1                             0.520000
        a2                             5.000000
        s9                             5.000000
      * Repulsion:
        kExp                           1.500000    1.000000
        rExp                           1.000000
      * Coulomb:
        alpha                          2.000000
        third order                    shell-resolved
        anisotropic                    true
        a3                             3.000000
        a5                             4.000000
        cn-shift                       1.200000
        cn-exp                         4.000000
        max-rad                        5.000000


          ...................................................
          :                      SETUP                      :
          :.................................................:
          :  # basis functions                  90          :
          :  # atomic orbitals                  90          :
          :  # shells                           56          :
          :  # electrons                        94          :
          :  max. iterations                   250          :
          :  Hamiltonian                  GFN2-xTB          :
          :  restarted?                      false          :
          :  GBSA solvation                  false          :
          :  PC potential                    false          :
          :  electronic temp.          300.0000000     K    :
          :  accuracy                    1.0000000          :
          :  -> integral cutoff          0.2500000E+02      :
          :  -> integral neglect         0.1000000E-07      :
          :  -> SCF convergence          0.1000000E-05 Eh   :
          :  -> wf. convergence          0.1000000E-03 e    :
          :  Broyden damping             0.4000000          :
          :  net charge                          0          :
          :  unpaired electrons                  0          :
          ...................................................

 iter      E             dE          RMSdq      gap      omega  full diag
   1    -51.7417851 -0.517418E+02  0.341E+00    3.57       0.0  T
   2    -51.8266433 -0.848583E-01  0.193E+00    3.75       1.0  T
   3    -51.8291394 -0.249609E-02  0.959E-01    3.74       1.0  T
   4    -51.8316217 -0.248230E-02  0.229E-01    3.56       1.0  T
   5    -51.8330974 -0.147566E-02  0.875E-02    3.62       1.0  T
   6    -51.8332429 -0.145576E-03  0.429E-02    3.62       1.0  T
   7    -51.8332628 -0.198547E-04  0.195E-02    3.62       1.0  T
   8    -51.8332676 -0.478840E-05  0.498E-03    3.62       3.2  T
   9    -51.8332677 -0.112774E-06  0.194E-03    3.62       8.2  T
  10    -51.8332678 -0.498271E-07  0.107E-03    3.62      15.0  T
  11    -51.8332678 -0.782191E-08  0.408E-04    3.62      39.3  T
  12    -51.8332678 -0.891966E-09  0.874E-05    3.62     183.2  T

   *** convergence criteria satisfied after 12 iterations ***

         #    Occupation            Energy/Eh            Energy/eV
      -------------------------------------------------------------
         1        2.0000           -0.6916402             -18.8205
       ...           ...                  ...                  ...
        41        2.0000           -0.4324199             -11.7667
        42        2.0000           -0.4196215             -11.4185
        43        2.0000           -0.4188079             -11.3963
        44        2.0000           -0.3920428             -10.6680
        45        2.0000           -0.3814071             -10.3786
        46        2.0000           -0.3693224             -10.0498
        47        2.0000           -0.3646164              -9.9217 (HOMO)
        48                         -0.2315201              -6.3000 (LUMO)
        49                         -0.2165316              -5.8921
        50                         -0.1947651              -5.2998
        51                         -0.0928724              -2.5272
        52                         -0.0141012              -0.3837
       ...                                ...                  ...
        90                          0.6381370              17.3646
      -------------------------------------------------------------
                  HL-Gap            0.1330963 Eh            3.6217 eV
             Fermi-level           -0.2980683 Eh           -8.1109 eV

 SCC (total)                   0 d,  0 h,  0 min,  0.051 sec
 SCC setup                      ...        0 min,  0.000 sec (  0.588%)
 Dispersion                     ...        0 min,  0.000 sec (  0.734%)
 classical contributions        ...        0 min,  0.000 sec (  0.240%)
 integral evaluation            ...        0 min,  0.006 sec ( 11.150%)
 iterations                     ...        0 min,  0.027 sec ( 53.355%)
 molecular gradient             ...        0 min,  0.017 sec ( 33.675%)
 printout                       ...        0 min,  0.000 sec (  0.245%)

         :::::::::::::::::::::::::::::::::::::::::::::::::::::
         ::                     SUMMARY                     ::
         :::::::::::::::::::::::::::::::::::::::::::::::::::::
         :: total energy             -51.122449104944 Eh    ::
         :: gradient norm              0.059174008761 Eh/a0 ::
         :: HOMO-LUMO gap              3.621734447705 eV    ::
         ::.................................................::
         :: SCC energy               -51.832895270020 Eh    ::
         :: -> isotropic ES            0.046175796173 Eh    ::
         :: -> anisotropic ES          0.008856051223 Eh    ::
         :: -> anisotropic XC          0.029144438301 Eh    ::
         :: -> dispersion             -0.036414356458 Eh    ::
         :: repulsion energy           0.710446165076 Eh    ::
         :: add. restraining           0.000000000000 Eh    ::
         :: total charge               0.000000000000 e     ::
         :::::::::::::::::::::::::::::::::::::::::::::::::::::

      ----------------------------------------------------------- 
     |                   =====================                   |
     |                        A N C O P T                        |
     |                   =====================                   |
     |               Approximate Normal Coordinate               |
     |                Rational Function Optimizer                |
      ----------------------------------------------------------- 
      ----------------------------------------------------------- 
     |                   =====================                   |
     |                        A N C O P T                        |
     |                   =====================                   |
     |               Approximate Normal Coordinate               |
     |                Rational Function Optimizer                |
      ----------------------------------------------------------- 

          ...................................................
          :                      SETUP                      :
          :.................................................:
          :   optimization level            normal          :
          :   max. optcycles                   200          :
          :   ANC micro-cycles                  20          :
          :   degrees of freedom               111          :
          :.................................................:
          :   RF solver                   davidson          :
          :   write xtbopt.log                true          :
          :   linear?                        false          :
          :   energy convergence         0.5000000E-05 Eh   :
          :   grad. convergence          0.1000000E-02 Eh/α :
          :   maxmium RF displ.          1.0000000          :
          :   Hlow (freq-cutoff)         0.1000000E-01      :
          :   Hmax (freq-cutoff)         5.0000000          :
          :   S6 in model hess.         20.0000000          :
          ...................................................

generating ANC from exact Hessian ...
Using Lindh-Hessian (1995)
 Shifting diagonal of input Hessian by    9.7344829385024763E-003
 Lowest  eigenvalues of input Hessian
    0.000000    0.000000    0.000000    0.000000    0.000000    0.000000
    0.010000    0.010196    0.010349    0.011090    0.011665    0.013005
    0.013495    0.014868    0.015191    0.015384    0.016137    0.018040
 Highest eigenvalues
    1.554885    1.798472    1.819861    1.933165    2.003997    2.247530


........................................................................
.............................. CYCLE    1 ..............................
........................................................................

 iter      E             dE          RMSdq      gap      omega  full diag
   1    -51.8332678 -0.518333E+02  0.461E-05    3.62       0.0  T
   2    -51.8332678 -0.107931E-10  0.265E-05    3.62     603.3  T
   3    -51.8332678 -0.468248E-11  0.176E-05    3.62     909.1  T
     SCC iter.                  ...        0 min,  0.005 sec
     gradient                   ...        0 min,  0.040 sec
 * total energy  :   -51.1224491 Eh     change       -0.1041087E-09 Eh
   gradient norm :     0.0591742 Eh/α   predicted     0.0000000E+00 (-100.00%)
   displ. norm   :     0.2961209 α      lambda       -0.9433896E-02
   maximum displ.:     0.1009255 α      in ANC's #35, #34, #15, ...

........................................................................
.............................. CYCLE    2 ..............................
........................................................................

 iter      E             dE          RMSdq      gap      omega  full diag
   1    -51.8719212 -0.518719E+02  0.186E-01    3.67       0.0  T
   2    -51.8719703 -0.491390E-04  0.111E-01    3.66       1.0  T
   3    -51.8719590  0.112935E-04  0.289E-02    3.66       1.0  T
   4    -51.8719781 -0.190814E-04  0.528E-03    3.65       3.0  T
   5    -51.8719785 -0.412531E-06  0.295E-03    3.65       5.4  T
   6    -51.8719786 -0.646773E-07  0.141E-03    3.66      11.4  T
   7    -51.8719786 -0.418596E-07  0.425E-04    3.66      37.7  T
   8    -51.8719786 -0.117370E-08  0.164E-04    3.66      97.5  T
     SCC iter.                  ...        0 min,  0.011 sec
     gradient                   ...        0 min,  0.017 sec
 * total energy  :   -51.1287039 Eh     change       -0.6254835E-02 Eh
   gradient norm :     0.0210834 Eh/α   predicted    -0.5130782E-02 ( -17.97%)
   displ. norm   :     0.2764261 α      lambda       -0.2388838E-02
   maximum displ.:     0.1132426 α      in ANC's #15, #7, #11, ...

........................................................................
.............................. CYCLE    3 ..............................
........................................................................

 iter      E             dE          RMSdq      gap      omega  full diag
   1    -51.8883460 -0.518883E+02  0.106E-01    3.65       0.0  T
   2    -51.8883759 -0.299356E-04  0.631E-02    3.65       1.0  T
   3    -51.8883724  0.346644E-05  0.213E-02    3.65       1.0  T
   4    -51.8883786 -0.612108E-05  0.519E-03    3.65       3.1  T
   5    -51.8883795 -0.947851E-06  0.178E-03    3.65       9.0  T
   6    -51.8883795 -0.254595E-07  0.877E-04    3.65      18.3  T
   7    -51.8883796 -0.765828E-08  0.225E-04    3.65      71.1  T
     SCC iter.                  ...        0 min,  0.010 sec
     gradient                   ...        0 min,  0.017 sec
 * total energy  :   -51.1302531 Eh     change       -0.1549134E-02 Eh
   gradient norm :     0.0102494 Eh/α   predicted    -0.1286429E-02 ( -16.96%)
   displ. norm   :     0.2777696 α      lambda       -0.9254901E-03
   maximum displ.:     0.1242643 α      in ANC's #15, #7, #3, ...

........................................................................
.............................. CYCLE    4 ..............................
........................................................................

 iter      E             dE          RMSdq      gap      omega  full diag
   1    -51.8913029 -0.518913E+02  0.817E-02    3.62       0.0  T
   2    -51.8913192 -0.162956E-04  0.475E-02    3.63       1.0  T
   3    -51.8913173  0.196342E-05  0.162E-02    3.62       1.0  T
   4    -51.8913206 -0.329130E-05  0.436E-03    3.62       3.7  T
   5    -51.8913212 -0.604069E-06  0.126E-03    3.62      12.7  T
   6    -51.8913212 -0.488549E-08  0.531E-04    3.62      30.2  T
   7    -51.8913212 -0.224543E-08  0.186E-04    3.62      85.9  T
     SCC iter.                  ...        0 min,  0.028 sec
     gradient                   ...        0 min,  0.017 sec
 * total energy  :   -51.1309630 Eh     change       -0.7099305E-03 Eh
   gradient norm :     0.0109030 Eh/α   predicted    -0.4984508E-03 ( -29.79%)
   displ. norm   :     0.3980237 α      lambda       -0.9540915E-03
   maximum displ.:     0.1687565 α      in ANC's #15, #7, #3, ...

........................................................................
.............................. CYCLE    5 ..............................
........................................................................

 iter      E             dE          RMSdq      gap      omega  full diag
   1    -51.8893625 -0.518894E+02  0.115E-01    3.59       0.0  T
   2    -51.8893788 -0.162686E-04  0.673E-02    3.60       1.0  T
   3    -51.8893724  0.637530E-05  0.200E-02    3.59       1.0  T
   4    -51.8893811 -0.871879E-05  0.477E-03    3.59       3.4  T
   5    -51.8893817 -0.618781E-06  0.165E-03    3.59       9.7  T
   6    -51.8893817 -0.680830E-08  0.635E-04    3.59      25.2  T
   7    -51.8893817 -0.255382E-08  0.253E-04    3.59      63.3  T
     SCC iter.                  ...        0 min,  0.010 sec
     gradient                   ...        0 min,  0.017 sec
 * total energy  :   -51.1316172 Eh     change       -0.6541792E-03 Eh
   gradient norm :     0.0134312 Eh/α   predicted    -0.5526237E-03 ( -15.52%)
   displ. norm   :     0.2698751 α      lambda       -0.4606536E-03
   maximum displ.:     0.1134397 α      in ANC's #3, #8, #15, ...

........................................................................
.............................. CYCLE    6 ..............................
........................................................................

 iter      E             dE          RMSdq      gap      omega  full diag
   1    -51.8882421 -0.518882E+02  0.720E-02    3.59       0.0  T
   2    -51.8882449 -0.285691E-05  0.418E-02    3.59       1.0  T
   3    -51.8882412  0.366665E-05  0.126E-02    3.59       1.3  T
   4    -51.8882459 -0.469952E-05  0.194E-03    3.59       8.3  T
   5    -51.8882460 -0.502352E-07  0.941E-04    3.59      17.0  T
   6    -51.8882460 -0.307973E-08  0.399E-04    3.59      40.1  T
     SCC iter.                  ...        0 min,  0.042 sec
     gradient                   ...        0 min,  0.017 sec
 * total energy  :   -51.1319378 Eh     change       -0.3206299E-03 Eh
   gradient norm :     0.0099637 Eh/α   predicted    -0.2471043E-03 ( -22.93%)
   displ. norm   :     0.2051266 α      lambda       -0.2764646E-03
   maximum displ.:     0.0993634 α      in ANC's #3, #8, #1, ...

........................................................................
.............................. CYCLE    7 ..............................
........................................................................

 iter      E             dE          RMSdq      gap      omega  full diag
   1    -51.8887201 -0.518887E+02  0.533E-02    3.61       0.0  T
   2    -51.8887247 -0.463138E-05  0.309E-02    3.60       1.0  T
   3    -51.8887235  0.121943E-05  0.994E-03    3.60       1.6  T
   4    -51.8887252 -0.174608E-05  0.239E-03    3.60       6.7  T
   5    -51.8887254 -0.162373E-06  0.721E-04    3.60      22.2  T
   6    -51.8887254 -0.150945E-08  0.343E-04    3.60      46.6  T
     SCC iter.                  ...        0 min,  0.008 sec
     gradient                   ...        0 min,  0.017 sec
 * total energy  :   -51.1321331 Eh     change       -0.1952636E-03 Eh
   gradient norm :     0.0049109 Eh/α   predicted    -0.1440490E-03 ( -26.23%)
   displ. norm   :     0.1832519 α      lambda       -0.1620667E-03
   maximum displ.:     0.0962919 α      in ANC's #8, #3, #1, ...

........................................................................
.............................. CYCLE    8 ..............................
........................................................................

 iter      E             dE          RMSdq      gap      omega  full diag
   1    -51.8898396 -0.518898E+02  0.436E-02    3.62       0.0  T
   2    -51.8898424 -0.286684E-05  0.254E-02    3.61       1.0  T
   3    -51.8898418  0.658850E-06  0.729E-03    3.61       2.2  T
   4    -51.8898427 -0.914731E-06  0.184E-03    3.61       8.7  T
   5    -51.8898428 -0.110266E-06  0.562E-04    3.61      28.5  T
   6    -51.8898428 -0.944340E-09  0.227E-04    3.61      70.7  T
     SCC iter.                  ...        0 min,  0.008 sec
     gradient                   ...        0 min,  0.017 sec
 * total energy  :   -51.1322486 Eh     change       -0.1155212E-03 Eh
   gradient norm :     0.0038997 Eh/α   predicted    -0.8375556E-04 ( -27.50%)
   displ. norm   :     0.1681063 α      lambda       -0.1038992E-03
   maximum displ.:     0.0850745 α      in ANC's #8, #3, #1, ...

........................................................................
.............................. CYCLE    9 ..............................
........................................................................

 iter      E             dE          RMSdq      gap      omega  full diag
   1    -51.8908857 -0.518909E+02  0.355E-02    3.62       0.0  T
   2    -51.8908864 -0.708637E-06  0.209E-02    3.62       1.0  T
   3    -51.8908859  0.524124E-06  0.420E-03    3.62       3.8  T
   4    -51.8908865 -0.640950E-06  0.107E-03    3.62      14.9  T
   5    -51.8908866 -0.373971E-07  0.428E-04    3.62      37.4  T
   6    -51.8908866 -0.507214E-09  0.110E-04    3.62     145.4  T
     SCC iter.                  ...        0 min,  0.008 sec
     gradient                   ...        0 min,  0.017 sec
 * total energy  :   -51.1323235 Eh     change       -0.7487716E-04 Eh
   gradient norm :     0.0040827 Eh/α   predicted    -0.5341891E-04 ( -28.66%)
   displ. norm   :     0.1638157 α      lambda       -0.7699796E-04
   maximum displ.:     0.0792497 α      in ANC's #1, #8, #3, ...

........................................................................
.............................. CYCLE   10 ..............................
........................................................................

 iter      E             dE          RMSdq      gap      omega  full diag
   1    -51.8916763 -0.518917E+02  0.295E-02    3.62       0.0  T
   2    -51.8916766 -0.292402E-06  0.175E-02    3.62       1.0  T
   3    -51.8916764  0.270533E-06  0.277E-03    3.62       5.8  T
   4    -51.8916767 -0.336780E-06  0.752E-04    3.62      21.3  T
   5    -51.8916767 -0.146601E-07  0.334E-04    3.62      48.0  T
     SCC iter.                  ...        0 min,  0.007 sec
     gradient                   ...        0 min,  0.017 sec
 * total energy  :   -51.1323799 Eh     change       -0.5644922E-04 Eh
   gradient norm :     0.0048898 Eh/α   predicted    -0.3953658E-04 ( -29.96%)
   displ. norm   :     0.1753518 α      lambda       -0.7265445E-04
   maximum displ.:     0.0932724 α      in ANC's #1, #3, #8, ...

........................................................................
.............................. CYCLE   11 ..............................
........................................................................

 iter      E             dE          RMSdq      gap      omega  full diag
   1    -51.8915855 -0.518916E+02  0.307E-02    3.62       0.0  T
   2    -51.8915865 -0.100302E-05  0.181E-02    3.62       1.0  T
   3    -51.8915861  0.411562E-06  0.437E-03    3.62       3.7  T
   4    -51.8915866 -0.509288E-06  0.108E-03    3.62      14.9  T
   5    -51.8915867 -0.469099E-07  0.343E-04    3.62      46.6  T
   6    -51.8915867 -0.696474E-09  0.139E-04    3.62     115.2  T
     SCC iter.                  ...        0 min,  0.036 sec
     gradient                   ...        0 min,  0.017 sec
 * total energy  :   -51.1324313 Eh     change       -0.5136002E-04 Eh
   gradient norm :     0.0028405 Eh/α   predicted    -0.3744516E-04 ( -27.09%)
   displ. norm   :     0.1653717 α      lambda       -0.6281097E-04
   maximum displ.:     0.0928872 α      in ANC's #1, #7, #3, ...

........................................................................
.............................. CYCLE   12 ..............................
........................................................................

 iter      E             dE          RMSdq      gap      omega  full diag
   1    -51.8920574 -0.518921E+02  0.345E-02    3.62       0.0  T
   2    -51.8920577 -0.272262E-06  0.202E-02    3.62       1.0  T
   3    -51.8920576  0.905348E-07  0.215E-03    3.62       7.5  T
   4    -51.8920578 -0.159336E-06  0.797E-04    3.62      20.1  T
   5    -51.8920578 -0.116683E-07  0.408E-04    3.62      39.2  T
     SCC iter.                  ...        0 min,  0.007 sec
     gradient                   ...        0 min,  0.017 sec
 * total energy  :   -51.1324730 Eh     change       -0.4173800E-04 Eh
   gradient norm :     0.0033937 Eh/α   predicted    -0.3226858E-04 ( -22.69%)
   displ. norm   :     0.1482389 α      lambda       -0.4891139E-04
   maximum displ.:     0.0881985 α      in ANC's #1, #3, #13, ...

........................................................................
.............................. CYCLE   13 ..............................
........................................................................

 iter      E             dE          RMSdq      gap      omega  full diag
   1    -51.8906587 -0.518907E+02  0.304E-02    3.61       0.0  T
   2    -51.8906599 -0.121601E-05  0.176E-02    3.61       1.0  T
   3    -51.8906597  0.207619E-06  0.457E-03    3.61       3.5  T
   4    -51.8906601 -0.323492E-06  0.103E-03    3.62      15.5  T
   5    -51.8906601 -0.297738E-07  0.424E-04    3.62      37.8  T
   6    -51.8906601 -0.122553E-08  0.169E-04    3.62      94.7  T
     SCC iter.                  ...        0 min,  0.008 sec
     gradient                   ...        0 min,  0.050 sec
 * total energy  :   -51.1325028 Eh     change       -0.2975157E-04 Eh
   gradient norm :     0.0024062 Eh/α   predicted    -0.2499365E-04 ( -15.99%)
   displ. norm   :     0.1065034 α      lambda       -0.4639782E-04
   maximum displ.:     0.0649639 α      in ANC's #1, #3, #17, ...

........................................................................
.............................. CYCLE   14 ..............................
........................................................................

 iter      E             dE          RMSdq      gap      omega  full diag
   1    -51.8914783 -0.518915E+02  0.360E-02    3.61       0.0  T
   2    -51.8914794 -0.106410E-05  0.207E-02    3.61       1.0  T
   3    -51.8914793  0.676915E-07  0.340E-03    3.61       4.7  T
   4    -51.8914795 -0.180023E-06  0.912E-04    3.61      17.6  T
   5    -51.8914795 -0.159702E-07  0.512E-04    3.61      31.2  T
     SCC iter.                  ...        0 min,  0.007 sec
     gradient                   ...        0 min,  0.017 sec
 * total energy  :   -51.1325185 Eh     change       -0.1573111E-04 Eh
   gradient norm :     0.0038845 Eh/α   predicted    -0.2346231E-04 (  49.15%)
   displ. norm   :     0.0595738 α      lambda       -0.3261434E-04
   maximum displ.:     0.0309458 α      in ANC's #1, #3, #13, ...

........................................................................
.............................. CYCLE   15 ..............................
........................................................................

 iter      E             dE          RMSdq      gap      omega  full diag
   1    -51.8909438 -0.518909E+02  0.136E-02    3.62       0.0  T
   2    -51.8909440 -0.181013E-06  0.800E-03    3.62       2.0  T
   3    -51.8909440  0.301663E-07  0.152E-03    3.62      10.5  T
   4    -51.8909440 -0.516873E-07  0.472E-04    3.62      34.0  T
   5    -51.8909440 -0.532729E-08  0.237E-04    3.62      67.6  T
     SCC iter.                  ...        0 min,  0.007 sec
     gradient                   ...        0 min,  0.017 sec
 * total energy  :   -51.1325416 Eh     change       -0.2307765E-04 Eh
   gradient norm :     0.0019711 Eh/α   predicted    -0.1636536E-04 ( -29.09%)
   displ. norm   :     0.1251507 α      lambda       -0.2609908E-04
   maximum displ.:     0.0715986 α      in ANC's #1, #3, #6, ...

........................................................................
.............................. CYCLE   16 ..............................
........................................................................

 iter      E             dE          RMSdq      gap      omega  full diag
   1    -51.8906595 -0.518907E+02  0.276E-02    3.62       0.0  T
   2    -51.8906597 -0.262381E-06  0.162E-02    3.62       1.0  T
   3    -51.8906597  0.600620E-07  0.204E-03    3.62       7.8  T
   4    -51.8906598 -0.104401E-06  0.701E-04    3.62      22.8  T
   5    -51.8906598 -0.883268E-08  0.315E-04    3.62      50.9  T
     SCC iter.                  ...        0 min,  0.023 sec
     gradient                   ...        0 min,  0.017 sec
 * total energy  :   -51.1325648 Eh     change       -0.2317474E-04 Eh
   gradient norm :     0.0021236 Eh/α   predicted    -0.1314225E-04 ( -43.29%)
   displ. norm   :     0.0556260 α      lambda       -0.1416863E-04
   maximum displ.:     0.0351858 α      in ANC's #1, #3, #6, ...

........................................................................
.............................. CYCLE   17 ..............................
........................................................................

 iter      E             dE          RMSdq      gap      omega  full diag
   1    -51.8909448 -0.518909E+02  0.122E-02    3.62       0.0  T
   2    -51.8909449 -0.758873E-07  0.717E-03    3.62       2.2  T
   3    -51.8909448  0.900685E-07  0.193E-03    3.63       8.3  T
   4    -51.8909449 -0.113279E-06  0.310E-04    3.63      51.6  T
   5    -51.8909449 -0.142555E-08  0.141E-04    3.63     113.4  T
     SCC iter.                  ...        0 min,  0.007 sec
     gradient                   ...        0 min,  0.017 sec
 * total energy  :   -51.1325768 Eh     change       -0.1201609E-04 Eh
   gradient norm :     0.0015415 Eh/α   predicted    -0.7108185E-05 ( -40.84%)
   displ. norm   :     0.1313765 α      lambda       -0.2028499E-04
   maximum displ.:     0.0823589 α      in ANC's #1, #3, #6, ...

........................................................................
.............................. CYCLE   18 ..............................
........................................................................

 iter      E             dE          RMSdq      gap      omega  full diag
   1    -51.8915695 -0.518916E+02  0.268E-02    3.62       0.0  T
   2    -51.8915700 -0.494237E-06  0.157E-02    3.63       1.0  T
   3    -51.8915694  0.571110E-06  0.502E-03    3.63       3.2  T
   4    -51.8915702 -0.726542E-06  0.748E-04    3.63      21.4  T
   5    -51.8915702 -0.947792E-08  0.328E-04    3.63      48.8  T
     SCC iter.                  ...        0 min,  0.009 sec
     gradient                   ...        0 min,  0.040 sec
 * total energy  :   -51.1325943 Eh     change       -0.1757539E-04 Eh
   gradient norm :     0.0014354 Eh/α   predicted    -0.1022417E-04 ( -41.83%)
   displ. norm   :     0.0702173 α      lambda       -0.6782510E-05
   maximum displ.:     0.0499126 α      in ANC's #1, #3, #6, ...

........................................................................
.............................. CYCLE   19 ..............................
........................................................................

 iter      E             dE          RMSdq      gap      omega  full diag
   1    -51.8913293 -0.518913E+02  0.139E-02    3.62       0.0  T
   2    -51.8913294 -0.126913E-06  0.808E-03    3.63       2.0  T
   3    -51.8913294  0.256457E-07  0.137E-03    3.63      11.7  T
   4    -51.8913294 -0.412665E-07  0.318E-04    3.63      50.3  T
   5    -51.8913294 -0.204111E-08  0.148E-04    3.63     108.5  T
     SCC iter.                  ...        0 min,  0.007 sec
     gradient                   ...        0 min,  0.017 sec
 * total energy  :   -51.1326032 Eh     change       -0.8853965E-05 Eh
   gradient norm :     0.0013198 Eh/α   predicted    -0.3402374E-05 ( -61.57%)
   displ. norm   :     0.1083054 α      lambda       -0.1285050E-04
   maximum displ.:     0.0759707 α      in ANC's #1, #3, #2, ...

........................................................................
.............................. CYCLE   20 ..............................
........................................................................

 iter      E             dE          RMSdq      gap      omega  full diag
   1    -51.8911538 -0.518912E+02  0.177E-02    3.62       0.0  T
   2    -51.8911539 -0.627293E-07  0.104E-02    3.63       1.5  T
   3    -51.8911539  0.285137E-07  0.113E-03    3.63      14.1  T
   4    -51.8911539 -0.438266E-07  0.350E-04    3.63      45.7  T
   5    -51.8911539 -0.231486E-08  0.174E-04    3.63      91.9  T
     SCC iter.                  ...        0 min,  0.007 sec
     gradient                   ...        0 min,  0.053 sec
 * total energy  :   -51.1326195 Eh     change       -0.1633834E-04 Eh
   gradient norm :     0.0010580 Eh/α   predicted    -0.6461061E-05 ( -60.45%)
   displ. norm   :     0.1874661 α      lambda       -0.1973932E-04
   maximum displ.:     0.1289479 α      in ANC's #1, #3, #2, ...
 * RMSD in coord.:     0.4119622 α      energy gain  -0.1017044E-01 Eh

generating ANC from exact Hessian ...
Using Lindh-Hessian (1995)
 Shifting diagonal of input Hessian by    9.6850646961729580E-003
 Lowest  eigenvalues of input Hessian
    0.000000    0.000000    0.000000    0.000000    0.000000    0.000000
    0.010000    0.010245    0.010346    0.011170    0.011711    0.012908
    0.013685    0.015225    0.015623    0.015820    0.016636    0.018421
 Highest eigenvalues
    1.629225    1.885395    1.906480    2.016414    2.104636    2.361257


........................................................................
.............................. CYCLE   21 ..............................
........................................................................

 iter      E             dE          RMSdq      gap      omega  full diag
   1    -51.8909302 -0.518909E+02  0.308E-02    3.62       0.0  T
   2    -51.8909304 -0.207663E-06  0.181E-02    3.62       1.0  T
   3    -51.8909303  0.923731E-07  0.209E-03    3.62       7.7  T
   4    -51.8909305 -0.135494E-06  0.617E-04    3.62      26.0  T
   5    -51.8909305 -0.697058E-08  0.282E-04    3.63      56.8  T
     SCC iter.                  ...        0 min,  0.007 sec
     gradient                   ...        0 min,  0.017 sec
 * total energy  :   -51.1326439 Eh     change       -0.2438056E-04 Eh
   gradient norm :     0.0014204 Eh/α   predicted     0.0000000E+00 (-100.00%)
   displ. norm   :     0.0307493 α      lambda       -0.8253508E-05
   maximum displ.:     0.0204527 α      in ANC's #1, #8, #6, ...

........................................................................
.............................. CYCLE   22 ..............................
........................................................................

 iter      E             dE          RMSdq      gap      omega  full diag
   1    -51.8913601 -0.518914E+02  0.828E-03    3.63       0.0  T
   2    -51.8913602 -0.670595E-07  0.487E-03    3.63       3.3  T
   3    -51.8913602  0.103548E-07  0.932E-04    3.63      17.2  T
   4    -51.8913602 -0.157950E-07  0.249E-04    3.63      64.3  T
     SCC iter.                  ...        0 min,  0.006 sec
     gradient                   ...        0 min,  0.044 sec
 * total energy  :   -51.1326530 Eh     change       -0.9105524E-05 Eh
   gradient norm :     0.0004699 Eh/α   predicted    -0.4158803E-05 ( -54.33%)
   displ. norm   :     0.0543231 α      lambda       -0.7994835E-05
   maximum displ.:     0.0360119 α      in ANC's #1, #13, #2, ...

........................................................................
.............................. CYCLE   23 ..............................
........................................................................

 iter      E             dE          RMSdq      gap      omega  full diag
   1    -51.8914229 -0.518914E+02  0.115E-02    3.63       0.0  T
   2    -51.8914229 -0.771325E-07  0.677E-03    3.63       2.4  T
   3    -51.8914229  0.210466E-07  0.104E-03    3.63      15.4  T
   4    -51.8914229 -0.278753E-07  0.317E-04    3.63      50.4  T
   5    -51.8914230 -0.319937E-08  0.119E-04    3.63     135.1  T
     SCC iter.                  ...        0 min,  0.007 sec
     gradient                   ...        0 min,  0.018 sec
 * total energy  :   -51.1326617 Eh     change       -0.8707552E-05 Eh
   gradient norm :     0.0007349 Eh/α   predicted    -0.4006241E-05 ( -53.99%)
   displ. norm   :     0.0616997 α      lambda       -0.6187145E-05
   maximum displ.:     0.0423910 α      in ANC's #1, #13, #2, ...

........................................................................
.............................. CYCLE   24 ..............................
........................................................................

 iter      E             dE          RMSdq      gap      omega  full diag
   1    -51.8913467 -0.518913E+02  0.116E-02    3.63       0.0  T
   2    -51.8913467 -0.365294E-07  0.688E-03    3.63       2.3  T
   3    -51.8913467  0.116828E-07  0.791E-04    3.63      20.2  T
   4    -51.8913467 -0.169470E-07  0.262E-04    3.63      61.2  T
     SCC iter.                  ...        0 min,  0.006 sec
     gradient                   ...        0 min,  0.040 sec
 * total energy  :   -51.1326692 Eh     change       -0.7481311E-05 Eh
   gradient norm :     0.0009299 Eh/α   predicted    -0.3125586E-05 ( -58.22%)
   displ. norm   :     0.0780863 α      lambda       -0.7130327E-05
   maximum displ.:     0.0534936 α      in ANC's #1, #13, #2, ...

........................................................................
.............................. CYCLE   25 ..............................
........................................................................

 iter      E             dE          RMSdq      gap      omega  full diag
   1    -51.8913192 -0.518913E+02  0.138E-02    3.63       0.0  T
   2    -51.8913192 -0.302738E-07  0.819E-03    3.63       2.0  T
   3    -51.8913192  0.913956E-08  0.749E-04    3.63      21.4  T
   4    -51.8913192 -0.151298E-07  0.269E-04    3.63      59.6  T
     SCC iter.                  ...        0 min,  0.006 sec
     gradient                   ...        0 min,  0.017 sec
 * total energy  :   -51.1326781 Eh     change       -0.8906020E-05 Eh
   gradient norm :     0.0007774 Eh/α   predicted    -0.3574898E-05 ( -59.86%)
   displ. norm   :     0.1015133 α      lambda       -0.8484229E-05
   maximum displ.:     0.0707432 α      in ANC's #1, #13, #2, ...

........................................................................
.............................. CYCLE   26 ..............................
........................................................................

 iter      E             dE          RMSdq      gap      omega  full diag
   1    -51.8912344 -0.518912E+02  0.165E-02    3.63       0.0  T
   2    -51.8912345 -0.465853E-07  0.974E-03    3.63       1.6  T
   3    -51.8912345  0.344766E-08  0.776E-04    3.63      20.6  T
   4    -51.8912345 -0.125393E-07  0.312E-04    3.63      51.2  T
     SCC iter.                  ...        0 min,  0.006 sec
     gradient                   ...        0 min,  0.017 sec
 * total energy  :   -51.1326884 Eh     change       -0.1028845E-04 Eh
   gradient norm :     0.0005272 Eh/α   predicted    -0.4281772E-05 ( -58.38%)
   displ. norm   :     0.1009587 α      lambda       -0.7193016E-05
   maximum displ.:     0.0721381 α      in ANC's #1, #2, #13, ...

........................................................................
.............................. CYCLE   27 ..............................
........................................................................

 iter      E             dE          RMSdq      gap      omega  full diag
   1    -51.8913041 -0.518913E+02  0.155E-02    3.63       0.0  T
   2    -51.8913041 -0.347912E-07  0.917E-03    3.63       1.7  T
   3    -51.8913041  0.755428E-09  0.629E-04    3.63      25.4  T
   4    -51.8913041 -0.966246E-08  0.267E-04    3.63      60.0  T
     SCC iter.                  ...        0 min,  0.006 sec
     gradient                   ...        0 min,  0.044 sec
 * total energy  :   -51.1326971 Eh     change       -0.8687323E-05 Eh
   gradient norm :     0.0004283 Eh/α   predicted    -0.3615189E-05 ( -58.39%)
   displ. norm   :     0.0827222 α      lambda       -0.5355534E-05
   maximum displ.:     0.0610322 α      in ANC's #1, #2, #3, ...

........................................................................
.............................. CYCLE   28 ..............................
........................................................................

 iter      E             dE          RMSdq      gap      omega  full diag
   1    -51.8914369 -0.518914E+02  0.127E-02    3.63       0.0  T
   2    -51.8914370 -0.269365E-07  0.748E-03    3.63       2.1  T
   3    -51.8914370  0.992719E-08  0.703E-04    3.63      22.8  T
   4    -51.8914370 -0.174730E-07  0.234E-04    3.63      68.5  T
     SCC iter.                  ...        0 min,  0.006 sec
     gradient                   ...        0 min,  0.017 sec
 * total energy  :   -51.1327039 Eh     change       -0.6840141E-05 Eh
   gradient norm :     0.0004709 Eh/α   predicted    -0.2686431E-05 ( -60.73%)
   displ. norm   :     0.0701823 α      lambda       -0.4810691E-05
   maximum displ.:     0.0524808 α      in ANC's #1, #2, #3, ...

........................................................................
.............................. CYCLE   29 ..............................
........................................................................

 iter      E             dE          RMSdq      gap      omega  full diag
   1    -51.8915446 -0.518915E+02  0.112E-02    3.63       0.0  T
   2    -51.8915447 -0.257632E-07  0.659E-03    3.63       2.4  T
   3    -51.8915446  0.274939E-07  0.999E-04    3.63      16.0  T
   4    -51.8915447 -0.366257E-07  0.223E-04    3.63      71.8  T
     SCC iter.                  ...        0 min,  0.006 sec
     gradient                   ...        0 min,  0.044 sec
 * total energy  :   -51.1327104 Eh     change       -0.6453503E-05 Eh
   gradient norm :     0.0004758 Eh/α   predicted    -0.2411965E-05 ( -62.63%)
   displ. norm   :     0.0737385 α      lambda       -0.5495996E-05
   maximum displ.:     0.0546979 α      in ANC's #1, #2, #3, ...

........................................................................
.............................. CYCLE   30 ..............................
........................................................................

 iter      E             dE          RMSdq      gap      omega  full diag
   1    -51.8916082 -0.518916E+02  0.130E-02    3.63       0.0  T
   2    -51.8916082 -0.384552E-07  0.761E-03    3.63       2.1  T
   3    -51.8916082  0.241601E-07  0.104E-03    3.63      15.5  T
   4    -51.8916082 -0.343672E-07  0.264E-04    3.63      60.6  T
   5    -51.8916082 -0.101719E-08  0.124E-04    3.63     128.8  T
     SCC iter.                  ...        0 min,  0.007 sec
     gradient                   ...        0 min,  0.017 sec
 * total energy  :   -51.1327178 Eh     change       -0.7415643E-05 Eh
   gradient norm :     0.0004248 Eh/α   predicted    -0.2755987E-05 ( -62.84%)
   displ. norm   :     0.0861264 α      lambda       -0.6323311E-05
   maximum displ.:     0.0632831 α      in ANC's #1, #2, #3, ...

........................................................................
.............................. CYCLE   31 ..............................
........................................................................

 iter      E             dE          RMSdq      gap      omega  full diag
   1    -51.8915865 -0.518916E+02  0.162E-02    3.63       0.0  T
   2    -51.8915866 -0.588242E-07  0.949E-03    3.63       1.7  T
   3    -51.8915866  0.231201E-07  0.118E-03    3.63      13.5  T
   4    -51.8915866 -0.383031E-07  0.332E-04    3.63      48.3  T
   5    -51.8915866 -0.127395E-08  0.161E-04    3.63      99.4  T
     SCC iter.                  ...        0 min,  0.007 sec
     gradient                   ...        0 min,  0.017 sec
 * total energy  :   -51.1327262 Eh     change       -0.8356969E-05 Eh
   gradient norm :     0.0003629 Eh/α   predicted    -0.3173158E-05 ( -62.03%)
   displ. norm   :     0.0901937 α      lambda       -0.5935505E-05
   maximum displ.:     0.0668699 α      in ANC's #1, #2, #3, ...

........................................................................
.............................. CYCLE   32 ..............................
........................................................................

 iter      E             dE          RMSdq      gap      omega  full diag
   1    -51.8915325 -0.518915E+02  0.173E-02    3.63       0.0  T
   2    -51.8915326 -0.639853E-07  0.101E-02    3.63       1.6  T
   3    -51.8915325  0.913658E-08  0.943E-04    3.63      17.0  T
   4    -51.8915326 -0.231772E-07  0.318E-04    3.63      50.4  T
     SCC iter.                  ...        0 min,  0.006 sec
     gradient                   ...        0 min,  0.018 sec
 * total energy  :   -51.1327340 Eh     change       -0.7811054E-05 Eh
   gradient norm :     0.0002841 Eh/α   predicted    -0.2981873E-05 ( -61.82%)
   displ. norm   :     0.0789967 α      lambda       -0.4696446E-05
   maximum displ.:     0.0590483 α      in ANC's #1, #2, #3, ...

........................................................................
.............................. CYCLE   33 ..............................
........................................................................

 iter      E             dE          RMSdq      gap      omega  full diag
   1    -51.8915055 -0.518915E+02  0.154E-02    3.63       0.0  T
   2    -51.8915055 -0.449244E-07  0.898E-03    3.63       1.8  T
   3    -51.8915055  0.164851E-07  0.895E-04    3.63      17.9  T
   4    -51.8915055 -0.276808E-07  0.281E-04    3.63      57.0  T
     SCC iter.                  ...        0 min,  0.006 sec
     gradient                   ...        0 min,  0.018 sec
 * total energy  :   -51.1327403 Eh     change       -0.6287500E-05 Eh
   gradient norm :     0.0002589 Eh/α   predicted    -0.2355665E-05 ( -62.53%)
   displ. norm   :     0.0708197 α      lambda       -0.4062884E-05
   maximum displ.:     0.0534848 α      in ANC's #1, #2, #3, ...

........................................................................
.............................. CYCLE   34 ..............................
........................................................................

 iter      E             dE          RMSdq      gap      omega  full diag
   1    -51.8914697 -0.518915E+02  0.134E-02    3.63       0.0  T
   2    -51.8914698 -0.300287E-07  0.785E-03    3.63       2.0  T
   3    -51.8914697  0.295113E-07  0.931E-04    3.63      17.2  T
   4    -51.8914698 -0.392621E-07  0.225E-04    3.63      71.2  T
     SCC iter.                  ...        0 min,  0.006 sec
     gradient                   ...        0 min,  0.017 sec
 * total energy  :   -51.1327458 Eh     change       -0.5536543E-05 Eh
   gradient norm :     0.0002336 Eh/α   predicted    -0.2036619E-05 ( -63.21%)
   displ. norm   :     0.0690838 α      lambda       -0.3844827E-05
   maximum displ.:     0.0520771 α      in ANC's #1, #3, #2, ...

........................................................................
.............................. CYCLE   35 ..............................
........................................................................

 iter      E             dE          RMSdq      gap      omega  full diag
   1    -51.8914634 -0.518915E+02  0.130E-02    3.63       0.0  T
   2    -51.8914634 -0.305286E-07  0.760E-03    3.63       2.1  T
   3    -51.8914634  0.493895E-07  0.116E-03    3.63      13.8  T
   4    -51.8914634 -0.612100E-07  0.203E-04    3.64      78.7  T
   5    -51.8914634 -0.471175E-09  0.961E-05    3.64     166.6  T
     SCC iter.                  ...        0 min,  0.007 sec
     gradient                   ...        0 min,  0.017 sec
 * total energy  :   -51.1327510 Eh     change       -0.5234151E-05 Eh
   gradient norm :     0.0002003 Eh/α   predicted    -0.1927660E-05 ( -63.17%)
   displ. norm   :     0.0689061 α      lambda       -0.3539171E-05
   maximum displ.:     0.0522720 α      in ANC's #1, #3, #2, ...

........................................................................
.............................. CYCLE   36 ..............................
........................................................................

 iter      E             dE          RMSdq      gap      omega  full diag
   1    -51.8914569 -0.518915E+02  0.125E-02    3.64       0.0  T
   2    -51.8914569 -0.268524E-07  0.731E-03    3.64       2.2  T
   3    -51.8914568  0.501116E-07  0.119E-03    3.64      13.4  T
   4    -51.8914569 -0.615897E-07  0.185E-04    3.64      86.6  T
   5    -51.8914569 -0.267896E-09  0.811E-05    3.64     197.4  T
     SCC iter.                  ...        0 min,  0.007 sec
     gradient                   ...        0 min,  0.017 sec
 * total energy  :   -51.1327558 Eh     change       -0.4749402E-05 Eh
   gradient norm :     0.0001881 Eh/α   predicted    -0.1776305E-05 ( -62.60%)
   displ. norm   :     0.0600534 α      lambda       -0.2714457E-05
   maximum displ.:     0.0460471 α      in ANC's #1, #3, #2, ...

   *** GEOMETRY OPTIMIZATION CONVERGED AFTER 36 ITERATIONS ***

------------------------------------------------------------------------
 total energy gain   :        -0.0103067 Eh       -6.4675 kcal/mol
 total RMSD          :         0.5250930 a0        0.2779 Å
 total power (kW/mol):        -0.7516717 (step)  -17.6946 (real)
------------------------------------------------------------------------

 ANCopt (total)                0 d,  0 h,  0 min,  1.529 sec
 optimizer setup                ...        0 min,  0.000 sec (  0.005%)
 model hessian                  ...        0 min,  0.036 sec (  2.346%)
 ANC generation                 ...        0 min,  0.003 sec (  0.171%)
 coordinate transformation      ...        0 min,  0.000 sec (  0.017%)
 single point calculation       ...        0 min,  1.481 sec ( 96.848%)
 optimization log               ...        0 min,  0.006 sec (  0.367%)
 hessian update                 ...        0 min,  0.000 sec (  0.029%)
 rational function              ...        0 min,  0.002 sec (  0.142%)

================
 final structure:
================
39
 xtb: 6.7.1 (edcfbbe)
C           -1.15638162442791       -2.16336649802072       -0.70700974692976
C           -2.26184893713722       -1.14835697404891       -0.72846409478017
C           -3.52461887451820       -1.49345881154855       -1.18191767663347
C           -4.54499730534140       -0.55964651907184       -1.20700570928969
C           -4.31255476755605        0.72248382289915       -0.74940925360388
C           -3.06413392065914        1.10260713415037       -0.27263937570855
C           -2.85794357822179        2.47803464672855        0.27558839741126
C           -2.03038985993655        0.16230597524829       -0.29345791252069
N           -0.74004053830886        0.49065275107129        0.17024888992700
C            0.05209737174911        1.51279787798022       -0.22852496494064
C            1.41050001132790        1.46487066224964        0.47903120749003
N            1.88961479919798        0.09527928096187        0.56479064817203
C            2.34138266602624       -0.40262974812481       -0.72945971978962
C            3.69672548362600        0.10922090245440       -1.22554120861648
C            2.81745188557195       -0.11989350738107        1.66589549435651
C            3.10417810137832       -1.59968276930714        1.89494921046407
O           -0.24784289174930        2.38155310612428       -1.01752760876149
H           -0.84151762425607       -2.37390913691352        0.31646053546874
H           -0.28965142117762       -1.80407254078438       -1.25951053156708
H           -1.49118109218967       -3.09514208862388       -1.15536581267552
H           -3.70716107204757       -2.50140806086706       -1.52561463264878
H           -5.52249940307439       -0.83642195005007       -1.57275316961542
H           -5.11521916778585        1.44544689232085       -0.74840397848912
H           -2.24293852903738        3.06590034612230       -0.40520274659647
H           -2.33555892199638        2.43377076814580        1.23093297594735
H           -3.81151949970217        2.98104800895955        0.41440848700281
H           -0.23570395018436       -0.23780134904457        0.66493084973357
H            1.25818200794236        1.85281400600444        1.49090980570878
H            2.09651199647683        2.14816309175023       -0.04010929135875
H            2.36831996202984       -1.49435256701767       -0.67464934442256
H            1.57495674412713       -0.12226435241324       -1.45762252905630
H            3.71179435700950        1.19557529764938       -1.26694256830912
H            3.87631596209359       -0.27031527835668       -2.22794006327007
H            4.50612015010111       -0.22752935055444       -0.58243805001209
H            2.33711332271307        0.28181595901696        2.56364128909510
H            3.76561416530690        0.42385735337914        1.52863643602389
H            3.63790797360018       -1.72346993720829        2.83393791506755
H            2.17289162366776       -2.15815695871712        1.94826735036140
H            3.71622439536151       -2.01641948516509        1.09998049737336

 Bond Distances (Angstroems)
 ---------------------------
C1-C2=1.5009         C1-H18=1.0913        C1-H19=1.0888        C1-H20=1.0869        C2-C1=1.5009         C2-C3=1.3854         
C2-C8=1.4002         C3-C2=1.3854         C3-C4=1.3834         C3-H21=1.0805        C4-C3=1.3834         C4-C5=1.3810         
C4-H22=1.0798        C5-C4=1.3810         C5-C6=1.3894         C5-H23=1.0803        C6-C5=1.3894         C6-C7=1.4949         
C6-C8=1.3976         C7-C6=1.4949         C7-H24=1.0896        C7-H25=1.0897        C7-H26=1.0870        C8-C2=1.4002         
C8-C6=1.3976         C8-N9=1.4099         N9-C8=1.4099         N9-C10=1.3532        N9-H27=1.0147        C10-N9=1.3532        
C10-C11=1.5324       C10-O17=1.2113       C11-C10=1.5324       C11-N12=1.4535       C11-H28=1.0943       C11-H29=1.0986       
N12-C11=1.4535       N12-C13=1.4585       N12-C15=1.4559       C13-N12=1.4585       C13-C14=1.5314       C13-H30=1.0934       
C13-H31=1.0937       C14-C13=1.5314       C14-H32=1.0872       C14-H33=1.0868       C14-H34=1.0872       C15-N12=1.4559       
C15-C16=1.5246       C15-H35=1.0946       C15-H36=1.1016       C16-C15=1.5246       C16-H37=1.0871       C16-H38=1.0872       
C16-H39=1.0864       O17-C10=1.2113       H18-C1=1.0913        H19-C1=1.0888        H20-C1=1.0869        H21-C3=1.0805        
H22-C4=1.0798        H23-C5=1.0803        H24-C7=1.0896        H25-C7=1.0897        H26-C7=1.0870        H27-N9=1.0147        
H28-C11=1.0943       H29-C11=1.0986       H30-C13=1.0934       H31-C13=1.0937       H32-C14=1.0872       H33-C14=1.0868       
H34-C14=1.0872       H35-C15=1.0946       H36-C15=1.1016       H37-C16=1.0871       H38-C16=1.0872       H39-C16=1.0864       
 C  H  Rav=1.0892 sigma=0.0055  Rmin=1.0798  Rmax=1.1016    21
 C  C  Rav=1.4474 sigma=0.0645  Rmin=1.3810  Rmax=1.5324    11
 N  H  Rav=1.0147 sigma=0.0000  Rmin=1.0147  Rmax=1.0147     1
 N  C  Rav=1.4262 sigma=0.0406  Rmin=1.3532  Rmax=1.4585     5
 O  C  Rav=1.2113 sigma=0.0000  Rmin=1.2113  Rmax=1.2113     1

 selected bond angles (degree)
 --------------------
H18-C1-C2=110.88               H19-C1-C2=110.85               H19-C1-H18=108.05              H20-C1-C2=110.30               
H20-C1-H18=108.08              H20-C1-H19=108.59              C3-C2-C1=120.50                C8-C2-C1=120.45                
C8-C2-C3=119.05                C4-C3-C2=120.67                H21-C3-C2=119.37               H21-C3-C4=119.96               
C5-C4-C3=119.77                H22-C4-C3=120.06               H22-C4-C5=120.17               C6-C5-C4=121.26                
H23-C5-C4=119.77               H23-C5-C6=118.96               C7-C6-C5=120.10                C8-C6-C5=118.39                
C8-C6-C7=121.50                H24-C7-C6=110.19               H25-C7-C6=110.50               H25-C7-H24=107.40              
H26-C7-C6=110.58               H26-C7-H24=108.98              H26-C7-H25=109.11              C6-C8-C2=120.81                
N9-C8-C2=118.13                N9-C8-C6=121.02                C10-N9-C8=127.93               H27-N9-C8=116.62               
H27-N9-C10=113.26              C11-C10-N9=111.05              O17-C10-N9=126.07              O17-C10-C11=122.87             

 selected dihedral angles (degree)
 ---------------------------------
C3-C2-C1-H18=244.94           C3-C2-C1-H19=124.93           C3-C2-C1-H20=  4.63           C8-C2-C1-H18= 65.10           
C8-C2-C1-H19=305.10           C8-C2-C1-H20=184.79           C4-C3-C2-C1=180.20            C4-C3-C2-C8=  0.03            
H21-C3-C2-C1=359.72           H21-C3-C2-C8=179.55           C5-C4-C3-C2=358.62            C5-C4-C3-H21=179.10           
H22-C4-C3-C2=179.32           H22-C4-C3-H21=359.80          C6-C5-C4-C3=  0.63            C6-C5-C4-H22=179.93           
H23-C5-C4-C3=181.36           H23-C5-C4-H22=  0.66          C7-C6-C5-C4=182.85            C7-C6-C5-H23=  2.13           
C8-C6-C5-C4=  1.44            C8-C6-C5-H23=180.71           H24-C7-C6-C5=250.78           H24-C7-C6-C8= 72.24           
H25-C7-C6-C5=132.25           H25-C7-C6-C8=313.71           H26-C7-C6-C5= 11.33           H26-C7-C6-C8=192.79           
C6-C8-C2-C1=181.92            C6-C8-C2-C3=  2.09            N9-C8-C2-C1=359.53            N9-C8-C2-C3=179.69            
C2-C8-C6-C5=357.20            C2-C8-C6-C7=175.76            N9-C8-C6-C5=179.66            N9-C8-C6-C7=358.23            
C10-N9-C8-C2=127.39           C10-N9-C8-C6=304.99           H27-N9-C8-C2=325.47           H27-N9-C8-C6=143.07           
C11-C10-N9-C8=183.06          C11-C10-N9-H27=345.48         O17-C10-N9-C8=  4.37          O17-C10-N9-H27=166.79         
           -------------------------------------------------
          |                Final Singlepoint                |
           -------------------------------------------------

          ...................................................
          :                      SETUP                      :
          :.................................................:
          :  # basis functions                  90          :
          :  # atomic orbitals                  90          :
          :  # shells                           56          :
          :  # electrons                        94          :
          :  max. iterations                   250          :
          :  Hamiltonian                  GFN2-xTB          :
          :  restarted?                      false          :
          :  GBSA solvation                  false          :
          :  PC potential                    false          :
          :  electronic temp.          300.0000000     K    :
          :  accuracy                    1.0000000          :
          :  -> integral cutoff          0.2500000E+02      :
          :  -> integral neglect         0.1000000E-07      :
          :  -> SCF convergence          0.1000000E-05 Eh   :
          :  -> wf. convergence          0.1000000E-03 e    :
          :  Broyden damping             0.4000000          :
          :  net charge                          0          :
          :  unpaired electrons                  0          :
          ...................................................

 iter      E             dE          RMSdq      gap      omega  full diag
   1    -51.8914569 -0.518915E+02  0.300E-05    3.64       0.0  T
   2    -51.8914569 -0.515143E-11  0.178E-05    3.64     900.2  T
   3    -51.8914569 -0.710543E-12  0.104E-05    3.64    1543.0  T

   *** convergence criteria satisfied after 3 iterations ***

         #    Occupation            Energy/Eh            Energy/eV
      -------------------------------------------------------------
         1        2.0000           -0.6940208             -18.8853
       ...           ...                  ...                  ...
        41        2.0000           -0.4323669             -11.7653
        42        2.0000           -0.4223530             -11.4928
        43        2.0000           -0.4150409             -11.2938
        44        2.0000           -0.3936251             -10.7111
        45        2.0000           -0.3853685             -10.4864
        46        2.0000           -0.3751682             -10.2088
        47        2.0000           -0.3582925              -9.7496 (HOMO)
        48                         -0.2246865              -6.1140 (LUMO)
        49                         -0.2128061              -5.7907
        50                         -0.1926377              -5.2419
        51                         -0.0871241              -2.3708
        52                          0.0082612               0.2248
       ...                                ...                  ...
        90                          0.6818117              18.5530
      -------------------------------------------------------------
                  HL-Gap            0.1336060 Eh            3.6356 eV
             Fermi-level           -0.2914895 Eh           -7.9318 eV

 SCC (total)                   0 d,  0 h,  0 min,  0.045 sec
 SCC setup                      ...        0 min,  0.000 sec (  0.546%)
 Dispersion                     ...        0 min,  0.000 sec (  0.672%)
 classical contributions        ...        0 min,  0.000 sec (  0.255%)
 integral evaluation            ...        0 min,  0.006 sec ( 12.368%)
 iterations                     ...        0 min,  0.004 sec (  9.556%)
 molecular gradient             ...        0 min,  0.035 sec ( 76.326%)
 printout                       ...        0 min,  0.000 sec (  0.262%)

         :::::::::::::::::::::::::::::::::::::::::::::::::::::
         ::                     SUMMARY                     ::
         :::::::::::::::::::::::::::::::::::::::::::::::::::::
         :: total energy             -51.132755783452 Eh    ::
         :: gradient norm              0.000188805279 Eh/a0 ::
         :: HOMO-LUMO gap              3.635604805396 eV    ::
         ::.................................................::
         :: SCC energy               -51.891054292486 Eh    ::
         :: -> isotropic ES            0.047284210106 Eh    ::
         :: -> anisotropic ES          0.007314840360 Eh    ::
         :: -> anisotropic XC          0.027631087046 Eh    ::
         :: -> dispersion             -0.037250243537 Eh    ::
         :: repulsion energy           0.758298509034 Eh    ::
         :: add. restraining           0.000000000000 Eh    ::
         :: total charge               0.000000000000 e     ::
         :::::::::::::::::::::::::::::::::::::::::::::::::::::

           -------------------------------------------------
          |                Property Printout                |
           -------------------------------------------------

    * Orbital Energies and Occupations

         #    Occupation            Energy/Eh            Energy/eV
      -------------------------------------------------------------
         1        2.0000           -0.6940208             -18.8853
       ...           ...                  ...                  ...
        35        2.0000           -0.4664311             -12.6922
        36        2.0000           -0.4557366             -12.4012
        37        2.0000           -0.4500270             -12.2459
        38        2.0000           -0.4476054             -12.1800
        39        2.0000           -0.4443395             -12.0911
        40        2.0000           -0.4408607             -11.9964
        41        2.0000           -0.4323669             -11.7653
        42        2.0000           -0.4223530             -11.4928
        43        2.0000           -0.4150409             -11.2938
        44        2.0000           -0.3936251             -10.7111
        45        2.0000           -0.3853685             -10.4864
        46        2.0000           -0.3751682             -10.2088
        47        2.0000           -0.3582925              -9.7496 (HOMO)
        48                         -0.2246865              -6.1140 (LUMO)
        49                         -0.2128061              -5.7907
        50                         -0.1926377              -5.2419
        51                         -0.0871241              -2.3708
        52                          0.0082612               0.2248
        53                          0.0215560               0.5866
        54                          0.0608003               1.6545
        55                          0.0881429               2.3985
        56                          0.0945362               2.5725
        57                          0.1051972               2.8626
        58                          0.1115667               3.0359
       ...                                ...                  ...
        90                          0.6818117              18.5530
      -------------------------------------------------------------
                  HL-Gap            0.1336060 Eh            3.6356 eV
             Fermi-level           -0.2914895 Eh           -7.9318 eV

     #   Z          covCN         q      C6AA      α(0)
     1   6 C        3.757    -0.109    22.637     6.784
     2   6 C        2.969    -0.004    28.114     8.697
     3   6 C        2.925    -0.045    29.116     8.849
     4   6 C        2.915    -0.038    28.946     8.822
     5   6 C        2.927    -0.044    29.084     8.844
     6   6 C        2.965     0.013    27.710     8.634
     7   6 C        3.758    -0.111    22.677     6.789
     8   6 C        2.914     0.056    26.751     8.481
     9   7 N        2.697    -0.167    24.606     7.367
    10   6 C        2.748     0.271    22.422     7.753
    11   6 C        3.763    -0.023    21.021     6.535
    12   7 N        2.726    -0.194    25.197     7.455
    13   6 C        3.751     0.009    20.480     6.454
    14   6 C        3.750    -0.107    22.605     6.781
    15   6 C        3.748     0.016    20.370     6.437
    16   6 C        3.752    -0.108    22.624     6.783
    17   8 O        0.857    -0.427    22.236     6.322
    18   1 H        0.924     0.039     2.457     2.451
    19   1 H        0.925     0.047     2.358     2.401
    20   1 H        0.925     0.045     2.377     2.411
    21   1 H        0.926     0.031     2.574     2.509
    22   1 H        0.926     0.032     2.563     2.504
    23   1 H        0.926     0.035     2.519     2.482
    24   1 H        0.925     0.081     1.968     2.194
    25   1 H        0.925     0.039     2.469     2.457
    26   1 H        0.925     0.039     2.459     2.452
    27   1 H        0.860     0.193     1.142     1.674
    28   1 H        0.924     0.045     2.383     2.414
    29   1 H        0.923     0.039     2.463     2.454
    30   1 H        0.924     0.036     2.510     2.477
    31   1 H        0.924     0.033     2.540     2.492
    32   1 H        0.925     0.037     2.489     2.467
    33   1 H        0.925     0.036     2.508     2.477
    34   1 H        0.925     0.035     2.517     2.481
    35   1 H        0.924     0.030     2.589     2.516
    36   1 H        0.923     0.015     2.813     2.623
    37   1 H        0.925     0.040     2.453     2.449
    38   1 H        0.925     0.042     2.419     2.432
    39   1 H        0.925     0.042     2.423     2.434

 Mol. C6AA /au·bohr⁶  :      13883.504585
 Mol. C8AA /au·bohr⁸  :     311507.952488
 Mol. α(0) /au        :        181.041970


Wiberg/Mayer (AO) data.
largest (>0.10) Wiberg bond orders for each atom

 ---------------------------------------------------------------------------
     #   Z sym  total        # sym  WBO       # sym  WBO       # sym  WBO
 ---------------------------------------------------------------------------
     1   6 C    3.996 --     2 C    1.025    20 H    0.984    19 H    0.972
                            18 H    0.969
     2   6 C    3.988 --     3 C    1.426     8 C    1.355     1 C    1.025
                             5 C    0.103
     3   6 C    3.990 --     4 C    1.429     2 C    1.426    21 H    0.968
                             6 C    0.101
     4   6 C    3.992 --     5 C    1.447     3 C    1.429    22 H    0.971
     5   6 C    3.991 --     4 C    1.447     6 C    1.406    23 H    0.968
                             2 C    0.103
     6   6 C    3.988 --     5 C    1.406     8 C    1.363     7 C    1.033
                             3 C    0.101
     7   6 C    3.994 --     6 C    1.033    26 H    0.985    25 H    0.974
                            24 H    0.953
     8   6 C    3.959 --     6 C    1.363     2 C    1.355     9 N    1.038
     9   7 N    3.479 --    10 C    1.234     8 C    1.038    27 H    0.910
                            17 O    0.183
    10   6 C    3.952 --    17 O    1.696     9 N    1.234    11 C    0.944
    11   6 C    3.984 --    12 N    1.004    29 H    0.961    28 H    0.955
                            10 C    0.944
    12   7 N    3.141 --    11 C    1.004    13 C    1.000    15 C    0.998
    13   6 C    3.986 --    14 C    1.006    12 N    1.000    30 H    0.972
                            31 H    0.971
    14   6 C    3.997 --    13 C    1.006    34 H    0.986    33 H    0.986
                            32 H    0.984
    15   6 C    3.987 --    16 C    1.016    12 N    0.998    35 H    0.973
                            36 H    0.966
    16   6 C    3.996 --    15 C    1.016    38 H    0.987    37 H    0.986
                            39 H    0.985
    17   8 O    2.019 --    10 C    1.696     9 N    0.183
    18   1 H    0.998 --     1 C    0.969
    19   1 H    0.998 --     1 C    0.972
    20   1 H    0.998 --     1 C    0.984
    21   1 H    0.998 --     3 C    0.968
    22   1 H    0.999 --     4 C    0.971
    23   1 H    0.998 --     5 C    0.968
    24   1 H    0.993 --     7 C    0.953
    25   1 H    0.998 --     7 C    0.974
    26   1 H    0.998 --     7 C    0.985
    27   1 H    0.962 --     9 N    0.910
    28   1 H    0.998 --    11 C    0.955
    29   1 H    0.998 --    11 C    0.961
    30   1 H    0.999 --    13 C    0.972
    31   1 H    0.999 --    13 C    0.971
    32   1 H    0.999 --    14 C    0.984
    33   1 H    0.999 --    14 C    0.986
    34   1 H    0.999 --    14 C    0.986
    35   1 H    0.999 --    15 C    0.973
    36   1 H    1.000 --    15 C    0.966
    37   1 H    0.998 --    16 C    0.986
    38   1 H    0.998 --    16 C    0.987
    39   1 H    0.998 --    16 C    0.985
 ---------------------------------------------------------------------------

Topologies differ in total number of bonds
Writing topology from bond orders to xtbtopo.mol

molecular dipole:
                 x           y           z       tot (Debye)
 q only:        0.334      -1.119       0.860
   full:        0.793      -1.155       0.986       4.354
molecular quadrupole (traceless):
                xx          xy          yy          xz          yz          zz
 q only:        4.803      -1.219      -3.854       0.174       5.369      -0.949
  q+dip:        7.812       0.614      -4.700       1.011       7.972      -3.112
   full:        6.562       0.289      -5.360       0.154       7.582      -1.202

           -------------------------------------------------
          |                Geometry Summary                 |
           -------------------------------------------------

      molecular mass/u    :      234.3378104
   center of mass at/Å    :       -0.4371340       0.1879236      -0.1746511
  moments of inertia/u·Å² :        0.6087524E+03   0.1875024E+04   0.2151561E+04
rotational constants/cm⁻¹ :        0.2769210E-01   0.8990623E-02   0.7835071E-02

 * 36 selected distances

     #   Z          #   Z                                           value/Å
     2   6 C        3   6 C                                       1.3853894
     3   6 C        4   6 C                                       1.3834042
     4   6 C        5   6 C                                       1.3810440
     5   6 C        6   6 C                                       1.3893733
     2   6 C        8   6 C                                       1.4002291
     6   6 C        8   6 C                                       1.3975789
     8   6 C        9   7 N                                       1.4099069
     9   7 N       10   6 C                                       1.3532494
    11   6 C       12   7 N                                       1.4535084
    12   7 N       13   6 C                                       1.4584554
    13   6 C       14   6 C                                       1.5313532 (max)
    12   7 N       15   6 C                                       1.4558892
    15   6 C       16   6 C                                       1.5246161
    10   6 C       17   8 O                                       1.2112907
     1   6 C       18   1 H                                       1.0913108
     1   6 C       19   1 H                                       1.0888392
     1   6 C       20   1 H                                       1.0868854
     3   6 C       21   1 H                                       1.0804680
     4   6 C       22   1 H                                       1.0797622
     5   6 C       23   1 H                                       1.0802532
     7   6 C       24   1 H                                       1.0896303
     7   6 C       25   1 H                                       1.0897378
     7   6 C       26   1 H                                       1.0870146
     9   7 N       27   1 H                                       1.0147469 (min)
    11   6 C       28   1 H                                       1.0943488
    11   6 C       29   1 H                                       1.0986392
    13   6 C       30   1 H                                       1.0934298
    13   6 C       31   1 H                                       1.0937252
    14   6 C       32   1 H                                       1.0872475
    14   6 C       33   1 H                                       1.0867861
    14   6 C       34   1 H                                       1.0872453
    15   6 C       35   1 H                                       1.0945517
    15   6 C       36   1 H                                       1.1015975
    16   6 C       37   1 H                                       1.0871480
    16   6 C       38   1 H                                       1.0872125
    16   6 C       39   1 H                                       1.0863911

 * 5 distinct bonds (by element types)

   Z      Z             #   av. dist./Å        max./Å        min./Å
   1 H    6 C          21     1.0891535     1.1015975     1.0797622
   6 C    6 C           8     1.4241235     1.5313532     1.3810440
   1 H    7 N           1     1.0147469     1.0147469     1.0147469
   6 C    7 N           5     1.4262018     1.4584554     1.3532494
   6 C    8 O           1     1.2112907     1.2112907     1.2112907


optimized geometry written to: xtbopt.xyz


           -------------------------------------------------
          | TOTAL ENERGY              -51.132755783452 Eh   |
          | GRADIENT NORM               0.000188805279 Eh/α |
          | HOMO-LUMO GAP               3.635604805396 eV   |
           -------------------------------------------------

------------------------------------------------------------------------
 * finished run on 2025/05/15 at 16:09:19.294     
------------------------------------------------------------------------
 total:
 * wall-time:     0 d,  0 h,  0 min,  1.639 sec
 *  cpu-time:     0 d,  0 h,  0 min,  1.237 sec
 * ratio c/w:     0.754 speedup
 SCF:
 * wall-time:     0 d,  0 h,  0 min,  0.051 sec
 *  cpu-time:     0 d,  0 h,  0 min,  0.042 sec
 * ratio c/w:     0.821 speedup
 ANC optimizer:
 * wall-time:     0 d,  0 h,  0 min,  1.577 sec
 *  cpu-time:     0 d,  0 h,  0 min,  1.184 sec
 * ratio c/w:     0.751 speedup



----- Single-point -----
      -----------------------------------------------------------      
     |                   =====================                   |     
     |                           x T B                           |     
     |                   =====================                   |     
     |                         S. Grimme                         |     
     |          Mulliken Center for Theoretical Chemistry        |     
     |                    University of Bonn                     |     
      -----------------------------------------------------------      

   * xtb version 6.7.1 (edcfbbe) compiled by 'conda@3ef47c1a292c' on 2024-11-25

   xtb is free software: you can redistribute it and/or modify it under
   the terms of the GNU Lesser General Public License as published by
   the Free Software Foundation, either version 3 of the License, or
   (at your option) any later version.
   
   xtb is distributed in the hope that it will be useful,
   but WITHOUT ANY WARRANTY; without even the implied warranty of
   MERCHANTABILITY or FITNESS FOR A PARTICULAR PURPOSE.  See the
   GNU Lesser General Public License for more details.
   
   Cite this work as:
[...]
     15, 1652-1671. DOI: 10.1021/acs.jctc.8b01176
   for GFN1-xTB:
   * S. Grimme, C. Bannwarth, P. Shushkov, J. Chem. Theory Comput., 2017,
     13, 1989-2009. DOI: 10.1021/acs.jctc.7b00118
   for GFN0-xTB:
   * P. Pracht, E. Caldeweyher, S. Ehlert, S. Grimme, ChemRxiv, 2019, preprint.
     DOI: 10.26434/chemrxiv.8326202.v1
   for GFN-FF:
   * S. Spicher and S. Grimme, Angew. Chem. Int. Ed., 2020, 59, 15665-15673.
     DOI: 10.1002/anie.202004239
   
   for ALPB and GBSA implicit solvation:
   * S. Ehlert, M. Stahn, S. Spicher, S. Grimme, J. Chem. Theory Comput.,
     2021, 17, 4250-4261. DOI: 10.1021/acs.jctc.1c00471
   
   for ddCOSMO and CPCM-X implicit solvation:
   * M. Stahn, S. Ehlert, S. Grimme, J. Phys. Chem. A,
     2023, XX, XXXX-XXXX. DOI: 10.1021/acs.jpca.3c04382
   
   for DFT-D4:
   * E. Caldeweyher, C. Bannwarth and S. Grimme, J. Chem. Phys., 2017,
     147, 034112. DOI: 10.1063/1.4993215
   * E. Caldeweyher, S. Ehlert, A. Hansen, H. Neugebauer, S. Spicher,
     C. Bannwarth and S. Grimme, J. Chem. Phys., 2019, 150, 154122.
     DOI: 10.1063/1.5090222
   * E. Caldeweyher, J.-M. Mewes, S. Ehlert and S. Grimme, Phys. Chem. Chem. Phys.
     2020, 22, 8499-8512. DOI: 10.1039/D0CP00502A
   
   for sTDA-xTB:
   * S. Grimme and C. Bannwarth, J. Chem. Phys., 2016, 145, 054103.
     DOI: 10.1063/1.4959605
   
   in the mass-spec context:
   * V. Asgeirsson, C. Bauer and S. Grimme, Chem. Sci., 2017, 8, 4879.
     DOI: 10.1039/c7sc00601b
   * J. Koopman and S. Grimme, ACS Omega 2019, 4, 12, 15120-15133.
     DOI: 10.1021/acsomega.9b02011
   
   for metadynamics refer to:
   * S. Grimme, J. Chem. Theory Comput., 2019, 155, 2847-2862
     DOI: 10.1021/acs.jctc.9b00143
   
   for SPH calculations refer to:
   * S. Spicher and S. Grimme, J. Chem. Theory Comput., 2021, 17, 1701-1714
     DOI: 10.1021/acs.jctc.0c01306
   
   for ONIOM refer to:
   * C. Plett, A. Katbashev, S. Ehlert, S. Grimme, M. Bursch,
     Phys. Chem. Chem. Phys., 2023, 25, 17860-17868. DOI: 10.1039/D3CP02178E
   
   for DIPRO refer to:
   * J. Kohn, N. Gildemeister, S. Grimme, D. Fazzi, A. Hansen,
     J. Chem. Phys., 2023, just accepted.
   
   for PTB refer to:
   * S. Grimme, M. Mueller, A. Hansen, J. Chem. Phys., 2023, 158, 124111.
     DOI: 10.1063/5.0137838
   
   with help from (in alphabetical order)
   P. Atkinson, C. Bannwarth, F. Bohle, G. Brandenburg, E. Caldeweyher
   M. Checinski, S. Dohm, S. Ehlert, S. Ehrlich, I. Gerasimov, C. Hölzer
   A. Katbashev, J. Kohn, J. Koopman, C. Lavigne, S. Lehtola, F. März, M. Müller,
   F. Musil, H. Neugebauer, J. Pisarek, C. Plett, P. Pracht, F. Pultar,
   J. Seibert, P. Shushkov, S. Spicher, M. Stahn, M. Steiner, T. Strunk,
   J. Stückrath, T. Rose, and J. Unsleber
   
 * started run on 2025/05/15 at 16:09:20.715     
   ID    Z sym.   atoms
    1    6 C      1-8, 10, 11, 13-16
    2    7 N      9, 12
    3    8 O      17
    4    1 H      18-39

           -------------------------------------------------
          |                Calculation Setup                |
           -------------------------------------------------

          program call               : xtb /rds/general/user/hgt20/home/callum/QDESCP/Lidocaine_rdkit_conf_5/Lidocaine_rdkit_conf_5.xyz --acc 1 --gfn 2 --chrg 0 --uhf 2 --etemp 300 --input /rds/general/user/hgt20/home/callum/QDESCP/Lidocaine_rdkit_conf_5/Lidocaine_rdkit_conf_5_xtb.inp -P 1
          hostname                   : login-c
          coordinate file            : /rds/general/user/hgt20/home/callum/QDESCP/Lidocaine_rdkit_conf_5/Lidocaine_rdkit_conf_5.xyz
          omp threads                :                     1


           -------------------------------------------------
          |                 G F N 2 - x T B                 |
           -------------------------------------------------

        Reference                      10.1021/acs.jctc.8b01176
      * Hamiltonian:
        H0-scaling (s, p, d)           1.850000    2.230000    2.230000
        zeta-weighting                 0.500000
      * Dispersion:
        s8                             2.700000
        a1                             0.520000
        a2                             5.000000
        s9                             5.000000
      * Repulsion:
        kExp                           1.500000    1.000000
        rExp                           1.000000
      * Coulomb:
        alpha                          2.000000
        third order                    shell-resolved
        anisotropic                    true
        a3                             3.000000
        a5                             4.000000
        cn-shift                       1.200000
        cn-exp                         4.000000
        max-rad                        5.000000


          ...................................................
          :                      SETUP                      :
          :.................................................:
          :  # basis functions                  90          :
          :  # atomic orbitals                  90          :
          :  # shells                           56          :
          :  # electrons                        94          :
          :  max. iterations                   250          :
          :  Hamiltonian                  GFN2-xTB          :
          :  restarted?                      false          :
          :  GBSA solvation                  false          :
          :  PC potential                    false          :
          :  electronic temp.          300.0000000     K    :
          :  accuracy                    1.0000000          :
          :  -> integral cutoff          0.2500000E+02      :
          :  -> integral neglect         0.1000000E-07      :
          :  -> SCF convergence          0.1000000E-05 Eh   :
          :  -> wf. convergence          0.1000000E-03 e    :
          :  Broyden damping             0.4000000          :
          :  net charge                          0          :
          :  unpaired electrons                  2          :
          ...................................................

 iter      E             dE          RMSdq      gap      omega  full diag
   1    -51.4376010 -0.514376E+02  0.321E+00    0.14       0.0  T
   2    -51.4158475  0.217535E-01  0.332E+00    1.28       1.0  T
   3    -51.5619285 -0.146081E+00  0.202E+00    0.15       1.0  T
   4    -51.4753646  0.865639E-01  0.254E+00    1.41       1.0  T
   5    -51.6435854 -0.168221E+00  0.148E+00    0.59       1.0  T
   6    -51.6966089 -0.530235E-01  0.960E-01    0.41       1.0  T
   7    -51.7299599 -0.333510E-01  0.552E-01    0.36       1.0  T
   8    -51.7307616 -0.801730E-03  0.493E-01    0.31       1.0  T
   9    -51.7416860 -0.109244E-01  0.174E-01    0.23       1.0  T
  10    -51.7383762  0.330987E-02  0.242E-01    0.30       1.0  T
  11    -51.7421906 -0.381442E-02  0.381E-02    0.27       1.0  T
  12    -51.7422500 -0.594631E-04  0.122E-02    0.26       1.3  T
  13    -51.7422305  0.195356E-04  0.185E-02    0.27       1.0  T
  14    -51.7422546 -0.240855E-04  0.328E-03    0.26       4.9  T
  15    -51.7422531  0.151776E-05  0.526E-03    0.26       3.0  T
  16    -51.7422550 -0.190995E-05  0.726E-04    0.26      22.0  T
  17    -51.7422550  0.387831E-08  0.529E-04    0.26      30.3  T
  18    -51.7422550 -0.112275E-07  0.289E-04    0.26      55.4  T

   *** convergence criteria satisfied after 18 iterations ***

         #    Occupation            Energy/Eh            Energy/eV
      -------------------------------------------------------------
         1        2.0000           -0.6853815             -18.6502
       ...           ...                  ...                  ...
        42        2.0000           -0.4132560             -11.2453
        43        2.0000           -0.4071516             -11.0792
        44        2.0000           -0.3932745             -10.7015
        45        1.9987           -0.3763606             -10.2413
        46        1.9857           -0.3740506             -10.1784
        47        1.0156           -0.3660919              -9.9619
        48        0.9940           -0.2126030              -5.7852 (HOMO)
        49        0.0060           -0.2029004              -5.5212 (LUMO)
        50                         -0.1819381              -4.9508
        51                         -0.0761603              -2.0724
        52                         -0.0023097              -0.0629
        53                          0.0228266               0.6211
       ...                                ...                  ...
        90                          0.6920695              18.8322
      -------------------------------------------------------------
                  HL-Gap            0.0097025 Eh            0.2640 eV
             Fermi-level           -0.2888909 Eh           -7.8611 eV

 transition dipole moment (au) for excitation:          47          48
     X       Y       Z   
   1.2289   0.5974   0.2068  total (au/Debye):    1.382   3.513
 dE (eV)             :    4.177
 oscillator strength :  0.27638E+00

 SCC (total)                   0 d,  0 h,  0 min,  0.064 sec
 SCC setup                      ...        0 min,  0.000 sec (  0.444%)
 Dispersion                     ...        0 min,  0.000 sec (  0.622%)
 classical contributions        ...        0 min,  0.000 sec (  0.189%)
 integral evaluation            ...        0 min,  0.006 sec (  9.126%)
 iterations                     ...        0 min,  0.027 sec ( 42.024%)
 molecular gradient             ...        0 min,  0.018 sec ( 27.213%)
 printout                       ...        0 min,  0.013 sec ( 20.371%)

         :::::::::::::::::::::::::::::::::::::::::::::::::::::
         ::                     SUMMARY                     ::
         :::::::::::::::::::::::::::::::::::::::::::::::::::::
         :: total energy             -50.983553881091 Eh    ::
         :: gradient norm              0.150278633864 Eh/a0 ::
         :: HOMO-LUMO gap              0.264019182321 eV    ::
         ::.................................................::
         :: SCC energy               -51.741852390125 Eh    ::
         :: -> isotropic ES            0.044913884287 Eh    ::
         :: -> anisotropic ES          0.007743683706 Eh    ::
         :: -> anisotropic XC          0.025066207444 Eh    ::
         :: -> dispersion             -0.037163591053 Eh    ::
         :: repulsion energy           0.758298509034 Eh    ::
         :: add. restraining           0.000000000000 Eh    ::
         :: total charge              -0.000000000002 e     ::
         :::::::::::::::::::::::::::::::::::::::::::::::::::::

           -------------------------------------------------
          |                Property Printout                |
           -------------------------------------------------

    * Orbital Energies and Occupations

         #    Occupation            Energy/Eh            Energy/eV
      -------------------------------------------------------------
         1        2.0000           -0.6853815             -18.6502
       ...           ...                  ...                  ...
        36        2.0000           -0.4583592             -12.4726
        37        2.0000           -0.4546772             -12.3724
        38        2.0000           -0.4498827             -12.2419
        39        2.0000           -0.4448438             -12.1048
        40        2.0000           -0.4398194             -11.9681
        41        2.0000           -0.4254209             -11.5763
        42        2.0000           -0.4132560             -11.2453
        43        2.0000           -0.4071516             -11.0792
        44        2.0000           -0.3932745             -10.7015
        45        1.9987           -0.3763606             -10.2413
        46        1.9857           -0.3740506             -10.1784
        47        1.0156           -0.3660919              -9.9619
        48        0.9940           -0.2126030              -5.7852 (HOMO)
        49        0.0060           -0.2029004              -5.5212 (LUMO)
        50                         -0.1819381              -4.9508
        51                         -0.0761603              -2.0724
        52                         -0.0023097              -0.0629
        53                          0.0228266               0.6211
        54                          0.0499904               1.3603
        55                          0.0786639               2.1406
        56                          0.0986393               2.6841
        57                          0.1007302               2.7410
        58                          0.1061084               2.8874
        59                          0.1103929               3.0039
       ...                                ...                  ...
        90                          0.6920695              18.8322
      -------------------------------------------------------------
                  HL-Gap            0.0097025 Eh            0.2640 eV
             Fermi-level           -0.2888909 Eh           -7.8611 eV

     #   Z          covCN         q      C6AA      α(0)
     1   6 C        3.757    -0.107    22.601     6.778
     2   6 C        2.969    -0.015    28.392     8.740
     3   6 C        2.925    -0.043    29.059     8.840
     4   6 C        2.915    -0.049    29.204     8.862
     5   6 C        2.927    -0.054    29.351     8.885
     6   6 C        2.965     0.016    27.660     8.627
     7   6 C        3.758    -0.112    22.686     6.791
     8   6 C        2.914     0.045    26.993     8.520
     9   7 N        2.697    -0.146    24.170     7.302
    10   6 C        2.748     0.222    23.323     7.908
    11   6 C        3.763    -0.019    20.963     6.526
    12   7 N        2.726    -0.155    24.341     7.328
    13   6 C        3.751     0.004    20.565     6.467
    14   6 C        3.750    -0.107    22.616     6.782
    15   6 C        3.748     0.011    20.450     6.450
    16   6 C        3.752    -0.110    22.666     6.789
    17   8 O        0.857    -0.429    22.265     6.326
    18   1 H        0.924     0.034     2.531     2.488
    19   1 H        0.925     0.042     2.425     2.435
    20   1 H        0.925     0.043     2.412     2.429
    21   1 H        0.926     0.024     2.669     2.555
    22   1 H        0.926     0.021     2.713     2.576
    23   1 H        0.926     0.026     2.647     2.544
    24   1 H        0.925     0.091     1.871     2.139
    25   1 H        0.925     0.042     2.417     2.431
    26   1 H        0.925     0.040     2.450     2.448
    27   1 H        0.860     0.186     1.181     1.702
    28   1 H        0.924     0.042     2.428     2.437
    29   1 H        0.923     0.047     2.360     2.403
    30   1 H        0.924     0.042     2.417     2.431
    31   1 H        0.924     0.046     2.366     2.406
    32   1 H        0.925     0.042     2.426     2.436
    33   1 H        0.925     0.042     2.420     2.433
    34   1 H        0.925     0.038     2.477     2.461
    35   1 H        0.924     0.038     2.473     2.459
    36   1 H        0.923     0.028     2.618     2.530
    37   1 H        0.925     0.044     2.400     2.423
    38   1 H        0.925     0.046     2.372     2.408
    39   1 H        0.925     0.045     2.387     2.416

 Mol. C6AA /au·bohr⁶  :      13860.410035
 Mol. C8AA /au·bohr⁸  :     311371.710066
 Mol. α(0) /au        :        180.909407


Wiberg/Mayer (AO) data.
largest (>0.10) Wiberg bond orders for each atom

 ---------------------------------------------------------------------------
     #   Z sym  total        # sym  WBO       # sym  WBO       # sym  WBO
 ---------------------------------------------------------------------------
     1   6 C    3.996 --     2 C    1.027    20 H    0.985    19 H    0.969
                            18 H    0.967
     2   6 C    3.950 --     3 C    1.549     8 C    1.128     1 C    1.027
     3   6 C    3.969 --     2 C    1.549     4 C    1.266    21 H    0.969
     4   6 C    3.813 --     3 C    1.266     5 C    1.264    22 H    0.972
     5   6 C    3.968 --     6 C    1.531     4 C    1.264    23 H    0.968
     6   6 C    3.958 --     5 C    1.531     8 C    1.145     7 C    1.043
     7   6 C    3.991 --     6 C    1.043    26 H    0.984    25 H    0.969
                            24 H    0.937
     8   6 C    3.813 --     9 N    1.154     6 C    1.145     2 C    1.128
                            10 C    0.109
     9   7 N    3.496 --     8 C    1.154    10 C    1.129    27 H    0.909
                            17 O    0.122
    10   6 C    3.900 --    17 O    1.563     9 N    1.129    11 C    0.915
                             8 C    0.109
    11   6 C    3.965 --    12 N    1.012    28 H    0.956    29 H    0.956
                            10 C    0.915
    12   7 N    3.223 --    11 C    1.012    13 C    1.000    15 C    0.995
    13   6 C    3.979 --    14 C    1.001    12 N    1.000    30 H    0.969
                            31 H    0.969
    14   6 C    3.986 --    13 C    1.001    34 H    0.985    33 H    0.985
                            32 H    0.983
    15   6 C    3.979 --    16 C    1.016    12 N    0.995    35 H    0.971
                            36 H    0.960
    16   6 C    3.994 --    15 C    1.016    38 H    0.986    37 H    0.985
                            39 H    0.985
    17   8 O    2.047 --    10 C    1.563     9 N    0.122
    18   1 H    0.998 --     1 C    0.967
    19   1 H    0.997 --     1 C    0.969
    20   1 H    0.998 --     1 C    0.985
    21   1 H    0.998 --     3 C    0.969
    22   1 H    0.999 --     4 C    0.972
    23   1 H    0.998 --     5 C    0.968
    24   1 H    0.990 --     7 C    0.937
    25   1 H    0.997 --     7 C    0.969
    26   1 H    0.998 --     7 C    0.984
    27   1 H    0.965 --     9 N    0.909
    28   1 H    0.994 --    11 C    0.956
    29   1 H    0.992 --    11 C    0.956
    30   1 H    0.997 --    13 C    0.969
    31   1 H    0.997 --    13 C    0.969
    32   1 H    0.998 --    14 C    0.983
    33   1 H    0.998 --    14 C    0.985
    34   1 H    0.998 --    14 C    0.985
    35   1 H    0.998 --    15 C    0.971
    36   1 H    0.990 --    15 C    0.960
    37   1 H    0.998 --    16 C    0.985
    38   1 H    0.997 --    16 C    0.986
    39   1 H    0.998 --    16 C    0.985
 ---------------------------------------------------------------------------

Topologies differ in total number of bonds
Writing topology from bond orders to xtbtopo.mol

molecular dipole:
                 x           y           z       tot (Debye)
 q only:        1.215      -1.072       1.065
   full:        1.653      -1.136       1.226       5.976
molecular quadrupole (traceless):
                xx          xy          yy          xz          yz          zz
 q only:        3.579      -2.172      -3.676      -0.878       5.117       0.097
  q+dip:        6.585      -0.101      -4.846       0.088       7.803      -1.738
   full:        5.278      -0.423      -5.169      -0.736       7.306      -0.109


           -------------------------------------------------
          | TOTAL ENERGY              -50.983553881091 Eh   |
          | GRADIENT NORM               0.150278633864 Eh/α |
          | HOMO-LUMO GAP               0.264019182321 eV   |
           -------------------------------------------------

------------------------------------------------------------------------
 * finished run on 2025/05/15 at 16:09:20.790     
------------------------------------------------------------------------
 total:
 * wall-time:     0 d,  0 h,  0 min,  0.076 sec
 *  cpu-time:     0 d,  0 h,  0 min,  0.066 sec
 * ratio c/w:     0.872 speedup
 SCF:
 * wall-time:     0 d,  0 h,  0 min,  0.065 sec
 *  cpu-time:     0 d,  0 h,  0 min,  0.056 sec
 * ratio c/w:     0.872 speedup


