39
 energy: -51.132755783452 gnorm: 0.000188805279 xtb: 6.7.1 (edcfbbe)
C           -1.15638162442791       -2.16336649802072       -0.70700974692976
C           -2.26184893713722       -1.14835697404891       -0.72846409478017
C           -3.52461887451820       -1.49345881154855       -1.18191767663347
C           -4.54499730534140       -0.55964651907184       -1.20700570928969
C           -4.31255476755605        0.72248382289915       -0.74940925360388
C           -3.06413392065914        1.10260713415037       -0.27263937570855
C           -2.85794357822179        2.47803464672855        0.27558839741126
C           -2.03038985993655        0.16230597524829       -0.29345791252069
N           -0.74004053830886        0.49065275107129        0.17024888992700
C            0.05209737174911        1.51279787798022       -0.22852496494064
C            1.41050001132790        1.46487066224964        0.47903120749003
N            1.88961479919798        0.09527928096187        0.56479064817203
C            2.34138266602624       -0.40262974812481       -0.72945971978962
C            3.69672548362600        0.10922090245440       -1.22554120861648
C            2.81745188557195       -0.11989350738107        1.66589549435651
C            3.10417810137832       -1.59968276930714        1.89494921046407
O           -0.24784289174930        2.38155310612428       -1.01752760876149
H           -0.84151762425607       -2.37390913691352        0.31646053546874
H           -0.28965142117762       -1.80407254078438       -1.25951053156708
H           -1.49118109218967       -3.09514208862388       -1.15536581267552
H           -3.70716107204757       -2.50140806086706       -1.52561463264878
H           -5.52249940307439       -0.83642195005007       -1.57275316961542
H           -5.11521916778585        1.44544689232085       -0.74840397848912
H           -2.24293852903738        3.06590034612230       -0.40520274659647
H           -2.33555892199638        2.43377076814580        1.23093297594735
H           -3.81151949970217        2.98104800895955        0.41440848700281
H           -0.23570395018436       -0.23780134904457        0.66493084973357
H            1.25818200794236        1.85281400600444        1.49090980570878
H            2.09651199647683        2.14816309175023       -0.04010929135875
H            2.36831996202984       -1.49435256701767       -0.67464934442256
H            1.57495674412713       -0.12226435241324       -1.45762252905630
H            3.71179435700950        1.19557529764938       -1.26694256830912
H            3.87631596209359       -0.27031527835668       -2.22794006327007
H            4.50612015010111       -0.22752935055444       -0.58243805001209
H            2.33711332271307        0.28181595901696        2.56364128909510
H            3.76561416530690        0.42385735337914        1.52863643602389
H            3.63790797360018       -1.72346993720829        2.83393791506755
H            2.17289162366776       -2.15815695871712        1.94826735036140
H            3.71622439536151       -2.01641948516509        1.09998049737336
