66
 energy: -102.675447030095 gnorm: 0.000990469540 xtb: 6.7.1 (edcfbbe)
C           -6.85901032082823        1.74114653851184       -1.53688071581591
C           -6.11449306366088        0.41392428574023       -1.59050799599934
C           -6.01961357103826       -0.23175725598020       -0.19973421768364
C           -5.21393448241772        0.58847352341851        0.74141918938510
N           -5.67124539910800        1.33011338488980        1.72771283942122
C           -4.61147217675497        1.92281421740033        2.32508878249253
C           -4.74704348683091        2.84045057527164        3.48167456563211
C           -3.44747897386340        1.53359260393709        1.68456431104648
N           -3.86866468422227        0.68190809269432        0.67683087089902
N           -2.97308460781563        0.09988878786904       -0.17308151406522
C           -1.64918360433476        0.32531989684550        0.04039149970103
C           -0.68085132642202       -0.33567327884985       -0.85231323798621
C           -0.96802472619008       -1.44406080454367       -1.67838476720983
C            0.05181003181009       -1.99438029715906       -2.45293768345977
C            1.32799089636276       -1.46250543588262       -2.42889736271799
C            1.60310060891818       -0.37677298421955       -1.62136611102984
S            3.24312665435263        0.35266994434962       -1.62463834480864
O            3.17372193555170        1.61573406264281       -2.29713627148485
N            3.43919670496973        0.63248872739979        0.00782918844555
C            3.89323580149978       -0.51650900527070        0.75815949003479
C            5.41126419148200       -0.68216233467871        0.68077930653622
N            6.06868213694958        0.54034841005823        1.11581264326342
C            5.65623091360348        1.64440108102431        0.26480750410035
C            4.14620591947553        1.84073113548140        0.37409360824688
C            7.51580257792754        0.40188019613097        1.16039650915291
C            7.97125069393896       -0.46057837502045        2.33245969740429
O            4.14803514976020       -0.63745425602265       -2.14803862398517
C            0.61411005518303        0.17980424151909       -0.84378059823975
O           -2.24757531236699       -1.91912867707030       -1.68458497957832
C           -2.56508718792354       -3.15181834074091       -2.31914475969942
C           -2.06333934299908       -4.35899233573470       -1.53733420837733
N           -1.19446525011773        1.10564960413766        0.95422533636670
C           -2.02200109847013        1.78385497232431        1.84936445014860
O           -1.55424567197661        2.51099055081539        2.69793526090804
H           -6.89307710055841        2.19978643571304       -2.52213936547097
H           -6.36729047768803        2.42585829329565       -0.85053429064132
H           -7.87750880399824        1.58975569325621       -1.18877379362598
H           -5.11186035828048        0.57623717237230       -1.99586620568071
H           -6.63636561491461       -0.27241994648775       -2.26101091769232
H           -7.01933446900286       -0.33052211388633        0.22263127570749
H           -5.57940784829953       -1.23113891146193       -0.28419438785575
H           -5.33378534453639        3.71380611660387        3.19859557983680
H           -5.26682001819860        2.33950574258570        4.29713345208769
H           -3.75948988319497        3.15426379370613        3.80896499058746
H           -3.30658465125077       -0.59401961015286       -0.82884815615525
H           -0.14236949980814       -2.83996059352681       -3.09223375489081
H            2.11983702003330       -1.88438401390665       -3.02715541345190
H            3.58415986529185       -0.37553142546695        1.79775810205542
H            3.39653658720614       -1.39742693303556        0.34777650098925
H            5.71090789429867       -1.49871568455384        1.33885149815307
H            5.68444110106055       -0.93929373447134       -0.35676435923527
H            6.16654053142374        2.55197409687704        0.59528336959592
H            5.90898279143756        1.46030259838794       -0.79575002467291
H            3.87043453723392        2.08884296422282        1.40252229461144
H            3.81199885615573        2.62791251858664       -0.30100634924926
H            7.91216982356737       -0.00884554631545        0.21508518120721
H            7.93037493980410        1.40522954139662        1.28832923954753
H            7.48565326295133       -0.12359498824196        3.24406841213175
H            9.04795029487989       -0.37256111990363        2.45343539442485
H            7.73333674392509       -1.50921073665704        2.17644772766033
H            0.82564644285757        1.01999749828033       -0.20326510384506
H           -2.19574237274516       -3.16077836851572       -3.34976580011138
H           -3.65853476341161       -3.15568230687740       -2.35030423510660
H           -2.47365815949893       -4.34723830915547       -0.53052377742961
H           -2.38134280323482       -5.27032649628547       -2.03536047515849
H           -0.97874850794849       -4.35581307760348       -1.46557026937974
