----- Optimization -----
      -----------------------------------------------------------      
     |                   =====================                   |     
     |                           x T B                           |     
     |                   =====================                   |     
     |                         S. Grimme                         |     
     |          Mulliken Center for Theoretical Chemistry        |     
     |                    University of Bonn                     |     
      -----------------------------------------------------------      

   * xtb version 6.7.1 (edcfbbe) compiled by 'conda@3ef47c1a292c' on 2024-11-25

   xtb is free software: you can redistribute it and/or modify it under
   the terms of the GNU Lesser General Public License as published by
   the Free Software Foundation, either version 3 of the License, or
   (at your option) any later version.
   
   xtb is distributed in the hope that it will be useful,
   but WITHOUT ANY WARRANTY; without even the implied warranty of
   MERCHANTABILITY or FITNESS FOR A PARTICULAR PURPOSE.  See the
   GNU Lesser General Public License for more details.
   
   Cite this work as:
   * C. Bannwarth, E. Caldeweyher, S. Ehlert, A. Hansen, P. Pracht,
     J. Seibert, S. Spicher, S. Grimme, WIREs Comput. Mol. Sci., 2020, 11,
     e01493. DOI: 10.1002/wcms.1493
   
   for GFN2-xTB:
   * C. Bannwarth, S. Ehlert and S. Grimme., J. Chem. Theory Comput., 2019,
     15, 1652-1671. DOI: 10.1021/acs.jctc.8b01176
   for GFN1-xTB:
   * S. Grimme, C. Bannwarth, P. Shushkov, J. Chem. Theory Comput., 2017,
     13, 1989-2009. DOI: 10.1021/acs.jctc.7b00118
   for GFN0-xTB:
   * P. Pracht, E. Caldeweyher, S. Ehlert, S. Grimme, ChemRxiv, 2019, preprint.
     DOI: 10.26434/chemrxiv.8326202.v1
   for GFN-FF:
   * S. Spicher and S. Grimme, Angew. Chem. Int. Ed., 2020, 59, 15665-15673.
     DOI: 10.1002/anie.202004239
   
   for ALPB and GBSA implicit solvation:
   * S. Ehlert, M. Stahn, S. Spicher, S. Grimme, J. Chem. Theory Comput.,
     2021, 17, 4250-4261. DOI: 10.1021/acs.jctc.1c00471
   
   for ddCOSMO and CPCM-X implicit solvation:
   * M. Stahn, S. Ehlert, S. Grimme, J. Phys. Chem. A,
     2023, XX, XXXX-XXXX. DOI: 10.1021/acs.jpca.3c04382
   
   for DFT-D4:
   * E. Caldeweyher, C. Bannwarth and S. Grimme, J. Chem. Phys., 2017,
     147, 034112. DOI: 10.1063/1.4993215
   * E. Caldeweyher, S. Ehlert, A. Hansen, H. Neugebauer, S. Spicher,
     C. Bannwarth and S. Grimme, J. Chem. Phys., 2019, 150, 154122.
     DOI: 10.1063/1.5090222
   * E. Caldeweyher, J.-M. Mewes, S. Ehlert and S. Grimme, Phys. Chem. Chem. Phys.
     2020, 22, 8499-8512. DOI: 10.1039/D0CP00502A
   
   for sTDA-xTB:
   * S. Grimme and C. Bannwarth, J. Chem. Phys., 2016, 145, 054103.
     DOI: 10.1063/1.4959605
   
   in the mass-spec context:
   * V. Asgeirsson, C. Bauer and S. Grimme, Chem. Sci., 2017, 8, 4879.
     DOI: 10.1039/c7sc00601b
   * J. Koopman and S. Grimme, ACS Omega 2019, 4, 12, 15120-15133.
     DOI: 10.1021/acsomega.9b02011
   
   for metadynamics refer to:
   * S. Grimme, J. Chem. Theory Comput., 2019, 155, 2847-2862
     DOI: 10.1021/acs.jctc.9b00143
   
   for SPH calculations refer to:
   * S. Spicher and S. Grimme, J. Chem. Theory Comput., 2021, 17, 1701-1714
     DOI: 10.1021/acs.jctc.0c01306
   
   for ONIOM refer to:
   * C. Plett, A. Katbashev, S. Ehlert, S. Grimme, M. Bursch,
     Phys. Chem. Chem. Phys., 2023, 25, 17860-17868. DOI: 10.1039/D3CP02178E
   
   for DIPRO refer to:
   * J. Kohn, N. Gildemeister, S. Grimme, D. Fazzi, A. Hansen,
     J. Chem. Phys., 2023, just accepted.
   
   for PTB refer to:
   * S. Grimme, M. Mueller, A. Hansen, J. Chem. Phys., 2023, 158, 124111.
     DOI: 10.1063/5.0137838
   
   with help from (in alphabetical order)
   P. Atkinson, C. Bannwarth, F. Bohle, G. Brandenburg, E. Caldeweyher
   M. Checinski, S. Dohm, S. Ehlert, S. Ehrlich, I. Gerasimov, C. Hölzer
   A. Katbashev, J. Kohn, J. Koopman, C. Lavigne, S. Lehtola, F. März, M. Müller,
   F. Musil, H. Neugebauer, J. Pisarek, C. Plett, P. Pracht, F. Pultar,
   J. Seibert, P. Shushkov, S. Spicher, M. Stahn, M. Steiner, T. Strunk,
   J. Stückrath, T. Rose, and J. Unsleber
   
 * started run on 2025/05/15 at 16:29:58.596     
   ID    Z sym.   atoms
    1    6 C      1-3, 5-8, 10, 11, 13, 15, 16, 18-20, 22, 23
    2    8 O      4, 21, 24
    3    7 N      9, 14, 17
    4   16 S      12
    5    1 H      25-43

           -------------------------------------------------
          |                Calculation Setup                |
           -------------------------------------------------

          program call               : xtb /rds/general/user/hgt20/home/callum/QDESCP/Omeprazole_rdkit_conf_6/Omeprazole_rdkit_conf_6.xyz --opt normal --acc 1 --gfn 2 --chrg 0 --uhf 0 -P 1
          hostname                   : login-c
          coordinate file            : /rds/general/user/hgt20/home/callum/QDESCP/Omeprazole_rdkit_conf_6/Omeprazole_rdkit_conf_6.xyz
          omp threads                :                     1


           -------------------------------------------------
          |                 G F N 2 - x T B                 |
           -------------------------------------------------

        Reference                      10.1021/acs.jctc.8b01176
      * Hamiltonian:
        H0-scaling (s, p, d)           1.850000    2.230000    2.230000
        zeta-weighting                 0.500000
      * Dispersion:
        s8                             2.700000
        a1                             0.520000
        a2                             5.000000
        s9                             5.000000
      * Repulsion:
        kExp                           1.500000    1.000000
        rExp                           1.000000
      * Coulomb:
        alpha                          2.000000
        third order                    shell-resolved
        anisotropic                    true
        a3                             3.000000
        a5                             4.000000
        cn-shift                       1.200000
        cn-exp                         4.000000
        max-rad                        5.000000


          ...................................................
          :                      SETUP                      :
          :.................................................:
          :  # basis functions                 121          :
          :  # atomic orbitals                 120          :
          :  # shells                           68          :
          :  # electrons                       126          :
          :  max. iterations                   250          :
          :  Hamiltonian                  GFN2-xTB          :
          :  restarted?                      false          :
          :  GBSA solvation                  false          :
          :  PC potential                    false          :
          :  electronic temp.          300.0000000     K    :
          :  accuracy                    1.0000000          :
          :  -> integral cutoff          0.2500000E+02      :
          :  -> integral neglect         0.1000000E-07      :
          :  -> SCF convergence          0.1000000E-05 Eh   :
          :  -> wf. convergence          0.1000000E-03 e    :
          :  Broyden damping             0.4000000          :
          :  net charge                          0          :
          :  unpaired electrons                  0          :
          ...................................................

 iter      E             dE          RMSdq      gap      omega  full diag
   1    -71.0596918 -0.710597E+02  0.447E+00    3.04       0.0  T
   2    -71.1637260 -0.104034E+00  0.257E+00    3.15       1.0  T
   3    -71.1551355  0.859055E-02  0.126E+00    3.01       1.0  T
   4    -71.1724642 -0.173287E-01  0.543E-01    3.00       1.0  T
   5    -71.1816674 -0.920325E-02  0.175E-01    2.99       1.0  T
   6    -71.1817660 -0.985132E-04  0.876E-02    2.98       1.0  T
   7    -71.1818681 -0.102138E-03  0.363E-02    2.99       1.0  T
   8    -71.1818824 -0.143016E-04  0.220E-02    2.99       1.0  T
   9    -71.1818849 -0.254068E-05  0.875E-03    2.99       1.7  T
  10    -71.1818862 -0.124078E-05  0.343E-03    2.99       4.4  T
  11    -71.1818862 -0.490129E-07  0.173E-03    2.99       8.8  T
  12    -71.1818863 -0.279853E-07  0.627E-04    2.99      24.3  T
  13    -71.1818863 -0.483358E-08  0.253E-04    2.99      60.4  T

   *** convergence criteria satisfied after 13 iterations ***

         #    Occupation            Energy/Eh            Energy/eV
      -------------------------------------------------------------
         1        2.0000           -0.7559419             -20.5702
       ...           ...                  ...                  ...
        57        2.0000           -0.4081011             -11.1050
        58        2.0000           -0.4024997             -10.9526
        59        2.0000           -0.3986851             -10.8488
        60        2.0000           -0.3914599             -10.6522
        61        2.0000           -0.3824231             -10.4063
        62        2.0000           -0.3760691             -10.2334
        63        2.0000           -0.3732425             -10.1564 (HOMO)
        64                         -0.2632911              -7.1645 (LUMO)
        65                         -0.2508689              -6.8265
        66                         -0.2353405              -6.4039
        67                         -0.2092985              -5.6953
        68                         -0.2017394              -5.4896
       ...                                ...                  ...
       120                          0.7993771              21.7522
      -------------------------------------------------------------
                  HL-Gap            0.1099514 Eh            2.9919 eV
             Fermi-level           -0.3182668 Eh           -8.6605 eV

 SCC (total)                   0 d,  0 h,  0 min,  0.123 sec
 SCC setup                      ...        0 min,  0.000 sec (  0.313%)
 Dispersion                     ...        0 min,  0.000 sec (  0.397%)
 classical contributions        ...        0 min,  0.000 sec (  0.123%)
 integral evaluation            ...        0 min,  0.008 sec (  6.685%)
 iterations                     ...        0 min,  0.089 sec ( 71.880%)
 molecular gradient             ...        0 min,  0.025 sec ( 20.447%)
 printout                       ...        0 min,  0.000 sec (  0.150%)

         :::::::::::::::::::::::::::::::::::::::::::::::::::::
         ::                     SUMMARY                     ::
         :::::::::::::::::::::::::::::::::::::::::::::::::::::
         :: total energy             -70.298926934526 Eh    ::
         :: gradient norm              0.099183411336 Eh/a0 ::
         :: HOMO-LUMO gap              2.991930197288 eV    ::
         ::.................................................::
         :: SCC energy               -71.182149127350 Eh    ::
         :: -> isotropic ES            0.095261162146 Eh    ::
         :: -> anisotropic ES          0.008679152970 Eh    ::
         :: -> anisotropic XC          0.030744044347 Eh    ::
         :: -> dispersion             -0.046670109108 Eh    ::
         :: repulsion energy           0.883222192824 Eh    ::
         :: add. restraining           0.000000000000 Eh    ::
         :: total charge              -0.000000000000 e     ::
         :::::::::::::::::::::::::::::::::::::::::::::::::::::

      ----------------------------------------------------------- 
     |                   =====================                   |
     |                        A N C O P T                        |
     |                   =====================                   |
     |               Approximate Normal Coordinate               |
     |                Rational Function Optimizer                |
      ----------------------------------------------------------- 
      ----------------------------------------------------------- 
     |                   =====================                   |
     |                        A N C O P T                        |
     |                   =====================                   |
     |               Approximate Normal Coordinate               |
     |                Rational Function Optimizer                |
      ----------------------------------------------------------- 

          ...................................................
          :                      SETUP                      :
          :.................................................:
          :   optimization level            normal          :
          :   max. optcycles                   200          :
          :   ANC micro-cycles                  20          :
          :   degrees of freedom               123          :
          :.................................................:
          :   RF solver                   davidson          :
          :   write xtbopt.log                true          :
          :   linear?                        false          :
          :   energy convergence         0.5000000E-05 Eh   :
          :   grad. convergence          0.1000000E-02 Eh/α :
          :   maxmium RF displ.          1.0000000          :
          :   Hlow (freq-cutoff)         0.1000000E-01      :
          :   Hmax (freq-cutoff)         5.0000000          :
          :   S6 in model hess.         20.0000000          :
          ...................................................

generating ANC from exact Hessian ...
Using Lindh-Hessian (1995)
 Shifting diagonal of input Hessian by    9.8287575890938696E-003
 Lowest  eigenvalues of input Hessian
    0.000000    0.000000    0.000000    0.000000    0.000000    0.000000
    0.010000    0.010111    0.010393    0.010852    0.011501    0.011826
    0.012489    0.013166    0.014480    0.014695    0.015512    0.016091
 Highest eigenvalues
    1.985424    2.034062    2.037504    2.105862    2.228331    2.259367


........................................................................
.............................. CYCLE    1 ..............................
........................................................................

 iter      E             dE          RMSdq      gap      omega  full diag
   1    -71.1818863 -0.711819E+02  0.940E-05    2.99       0.0  T
   2    -71.1818863 -0.531770E-10  0.534E-05    2.99     285.6  T
   3    -71.1818863 -0.128182E-10  0.366E-05    2.99     416.8  T
     SCC iter.                  ...        0 min,  0.008 sec
     gradient                   ...        0 min,  0.025 sec
 * total energy  :   -70.2989269 Eh     change       -0.6340031E-09 Eh
   gradient norm :     0.0991832 Eh/α   predicted     0.0000000E+00 (-100.00%)
   displ. norm   :     0.2698043 α      lambda       -0.1224899E-01
   maximum displ.:     0.0899210 α      in ANC's #9, #37, #21, ...

........................................................................
.............................. CYCLE    2 ..............................
........................................................................

 iter      E             dE          RMSdq      gap      omega  full diag
   1    -71.2152327 -0.712152E+02  0.191E-01    2.98       0.0  T
   2    -71.2153215 -0.888849E-04  0.119E-01    3.02       1.0  T
   3    -71.2152502  0.712878E-04  0.598E-02    3.00       1.0  T
   4    -71.2153731 -0.122875E-03  0.139E-02    3.01       1.1  T
   5    -71.2153755 -0.240654E-05  0.653E-03    3.01       2.3  T
   6    -71.2153757 -0.120303E-06  0.259E-03    3.00       5.9  T
   7    -71.2153757 -0.977761E-07  0.130E-03    3.01      11.7  T
   8    -71.2153758 -0.107871E-07  0.657E-04    3.01      23.2  T
   9    -71.2153758 -0.379536E-08  0.250E-04    3.01      61.1  T
     SCC iter.                  ...        0 min,  0.068 sec
     gradient                   ...        0 min,  0.026 sec
 * total energy  :   -70.3073988 Eh     change       -0.8471851E-02 Eh
   gradient norm :     0.0466614 Eh/α   predicted    -0.6575162E-02 ( -22.39%)
   displ. norm   :     0.2365548 α      lambda       -0.3742502E-02
   maximum displ.:     0.1154008 α      in ANC's #9, #11, #21, ...

........................................................................
.............................. CYCLE    3 ..............................
........................................................................

 iter      E             dE          RMSdq      gap      omega  full diag
   1    -71.2344936 -0.712345E+02  0.120E-01    3.00       0.0  T
   2    -71.2345610 -0.674447E-04  0.805E-02    3.02       1.0  T
   3    -71.2345686 -0.762046E-05  0.404E-02    3.00       1.0  T
   4    -71.2345779 -0.928303E-05  0.135E-02    3.01       1.1  T
   5    -71.2345836 -0.569911E-05  0.360E-03    3.00       4.2  T
   6    -71.2345836 -0.206693E-07  0.229E-03    3.00       6.7  T
   7    -71.2345837 -0.309436E-07  0.700E-04    3.00      21.8  T
   8    -71.2345837 -0.877942E-08  0.407E-04    3.00      37.5  T
     SCC iter.                  ...        0 min,  0.018 sec
     gradient                   ...        0 min,  0.026 sec
 * total energy  :   -70.3095680 Eh     change       -0.2169260E-02 Eh
   gradient norm :     0.0135077 Eh/α   predicted    -0.1976570E-02 (  -8.88%)
   displ. norm   :     0.1665752 α      lambda       -0.5357050E-03
   maximum displ.:     0.0914683 α      in ANC's #9, #11, #4, ...

........................................................................
.............................. CYCLE    4 ..............................
........................................................................

 iter      E             dE          RMSdq      gap      omega  full diag
   1    -71.2361167 -0.712361E+02  0.531E-02    3.01       0.0  T
   2    -71.2361246 -0.788417E-05  0.331E-02    3.00       1.0  T
   3    -71.2361248 -0.206834E-06  0.139E-02    3.00       1.1  T
   4    -71.2361254 -0.566503E-06  0.398E-03    3.00       3.8  T
   5    -71.2361257 -0.321617E-06  0.173E-03    3.00       8.8  T
   6    -71.2361257 -0.231595E-07  0.775E-04    3.00      19.7  T
   7    -71.2361257 -0.972103E-08  0.212E-04    3.00      71.9  T
     SCC iter.                  ...        0 min,  0.055 sec
     gradient                   ...        0 min,  0.026 sec
 * total energy  :   -70.3099707 Eh     change       -0.4026998E-03 Eh
   gradient norm :     0.0073407 Eh/α   predicted    -0.2753036E-03 ( -31.64%)
   displ. norm   :     0.2420274 α      lambda       -0.4498806E-03
   maximum displ.:     0.1241708 α      in ANC's #9, #11, #4, ...

........................................................................
.............................. CYCLE    5 ..............................
........................................................................

 iter      E             dE          RMSdq      gap      omega  full diag
   1    -71.2356875 -0.712357E+02  0.656E-02    3.01       0.0  T
   2    -71.2356932 -0.573794E-05  0.393E-02    3.00       1.0  T
   3    -71.2356916  0.163412E-05  0.120E-02    3.00       1.3  T
   4    -71.2356939 -0.235885E-05  0.428E-03    3.00       3.6  T
   5    -71.2356944 -0.420577E-06  0.179E-03    3.00       8.5  T
   6    -71.2356944 -0.302164E-07  0.608E-04    3.00      25.1  T
   7    -71.2356944 -0.589499E-08  0.216E-04    3.00      70.6  T
     SCC iter.                  ...        0 min,  0.016 sec
     gradient                   ...        0 min,  0.026 sec
 * total energy  :   -70.3102595 Eh     change       -0.2887482E-03 Eh
   gradient norm :     0.0054275 Eh/α   predicted    -0.2381180E-03 ( -17.53%)
   displ. norm   :     0.1548230 α      lambda       -0.1444599E-03
   maximum displ.:     0.0700935 α      in ANC's #11, #4, #9, ...

........................................................................
.............................. CYCLE    6 ..............................
........................................................................

 iter      E             dE          RMSdq      gap      omega  full diag
   1    -71.2356229 -0.712356E+02  0.372E-02    3.00       0.0  T
   2    -71.2356239 -0.966542E-06  0.205E-02    3.00       1.0  T
   3    -71.2356236  0.317796E-06  0.568E-03    3.00       2.7  T
   4    -71.2356240 -0.447071E-06  0.242E-03    3.00       6.3  T
   5    -71.2356242 -0.136078E-06  0.789E-04    3.00      19.3  T
   6    -71.2356242 -0.769489E-08  0.287E-04    3.00      53.2  T
     SCC iter.                  ...        0 min,  0.014 sec
     gradient                   ...        0 min,  0.026 sec
 * total energy  :   -70.3103678 Eh     change       -0.1082898E-03 Eh
   gradient norm :     0.0048509 Eh/α   predicted    -0.7396182E-04 ( -31.70%)
   displ. norm   :     0.1900619 α      lambda       -0.1439024E-03
   maximum displ.:     0.0927375 α      in ANC's #4, #3, #11, ...

........................................................................
.............................. CYCLE    7 ..............................
........................................................................

 iter      E             dE          RMSdq      gap      omega  full diag
   1    -71.2359117 -0.712359E+02  0.468E-02    3.00       0.0  T
   2    -71.2359147 -0.304913E-05  0.247E-02    3.00       1.0  T
   3    -71.2359147  0.121439E-07  0.102E-02    3.00       1.5  T
   4    -71.2359150 -0.267476E-06  0.342E-03    3.00       4.5  T
   5    -71.2359152 -0.239808E-06  0.120E-03    3.00      12.7  T
   6    -71.2359152 -0.218802E-07  0.545E-04    3.00      28.0  T
   7    -71.2359152 -0.205628E-08  0.229E-04    3.00      66.5  T
     SCC iter.                  ...        0 min,  0.061 sec
     gradient                   ...        0 min,  0.026 sec
 * total energy  :   -70.3104708 Eh     change       -0.1030494E-03 Eh
   gradient norm :     0.0036588 Eh/α   predicted    -0.7459508E-04 ( -27.61%)
   displ. norm   :     0.1680149 α      lambda       -0.9722675E-04
   maximum displ.:     0.0874294 α      in ANC's #4, #3, #16, ...

........................................................................
.............................. CYCLE    8 ..............................
........................................................................

 iter      E             dE          RMSdq      gap      omega  full diag
   1    -71.2363535 -0.712364E+02  0.440E-02    3.00       0.0  T
   2    -71.2363558 -0.230461E-05  0.239E-02    3.00       1.0  T
   3    -71.2363557  0.545569E-07  0.909E-03    3.00       1.7  T
   4    -71.2363560 -0.218814E-06  0.301E-03    3.00       5.1  T
   5    -71.2363562 -0.197752E-06  0.107E-03    3.00      14.3  T
   6    -71.2363562 -0.141456E-07  0.519E-04    3.00      29.4  T
   7    -71.2363562 -0.217383E-08  0.210E-04    3.00      72.5  T
     SCC iter.                  ...        0 min,  0.067 sec
     gradient                   ...        0 min,  0.026 sec
 * total energy  :   -70.3105442 Eh     change       -0.7335899E-04 Eh
   gradient norm :     0.0033712 Eh/α   predicted    -0.4998611E-04 ( -31.86%)
   displ. norm   :     0.1871849 α      lambda       -0.9283743E-04
   maximum displ.:     0.0979976 α      in ANC's #4, #3, #16, ...

........................................................................
.............................. CYCLE    9 ..............................
........................................................................

 iter      E             dE          RMSdq      gap      omega  full diag
   1    -71.2366739 -0.712367E+02  0.518E-02    3.01       0.0  T
   2    -71.2366753 -0.145026E-05  0.293E-02    3.01       1.0  T
   3    -71.2366752  0.130845E-06  0.673E-03    3.01       2.3  T
   4    -71.2366755 -0.285401E-06  0.262E-03    3.01       5.8  T
   5    -71.2366756 -0.145501E-06  0.976E-04    3.01      15.6  T
   6    -71.2366756 -0.949369E-08  0.442E-04    3.01      34.5  T
     SCC iter.                  ...        0 min,  0.058 sec
     gradient                   ...        0 min,  0.025 sec
 * total energy  :   -70.3106154 Eh     change       -0.7119480E-04 Eh
   gradient norm :     0.0034444 Eh/α   predicted    -0.4804750E-04 ( -32.51%)
   displ. norm   :     0.2175044 α      lambda       -0.9182632E-04
   maximum displ.:     0.1182116 α      in ANC's #3, #4, #16, ...

........................................................................
.............................. CYCLE   10 ..............................
........................................................................

 iter      E             dE          RMSdq      gap      omega  full diag
   1    -71.2365951 -0.712366E+02  0.619E-02    3.01       0.0  T
   2    -71.2365960 -0.914396E-06  0.358E-02    3.01       1.0  T
   3    -71.2365961 -0.448880E-07  0.369E-03    3.01       4.1  T
   4    -71.2365962 -0.183922E-06  0.210E-03    3.01       7.3  T
   5    -71.2365963 -0.780083E-07  0.761E-04    3.01      20.0  T
   6    -71.2365963 -0.781984E-08  0.332E-04    3.01      46.0  T
     SCC iter.                  ...        0 min,  0.014 sec
     gradient                   ...        0 min,  0.071 sec
 * total energy  :   -70.3106859 Eh     change       -0.7052798E-04 Eh
   gradient norm :     0.0035483 Eh/α   predicted    -0.4808787E-04 ( -31.82%)
   displ. norm   :     0.2367342 α      lambda       -0.8725101E-04
   maximum displ.:     0.1325525 α      in ANC's #3, #4, #16, ...

........................................................................
.............................. CYCLE   11 ..............................
........................................................................

 iter      E             dE          RMSdq      gap      omega  full diag
   1    -71.2363047 -0.712363E+02  0.683E-02    3.01       0.0  T
   2    -71.2363057 -0.100338E-05  0.398E-02    3.01       1.0  T
   3    -71.2363057 -0.515818E-08  0.419E-03    3.01       3.6  T
   4    -71.2363060 -0.359871E-06  0.186E-03    3.01       8.2  T
   5    -71.2363061 -0.118740E-07  0.678E-04    3.01      22.5  T
   6    -71.2363061 -0.939941E-08  0.282E-04    3.01      54.1  T
     SCC iter.                  ...        0 min,  0.014 sec
     gradient                   ...        0 min,  0.071 sec
 * total energy  :   -70.3107527 Eh     change       -0.6681282E-04 Eh
   gradient norm :     0.0036034 Eh/α   predicted    -0.4607279E-04 ( -31.04%)
   displ. norm   :     0.2388721 α      lambda       -0.7988085E-04
   maximum displ.:     0.1374743 α      in ANC's #3, #4, #16, ...

........................................................................
.............................. CYCLE   12 ..............................
........................................................................

 iter      E             dE          RMSdq      gap      omega  full diag
   1    -71.2360511 -0.712361E+02  0.683E-02    3.01       0.0  T
   2    -71.2360524 -0.128630E-05  0.400E-02    3.01       1.0  T
   3    -71.2360522  0.186692E-06  0.532E-03    3.01       2.9  T
   4    -71.2360528 -0.595982E-06  0.200E-03    3.01       7.6  T
   5    -71.2360528 -0.175048E-07  0.105E-03    3.01      14.5  T
   6    -71.2360528 -0.152291E-07  0.344E-04    3.01      44.3  T
   7    -71.2360528 -0.185882E-08  0.166E-04    3.01      91.7  T
     SCC iter.                  ...        0 min,  0.016 sec
     gradient                   ...        0 min,  0.071 sec
 * total energy  :   -70.3108135 Eh     change       -0.6075184E-04 Eh
   gradient norm :     0.0035306 Eh/α   predicted    -0.4222511E-04 ( -30.50%)
   displ. norm   :     0.2207894 α      lambda       -0.7038597E-04
   maximum displ.:     0.1306175 α      in ANC's #3, #4, #16, ...

........................................................................
.............................. CYCLE   13 ..............................
........................................................................

 iter      E             dE          RMSdq      gap      omega  full diag
   1    -71.2361829 -0.712362E+02  0.621E-02    3.00       0.0  T
   2    -71.2361841 -0.118222E-05  0.365E-02    3.00       1.0  T
   3    -71.2361840  0.104844E-06  0.499E-03    3.00       3.1  T
   4    -71.2361844 -0.456644E-06  0.191E-03    3.00       8.0  T
   5    -71.2361844 -0.209518E-07  0.103E-03    3.00      14.8  T
   6    -71.2361845 -0.134416E-07  0.332E-04    3.00      45.9  T
   7    -71.2361845 -0.166735E-08  0.163E-04    3.00      93.8  T
     SCC iter.                  ...        0 min,  0.016 sec
     gradient                   ...        0 min,  0.066 sec
 * total energy  :   -70.3108667 Eh     change       -0.5325245E-04 Eh
   gradient norm :     0.0033162 Eh/α   predicted    -0.3691013E-04 ( -30.69%)
   displ. norm   :     0.2067111 α      lambda       -0.6131791E-04
   maximum displ.:     0.1250733 α      in ANC's #3, #4, #1, ...

........................................................................
.............................. CYCLE   14 ..............................
........................................................................

 iter      E             dE          RMSdq      gap      omega  full diag
   1    -71.2362932 -0.712363E+02  0.563E-02    3.00       0.0  T
   2    -71.2362940 -0.804464E-06  0.332E-02    2.99       1.0  T
   3    -71.2362940 -0.411927E-07  0.382E-03    2.99       4.0  T
   4    -71.2362943 -0.245946E-06  0.164E-03    2.99       9.3  T
   5    -71.2362943 -0.790656E-08  0.776E-04    2.99      19.7  T
   6    -71.2362943 -0.100438E-07  0.238E-04    2.99      64.0  T
     SCC iter.                  ...        0 min,  0.014 sec
     gradient                   ...        0 min,  0.076 sec
 * total energy  :   -70.3109133 Eh     change       -0.4655929E-04 Eh
   gradient norm :     0.0029560 Eh/α   predicted    -0.3197156E-04 ( -31.33%)
   displ. norm   :     0.1955908 α      lambda       -0.5696046E-04
   maximum displ.:     0.1180669 α      in ANC's #3, #7, #1, ...

........................................................................
.............................. CYCLE   15 ..............................
........................................................................

 iter      E             dE          RMSdq      gap      omega  full diag
   1    -71.2369436 -0.712369E+02  0.523E-02    2.99       0.0  T
   2    -71.2369443 -0.665085E-06  0.308E-02    2.99       1.0  T
   3    -71.2369442  0.473395E-07  0.353E-03    2.99       4.3  T
   4    -71.2369445 -0.294065E-06  0.159E-03    2.99       9.6  T
   5    -71.2369445 -0.166062E-07  0.599E-04    2.99      25.5  T
   6    -71.2369445 -0.693811E-08  0.220E-04    2.99      69.4  T
     SCC iter.                  ...        0 min,  0.014 sec
     gradient                   ...        0 min,  0.025 sec
 * total energy  :   -70.3109558 Eh     change       -0.4255486E-04 Eh
   gradient norm :     0.0027945 Eh/α   predicted    -0.2957079E-04 ( -30.51%)
   displ. norm   :     0.2130346 α      lambda       -0.5286588E-04
   maximum displ.:     0.1287948 α      in ANC's #3, #7, #1, ...

........................................................................
.............................. CYCLE   16 ..............................
........................................................................

 iter      E             dE          RMSdq      gap      omega  full diag
   1    -71.2361782 -0.712362E+02  0.557E-02    2.98       0.0  T
   2    -71.2361790 -0.797423E-06  0.327E-02    2.98       1.0  T
   3    -71.2361789  0.151202E-06  0.399E-03    2.98       3.8  T
   4    -71.2361792 -0.381203E-06  0.191E-03    2.98       8.0  T
   5    -71.2361793 -0.695890E-07  0.766E-04    2.98      19.9  T
   6    -71.2361793 -0.461712E-08  0.264E-04    2.98      57.8  T
     SCC iter.                  ...        0 min,  0.053 sec
     gradient                   ...        0 min,  0.026 sec
 * total energy  :   -70.3109926 Eh     change       -0.3673530E-04 Eh
   gradient norm :     0.0027490 Eh/α   predicted    -0.2763747E-04 ( -24.77%)
   displ. norm   :     0.1864862 α      lambda       -0.5292719E-04
   maximum displ.:     0.0994104 α      in ANC's #3, #7, #5, ...

........................................................................
.............................. CYCLE   17 ..............................
........................................................................

 iter      E             dE          RMSdq      gap      omega  full diag
   1    -71.2378671 -0.712379E+02  0.463E-02    2.98       0.0  T
   2    -71.2378681 -0.104409E-05  0.273E-02    2.98       1.0  T
   3    -71.2378671  0.100809E-05  0.654E-03    2.98       2.3  T
   4    -71.2378684 -0.130814E-05  0.196E-03    2.98       7.8  T
   5    -71.2378685 -0.508688E-07  0.890E-04    2.98      17.1  T
   6    -71.2378685 -0.397041E-08  0.338E-04    2.98      45.2  T
     SCC iter.                  ...        0 min,  0.053 sec
     gradient                   ...        0 min,  0.025 sec
 * total energy  :   -70.3110221 Eh     change       -0.2955868E-04 Eh
   gradient norm :     0.0032171 Eh/α   predicted    -0.2738496E-04 (  -7.35%)
   displ. norm   :     0.1506073 α      lambda       -0.3318977E-04
   maximum displ.:     0.0896427 α      in ANC's #3, #7, #5, ...

........................................................................
.............................. CYCLE   18 ..............................
........................................................................

 iter      E             dE          RMSdq      gap      omega  full diag
   1    -71.2365651 -0.712366E+02  0.396E-02    2.98       0.0  T
   2    -71.2365656 -0.551140E-06  0.231E-02    2.98       1.0  T
   3    -71.2365656  0.810067E-08  0.295E-03    2.98       5.2  T
   4    -71.2365658 -0.121132E-06  0.134E-03    2.98      11.4  T
   5    -71.2365658 -0.306782E-07  0.672E-04    2.98      22.7  T
   6    -71.2365658 -0.513413E-08  0.208E-04    2.98      73.3  T
     SCC iter.                  ...        0 min,  0.014 sec
     gradient                   ...        0 min,  0.073 sec
 * total energy  :   -70.3110441 Eh     change       -0.2194515E-04 Eh
   gradient norm :     0.0025074 Eh/α   predicted    -0.1697238E-04 ( -22.66%)
   displ. norm   :     0.1513139 α      lambda        0.4569173E-05
   maximum displ.:     0.0900726 α      in ANC's #3, #7, #5, ...

........................................................................
.............................. CYCLE   19 ..............................
........................................................................

 iter      E             dE          RMSdq      gap      omega  full diag
   1    -71.2348966 -0.712349E+02  0.399E-02    2.99       0.0  T
   2    -71.2348971 -0.570874E-06  0.233E-02    2.99       1.0  T
   3    -71.2348972 -0.274151E-07  0.280E-03    2.99       5.4  T
   4    -71.2348972 -0.920783E-07  0.125E-03    2.99      12.2  T
   5    -71.2348973 -0.220611E-07  0.672E-04    2.99      22.7  T
   6    -71.2348973 -0.626430E-08  0.214E-04    2.99      71.2  T
     SCC iter.                  ...        0 min,  0.014 sec
     gradient                   ...        0 min,  0.071 sec
 * total energy  :   -70.3110405 Eh     change        0.3608644E-05 Eh
   gradient norm :     0.0037031 Eh/α   predicted     0.2336699E-05 ( -35.25%)
   displ. norm   :     0.0884738 α      lambda       -0.3948647E-04
   maximum displ.:     0.0442747 α      in ANC's #3, #4, #8, ...

........................................................................
.............................. CYCLE   20 ..............................
........................................................................

 iter      E             dE          RMSdq      gap      omega  full diag
   1    -71.2369592 -0.712370E+02  0.256E-02    2.99       0.0  T
   2    -71.2369595 -0.263698E-06  0.150E-02    2.99       1.0  T
   3    -71.2369593  0.187470E-06  0.299E-03    2.99       5.1  T
   4    -71.2369595 -0.263410E-06  0.889E-04    2.99      17.2  T
   5    -71.2369595 -0.946805E-08  0.403E-04    2.99      37.9  T
     SCC iter.                  ...        0 min,  0.011 sec
     gradient                   ...        0 min,  0.064 sec
 * total energy  :   -70.3110650 Eh     change       -0.2447475E-04 Eh
   gradient norm :     0.0019299 Eh/α   predicted    -0.1990243E-04 ( -18.68%)
   displ. norm   :     0.1325215 α      lambda        0.9491140E-05
   maximum displ.:     0.0663266 α      in ANC's #3, #4, #8, ...
 * RMSD in coord.:     0.3902562 α      energy gain  -0.1213802E-01 Eh

generating ANC from exact Hessian ...
Using Lindh-Hessian (1995)
 Shifting diagonal of input Hessian by    9.8342277287921023E-003
 Lowest  eigenvalues of input Hessian
    0.000000    0.000000    0.000000    0.000000    0.000000    0.000000
    0.010000    0.010130    0.010406    0.010841    0.011589    0.011865
    0.012432    0.013103    0.014588    0.014914    0.015689    0.015926
 Highest eigenvalues
    2.056211    2.086442    2.146065    2.152054    2.253758    2.449664


........................................................................
.............................. CYCLE   21 ..............................
........................................................................

 iter      E             dE          RMSdq      gap      omega  full diag
   1    -71.2397686 -0.712398E+02  0.381E-02    3.00       0.0  T
   2    -71.2397691 -0.544721E-06  0.223E-02    3.00       1.0  T
   3    -71.2397688  0.319804E-06  0.409E-03    3.00       3.7  T
   4    -71.2397693 -0.476450E-06  0.129E-03    3.00      11.8  T
   5    -71.2397693 -0.191286E-07  0.587E-04    3.00      26.0  T
   6    -71.2397693 -0.192786E-08  0.247E-04    3.00      61.8  T
     SCC iter.                  ...        0 min,  0.014 sec
     gradient                   ...        0 min,  0.077 sec
 * total energy  :   -70.3110507 Eh     change        0.1423399E-04 Eh
   gradient norm :     0.0041903 Eh/α   predicted     0.0000000E+00 (-100.00%)
   displ. norm   :     0.0219687 α      lambda       -0.4189537E-04
   maximum displ.:     0.0099344 α      in ANC's #3, #8, #9, ...

........................................................................
.............................. CYCLE   22 ..............................
........................................................................

 iter      E             dE          RMSdq      gap      omega  full diag
   1    -71.2376530 -0.712377E+02  0.124E-02    3.00       0.0  T
   2    -71.2376533 -0.274070E-06  0.725E-03    3.00       2.1  T
   3    -71.2376531  0.200288E-06  0.346E-03    3.00       4.4  T
   4    -71.2376534 -0.298135E-06  0.640E-04    3.00      23.8  T
   5    -71.2376534 -0.535911E-08  0.297E-04    3.00      51.4  T
     SCC iter.                  ...        0 min,  0.012 sec
     gradient                   ...        0 min,  0.076 sec
 * total energy  :   -70.3110778 Eh     change       -0.2708371E-04 Eh
   gradient norm :     0.0012520 Eh/α   predicted    -0.2117210E-04 ( -21.83%)
   displ. norm   :     0.0391282 α      lambda       -0.9732378E-05
   maximum displ.:     0.0234776 α      in ANC's #3, #8, #11, ...

........................................................................
.............................. CYCLE   23 ..............................
........................................................................

 iter      E             dE          RMSdq      gap      omega  full diag
   1    -71.2363224 -0.712363E+02  0.130E-02    3.00       0.0  T
   2    -71.2363226 -0.165088E-06  0.763E-03    3.00       2.0  T
   3    -71.2363223  0.241512E-06  0.328E-03    3.00       4.6  T
   4    -71.2363226 -0.319920E-06  0.539E-04    3.00      28.3  T
   5    -71.2363226 -0.258377E-08  0.267E-04    3.00      57.2  T
     SCC iter.                  ...        0 min,  0.012 sec
     gradient                   ...        0 min,  0.026 sec
 * total energy  :   -70.3110860 Eh     change       -0.8236710E-05 Eh
   gradient norm :     0.0010964 Eh/α   predicted    -0.4869886E-05 ( -40.88%)
   displ. norm   :     0.0402602 α      lambda       -0.5462289E-05
   maximum displ.:     0.0257694 α      in ANC's #3, #8, #1, ...

........................................................................
.............................. CYCLE   24 ..............................
........................................................................

 iter      E             dE          RMSdq      gap      omega  full diag
   1    -71.2363881 -0.712364E+02  0.113E-02    3.00       0.0  T
   2    -71.2363881 -0.343673E-07  0.657E-03    3.00       2.3  T
   3    -71.2363881  0.321000E-07  0.113E-03    3.00      13.5  T
   4    -71.2363882 -0.450731E-07  0.380E-04    3.00      40.1  T
   5    -71.2363882 -0.187610E-08  0.148E-04    3.00     103.3  T
     SCC iter.                  ...        0 min,  0.045 sec
     gradient                   ...        0 min,  0.026 sec
 * total energy  :   -70.3110934 Eh     change       -0.7317995E-05 Eh
   gradient norm :     0.0010573 Eh/α   predicted    -0.2741883E-05 ( -62.53%)
   displ. norm   :     0.1150490 α      lambda       -0.1405359E-04
   maximum displ.:     0.0713796 α      in ANC's #3, #8, #6, ...

........................................................................
.............................. CYCLE   25 ..............................
........................................................................

 iter      E             dE          RMSdq      gap      omega  full diag
   1    -71.2368053 -0.712368E+02  0.311E-02    2.99       0.0  T
   2    -71.2368055 -0.217187E-06  0.181E-02    2.99       1.0  T
   3    -71.2368055  0.595969E-07  0.217E-03    2.99       7.0  T
   4    -71.2368056 -0.130466E-06  0.104E-03    2.99      14.7  T
   5    -71.2368056 -0.184285E-07  0.356E-04    2.99      42.8  T
   6    -71.2368056 -0.237236E-08  0.124E-04    2.99     122.6  T
     SCC iter.                  ...        0 min,  0.065 sec
     gradient                   ...        0 min,  0.025 sec
 * total energy  :   -70.3111099 Eh     change       -0.1653057E-04 Eh
   gradient norm :     0.0009538 Eh/α   predicted    -0.7068483E-05 ( -57.24%)
   displ. norm   :     0.1495546 α      lambda       -0.1293577E-04
   maximum displ.:     0.0964729 α      in ANC's #3, #8, #6, ...

........................................................................
.............................. CYCLE   26 ..............................
........................................................................

 iter      E             dE          RMSdq      gap      omega  full diag
   1    -71.2368392 -0.712368E+02  0.397E-02    2.99       0.0  T
   2    -71.2368395 -0.332124E-06  0.232E-02    2.99       1.0  T
   3    -71.2368395  0.196343E-07  0.235E-03    2.99       6.5  T
   4    -71.2368397 -0.127715E-06  0.126E-03    2.99      12.1  T
   5    -71.2368397 -0.271315E-07  0.384E-04    2.99      39.7  T
   6    -71.2368397 -0.259686E-08  0.151E-04    2.99     100.9  T
     SCC iter.                  ...        0 min,  0.058 sec
     gradient                   ...        0 min,  0.026 sec
 * total energy  :   -70.3111253 Eh     change       -0.1543020E-04 Eh
   gradient norm :     0.0010350 Eh/α   predicted    -0.6558034E-05 ( -57.50%)
   displ. norm   :     0.1316119 α      lambda       -0.1039035E-04
   maximum displ.:     0.0883259 α      in ANC's #3, #8, #6, ...

........................................................................
.............................. CYCLE   27 ..............................
........................................................................

 iter      E             dE          RMSdq      gap      omega  full diag
   1    -71.2369163 -0.712369E+02  0.336E-02    3.00       0.0  T
   2    -71.2369166 -0.252727E-06  0.197E-02    3.00       1.0  T
   3    -71.2369166  0.734687E-09  0.205E-03    3.00       7.4  T
   4    -71.2369167 -0.867530E-07  0.106E-03    3.00      14.3  T
   5    -71.2369167 -0.149542E-07  0.315E-04    3.00      48.5  T
   6    -71.2369167 -0.103593E-08  0.136E-04    3.00     111.7  T
     SCC iter.                  ...        0 min,  0.014 sec
     gradient                   ...        0 min,  0.058 sec
 * total energy  :   -70.3111383 Eh     change       -0.1301113E-04 Eh
   gradient norm :     0.0007820 Eh/α   predicted    -0.5240738E-05 ( -59.72%)
   displ. norm   :     0.1088417 α      lambda       -0.8966528E-05
   maximum displ.:     0.0768593 α      in ANC's #3, #6, #1, ...

........................................................................
.............................. CYCLE   28 ..............................
........................................................................

 iter      E             dE          RMSdq      gap      omega  full diag
   1    -71.2371459 -0.712371E+02  0.268E-02    3.00       0.0  T
   2    -71.2371461 -0.193485E-06  0.158E-02    3.00       1.0  T
   3    -71.2371461  0.618771E-07  0.219E-03    3.00       7.0  T
   4    -71.2371462 -0.129791E-06  0.883E-04    3.00      17.3  T
   5    -71.2371462 -0.896527E-08  0.360E-04    3.00      42.4  T
     SCC iter.                  ...        0 min,  0.011 sec
     gradient                   ...        0 min,  0.077 sec
 * total energy  :   -70.3111495 Eh     change       -0.1112260E-04 Eh
   gradient norm :     0.0004126 Eh/α   predicted    -0.4521230E-05 ( -59.35%)
   displ. norm   :     0.0850557 α      lambda       -0.6157553E-05
   maximum displ.:     0.0626139 α      in ANC's #3, #1, #6, ...

........................................................................
.............................. CYCLE   29 ..............................
........................................................................

 iter      E             dE          RMSdq      gap      omega  full diag
   1    -71.2371401 -0.712371E+02  0.207E-02    3.00       0.0  T
   2    -71.2371402 -0.123070E-06  0.122E-02    3.00       1.3  T
   3    -71.2371402  0.164588E-07  0.161E-03    3.00       9.5  T
   4    -71.2371402 -0.560747E-07  0.673E-04    3.00      22.7  T
   5    -71.2371402 -0.559396E-08  0.319E-04    3.00      47.9  T
     SCC iter.                  ...        0 min,  0.011 sec
     gradient                   ...        0 min,  0.026 sec
 * total energy  :   -70.3111573 Eh     change       -0.7822188E-05 Eh
   gradient norm :     0.0003511 Eh/α   predicted    -0.3091063E-05 ( -60.48%)
   displ. norm   :     0.0613583 α      lambda       -0.4127277E-05
   maximum displ.:     0.0467278 α      in ANC's #3, #1, #4, ...

........................................................................
.............................. CYCLE   30 ..............................
........................................................................

 iter      E             dE          RMSdq      gap      omega  full diag
   1    -71.2372064 -0.712372E+02  0.149E-02    3.00       0.0  T
   2    -71.2372064 -0.622773E-07  0.873E-03    3.00       1.7  T
   3    -71.2372064 -0.222187E-09  0.103E-03    3.00      14.8  T
   4    -71.2372064 -0.193326E-07  0.481E-04    3.00      31.7  T
   5    -71.2372064 -0.346736E-08  0.222E-04    3.00      68.6  T
     SCC iter.                  ...        0 min,  0.012 sec
     gradient                   ...        0 min,  0.025 sec
 * total energy  :   -70.3111629 Eh     change       -0.5592901E-05 Eh
   gradient norm :     0.0003972 Eh/α   predicted    -0.2071620E-05 ( -62.96%)
   displ. norm   :     0.0581293 α      lambda       -0.4031463E-05
   maximum displ.:     0.0437324 α      in ANC's #3, #1, #4, ...

........................................................................
.............................. CYCLE   31 ..............................
........................................................................

 iter      E             dE          RMSdq      gap      omega  full diag
   1    -71.2372108 -0.712372E+02  0.142E-02    3.00       0.0  T
   2    -71.2372109 -0.505253E-07  0.831E-03    3.00       1.8  T
   3    -71.2372109 -0.119621E-07  0.729E-04    3.00      20.9  T
   4    -71.2372109 -0.502990E-08  0.413E-04    3.00      36.9  T
     SCC iter.                  ...        0 min,  0.009 sec
     gradient                   ...        0 min,  0.065 sec
 * total energy  :   -70.3111685 Eh     change       -0.5618524E-05 Eh
   gradient norm :     0.0003626 Eh/α   predicted    -0.2019984E-05 ( -64.05%)
   displ. norm   :     0.0760467 α      lambda       -0.5203705E-05
   maximum displ.:     0.0552266 α      in ANC's #3, #1, #4, ...

........................................................................
.............................. CYCLE   32 ..............................
........................................................................

 iter      E             dE          RMSdq      gap      omega  full diag
   1    -71.2371680 -0.712372E+02  0.189E-02    3.00       0.0  T
   2    -71.2371681 -0.843728E-07  0.110E-02    3.00       1.4  T
   3    -71.2371681 -0.180138E-07  0.964E-04    3.00      15.8  T
   4    -71.2371681 -0.853993E-08  0.570E-04    3.00      26.7  T
     SCC iter.                  ...        0 min,  0.009 sec
     gradient                   ...        0 min,  0.071 sec
 * total energy  :   -70.3111756 Eh     change       -0.7114768E-05 Eh
   gradient norm :     0.0003134 Eh/α   predicted    -0.2609263E-05 ( -63.33%)
   displ. norm   :     0.1067942 α      lambda       -0.6491627E-05
   maximum displ.:     0.0758582 α      in ANC's #3, #1, #5, ...

........................................................................
.............................. CYCLE   33 ..............................
........................................................................

 iter      E             dE          RMSdq      gap      omega  full diag
   1    -71.2370534 -0.712371E+02  0.266E-02    3.00       0.0  T
   2    -71.2370536 -0.163603E-06  0.155E-02    3.00       1.0  T
   3    -71.2370536 -0.158176E-07  0.152E-03    3.00      10.0  T
   4    -71.2370536 -0.338099E-07  0.867E-04    3.00      17.6  T
   5    -71.2370536 -0.158123E-07  0.289E-04    3.00      52.8  T
     SCC iter.                  ...        0 min,  0.012 sec
     gradient                   ...        0 min,  0.026 sec
 * total energy  :   -70.3111840 Eh     change       -0.8382217E-05 Eh
   gradient norm :     0.0003179 Eh/α   predicted    -0.3262493E-05 ( -61.08%)
   displ. norm   :     0.1244830 α      lambda       -0.5977703E-05
   maximum displ.:     0.0880723 α      in ANC's #3, #1, #5, ...

........................................................................
.............................. CYCLE   34 ..............................
........................................................................

 iter      E             dE          RMSdq      gap      omega  full diag
   1    -71.2369138 -0.712369E+02  0.311E-02    3.00       0.0  T
   2    -71.2369141 -0.235606E-06  0.180E-02    3.00       1.0  T
   3    -71.2369141 -0.314704E-07  0.175E-03    3.00       8.7  T
   4    -71.2369141 -0.423431E-07  0.961E-04    3.00      15.9  T
   5    -71.2369142 -0.172253E-07  0.347E-04    3.00      44.0  T
     SCC iter.                  ...        0 min,  0.045 sec
     gradient                   ...        0 min,  0.027 sec
 * total energy  :   -70.3111912 Eh     change       -0.7185162E-05 Eh
   gradient norm :     0.0004085 Eh/α   predicted    -0.3011988E-05 ( -58.08%)
   displ. norm   :     0.1127050 α      lambda       -0.4084500E-05
   maximum displ.:     0.0803278 α      in ANC's #3, #1, #4, ...

........................................................................
.............................. CYCLE   35 ..............................
........................................................................

 iter      E             dE          RMSdq      gap      omega  full diag
   1    -71.2368446 -0.712368E+02  0.279E-02    2.99       0.0  T
   2    -71.2368448 -0.173723E-06  0.162E-02    2.99       1.0  T
   3    -71.2368448 -0.430327E-07  0.128E-03    2.99      11.9  T
   4    -71.2368448 -0.148538E-07  0.719E-04    2.99      21.2  T
   5    -71.2368449 -0.823933E-08  0.285E-04    2.99      53.5  T
     SCC iter.                  ...        0 min,  0.063 sec
     gradient                   ...        0 min,  0.026 sec
 * total energy  :   -70.3111960 Eh     change       -0.4790354E-05 Eh
   gradient norm :     0.0003816 Eh/α   predicted    -0.2056014E-05 ( -57.08%)
   displ. norm   :     0.0956730 α      lambda       -0.2980795E-05
   maximum displ.:     0.0685511 α      in ANC's #3, #1, #4, ...

   *** GEOMETRY OPTIMIZATION CONVERGED AFTER 35 ITERATIONS ***

------------------------------------------------------------------------
 total energy gain   :        -0.0122690 Eh       -7.6989 kcal/mol
 total RMSD          :         0.5202260 a0        0.2753 Å
 total power (kW/mol):        -0.9203518 (step)  -10.4269 (real)
------------------------------------------------------------------------

 ANCopt (total)                0 d,  0 h,  0 min,  3.089 sec
 optimizer setup                ...        0 min,  0.000 sec (  0.003%)
 model hessian                  ...        0 min,  0.019 sec (  0.619%)
 ANC generation                 ...        0 min,  0.003 sec (  0.100%)
 coordinate transformation      ...        0 min,  0.000 sec (  0.009%)
 single point calculation       ...        0 min,  3.057 sec ( 98.957%)
 optimization log               ...        0 min,  0.005 sec (  0.164%)
 hessian update                 ...        0 min,  0.000 sec (  0.015%)
 rational function              ...        0 min,  0.002 sec (  0.067%)

================
 final structure:
================
43
 xtb: 6.7.1 (edcfbbe)
C           -6.44079519102484        1.15208267187876       -0.55094566442290
C           -4.96904015405716        0.93507567747032       -0.38884464559597
C           -4.45506584623649       -0.24118353724738        0.16458328677579
O           -5.31460978632579       -1.24702984660127        0.57248328468860
C           -5.77724829768704       -1.09669203320694        1.89762466734722
C           -3.07408530545462       -0.42593574922629        0.26691673290941
C           -2.50806059696864       -1.70737438356772        0.79525233425520
C           -4.04546286448369        1.88964043257912       -0.79483660924272
N           -2.74144212921644        1.74911734023815       -0.67386985673725
C           -2.25731380376675        0.62671005146176       -0.15858737135931
C           -0.77078526495482        0.55295581757935       -0.09473772260109
S           -0.12639156285704       -0.15785780796835       -1.69660060887097
C            1.59697687367608        0.01585102522367       -1.19616118864140
N            2.21673273745406        1.10537684292261       -0.85146258312718
C            3.50934999201978        0.71558263880193       -0.59661255364643
C            3.63331101232138       -0.68129204303440       -0.81505268639098
N            2.38372171375483       -1.09287288406767       -1.20454831978446
C            4.83687180072837       -1.33468094689624       -0.62828933425505
C            5.91913812588189       -0.57946809355260       -0.21929139408620
C            5.80946595573306        0.80161491575119        0.00369225495430
O            6.84703779420092        1.58994185231829        0.41071450083955
C            8.10440575569069        1.00278220492052        0.63572108419741
C            4.60140939329397        1.46179456042214       -0.18301355790694
O           -0.31374967137848       -1.61666353421019       -1.63746110756848
H           -6.95933709493348        0.19682355404460       -0.58767897506097
H           -6.64149344052612        1.70496724499177       -1.46577863587532
H           -6.83567269954872        1.73139480175361        0.28485346728650
H           -6.33227672882911       -0.16173084255887        2.02786239871187
H           -6.43915764113094       -1.94047535572269        2.08495063731048
H           -4.94806932621462       -1.11672163177562        2.61386576118740
H           -2.01628042468129       -1.54722362939303        1.75584958729541
H           -1.77999605395219       -2.10777845071702        0.09355991358037
H           -3.30283117647268       -2.43712260380250        0.92341926748100
H           -4.37515609528082        2.82025851185297       -1.23819917899169
H           -0.33816978193978        1.54958492293301       -0.05892770395019
H           -0.40695177895044       -0.07119433927836        0.71671335813052
H            2.05257329886307       -2.01717033431856       -1.43218860443498
H            4.93587066366241       -2.39612108436214       -0.79638639660946
H            6.86410658974507       -1.07744540149887       -0.07324150721847
H            8.06176979647271        0.24353202591765        1.42387276841397
H            8.75292790840494        1.81619978345363        0.95803397550345
H            8.51342314777266        0.55782797111805       -0.27760885320247
H            4.53005015719863        2.52161968537209       -0.00994422128391

 Bond Distances (Angstroems)
 ---------------------------
C1-C2=1.4965         C1-H25=1.0875        C1-H26=1.0876        C1-H27=1.0909        C2-C1=1.4965         C2-C3=1.3979         
C2-C8=1.3889         C3-C2=1.3979         C3-O4=1.3845         C3-C6=1.3970         O4-C3=1.3845         O4-C5=1.4116         
C5-O4=1.4116         C5-H28=1.0951        C5-H29=1.0887        C5-H30=1.0959        C6-C3=1.3970         C6-C7=1.4972         
C6-C10=1.3987        C7-C6=1.4972         C7-H31=1.0910        C7-H32=1.0876        C7-H33=1.0866        C8-C2=1.3889         
C8-N9=1.3171         C8-H34=1.0823        N9-C8=1.3171         N9-C10=1.3265        C10-C6=1.3987        C10-N9=1.3265        
C10-C11=1.4897       C11-C10=1.4897       C11-S12=1.8672       C11-H35=1.0871       C11-H36=1.0865       S12-C11=1.8672       
S12-C13=1.8029       S12-O24=1.4720       C13-S12=1.8029       C13-N14=1.3000       C13-N17=1.3595       N14-C13=1.3000       
N14-C15=1.3740       C15-N14=1.3740       C15-C16=1.4193       C15-C23=1.3858       C16-C15=1.4193       C16-N17=1.3721       
C16-C18=1.3822       N17-C13=1.3595       N17-C16=1.3721       N17-H37=1.0079       C18-C16=1.3822       C18-C19=1.3816       
C18-H38=1.0792       C19-C18=1.3816       C19-C20=1.4033       C19-H39=1.0781       C20-C19=1.4033       C20-O21=1.3652       
C20-C23=1.3893       O21-C20=1.3652       O21-C22=1.4058       C22-O21=1.4058       C22-H40=1.0952       C22-H41=1.0891       
C22-H42=1.0952       C23-C15=1.3858       C23-C20=1.3893       C23-H43=1.0762       O24-S12=1.4720       H25-C1=1.0875        
H26-C1=1.0876        H27-C1=1.0909        H28-C5=1.0951        H29-C5=1.0887        H30-C5=1.0959        H31-C7=1.0910        
H32-C7=1.0876        H33-C7=1.0866        H34-C8=1.0823        H35-C11=1.0871       H36-C11=1.0865       H37-N17=1.0079       
H38-C18=1.0792       H39-C19=1.0781       H40-C22=1.0952       H41-C22=1.0891       H42-C22=1.0952       H43-C23=1.0762       
 C  H  Rav=1.0878 sigma=0.0057  Rmin=1.0762  Rmax=1.0959    18
 C  C  Rav=1.4175 sigma=0.0433  Rmin=1.3816  Rmax=1.4972    13
 N  H  Rav=1.0079 sigma=0.0000  Rmin=1.0079  Rmax=1.0079     1
 N  C  Rav=1.3415 sigma=0.0284  Rmin=1.3000  Rmax=1.3740     6
 O  C  Rav=1.3918 sigma=0.0184  Rmin=1.3652  Rmax=1.4116     4
 S  C  Rav=1.8351 sigma=0.0321  Rmin=1.8029  Rmax=1.8672     2
 S  O  Rav=1.4720 sigma=0.0000  Rmin=1.4720  Rmax=1.4720     1

 selected bond angles (degree)
 --------------------
H25-C1-C2=110.19               H26-C1-C2=110.26               H26-C1-H25=109.28              H27-C1-C2=110.49               
H27-C1-H25=108.65              H27-C1-H26=107.92              C3-C2-C1=121.77                C8-C2-C1=121.51                
C8-C2-C3=116.72                O4-C3-C2=119.98                C6-C3-C2=120.25                C6-C3-O4=119.74                
C5-O4-C3=113.74                H28-C5-O4=111.63               H29-C5-O4=106.16               H29-C5-H28=109.46              
H30-C5-O4=111.32               H30-C5-H28=108.75              H30-C5-H29=109.48              C7-C6-C3=120.85                
C10-C6-C3=117.09               C10-C6-C7=122.06               H31-C7-C6=110.82               H32-C7-C6=109.91               
H32-C7-H31=108.69              H33-C7-C6=109.87               H33-C7-H31=108.93              H33-C7-H32=108.57              
N9-C8-C2=123.93                H34-C8-C2=120.54               H34-C8-N9=115.53               C10-N9-C8=119.16               
N9-C10-C6=122.81               C11-C10-C6=122.17              C11-C10-N9=115.01              

 selected dihedral angles (degree)
 ---------------------------------
C3-C2-C1-H25=336.58           C3-C2-C1-H26=215.87           C3-C2-C1-H27= 96.66           C8-C2-C1-H25=155.91           
C8-C2-C1-H26= 35.20           C8-C2-C1-H27=275.98           O4-C3-C2-C1=  0.38            O4-C3-C2-C8=181.02            
C6-C3-C2-C1=178.22            C6-C3-C2-C8=358.86            C5-O4-C3-C2=272.87            C5-O4-C3-C6= 95.02            
H28-C5-O4-C3= 60.50           H29-C5-O4-C3=179.71           H30-C5-O4-C3=298.76           C7-C6-C3-C2=183.02            
C7-C6-C3-O4=  0.86            C10-C6-C3-C2=  2.28           C10-C6-C3-O4=180.12           H31-C7-C6-C3=247.40           
H31-C7-C6-C10= 68.17          H32-C7-C6-C3=127.25           H32-C7-C6-C10=308.02          H33-C7-C6-C3=  7.83           
H33-C7-C6-C10=188.61          N9-C8-C2-C1=179.93            N9-C8-C2-C3=359.29            H34-C8-C2-C1=  0.20           
H34-C8-C2-C3=179.55           C10-N9-C8-C2=  1.29           C10-N9-C8-H34=181.04          N9-C10-C6-C3=358.25           
N9-C10-C6-C7=177.50           C11-C10-C6-C3=179.75          C11-C10-C6-C7=359.00          C6-C10-N9-C8=  0.00           
C11-C10-N9-C8=178.60          
           -------------------------------------------------
          |                Final Singlepoint                |
           -------------------------------------------------

          ...................................................
          :                      SETUP                      :
          :.................................................:
          :  # basis functions                 121          :
          :  # atomic orbitals                 120          :
          :  # shells                           68          :
          :  # electrons                       126          :
          :  max. iterations                   250          :
          :  Hamiltonian                  GFN2-xTB          :
          :  restarted?                      false          :
          :  GBSA solvation                  false          :
          :  PC potential                    false          :
          :  electronic temp.          300.0000000     K    :
          :  accuracy                    1.0000000          :
          :  -> integral cutoff          0.2500000E+02      :
          :  -> integral neglect         0.1000000E-07      :
          :  -> SCF convergence          0.1000000E-05 Eh   :
          :  -> wf. convergence          0.1000000E-03 e    :
          :  Broyden damping             0.4000000          :
          :  net charge                          0          :
          :  unpaired electrons                  0          :
          ...................................................

 iter      E             dE          RMSdq      gap      omega  full diag
   1    -71.2368449 -0.712368E+02  0.115E-04    2.99       0.0  T
   2    -71.2368449 -0.703864E-10  0.759E-05    2.99     200.8  T
   3    -71.2368449 -0.396057E-10  0.502E-05    2.99     303.7  T

   *** convergence criteria satisfied after 3 iterations ***

         #    Occupation            Energy/Eh            Energy/eV
      -------------------------------------------------------------
         1        2.0000           -0.7604612             -20.6932
       ...           ...                  ...                  ...
        57        2.0000           -0.4062889             -11.0557
        58        2.0000           -0.4041280             -10.9969
        59        2.0000           -0.3975298             -10.8173
        60        2.0000           -0.3899269             -10.6104
        61        2.0000           -0.3832812             -10.4296
        62        2.0000           -0.3750641             -10.2060
        63        2.0000           -0.3698520             -10.0642 (HOMO)
        64                         -0.2598026              -7.0696 (LUMO)
        65                         -0.2430132              -6.6127
        66                         -0.2339066              -6.3649
        67                         -0.2086794              -5.6785
        68                         -0.2038370              -5.5467
       ...                                ...                  ...
       120                          0.8882313              24.1700
      -------------------------------------------------------------
                  HL-Gap            0.1100495 Eh            2.9946 eV
             Fermi-level           -0.3148273 Eh           -8.5669 eV

 SCC (total)                   0 d,  0 h,  0 min,  0.083 sec
 SCC setup                      ...        0 min,  0.000 sec (  0.386%)
 Dispersion                     ...        0 min,  0.000 sec (  0.371%)
 classical contributions        ...        0 min,  0.000 sec (  0.185%)
 integral evaluation            ...        0 min,  0.008 sec (  9.503%)
 iterations                     ...        0 min,  0.007 sec (  8.625%)
 molecular gradient             ...        0 min,  0.067 sec ( 80.736%)
 printout                       ...        0 min,  0.000 sec (  0.186%)

         :::::::::::::::::::::::::::::::::::::::::::::::::::::
         ::                     SUMMARY                     ::
         :::::::::::::::::::::::::::::::::::::::::::::::::::::
         :: total energy             -70.311195958330 Eh    ::
         :: gradient norm              0.000381994694 Eh/a0 ::
         :: HOMO-LUMO gap              2.994598424818 eV    ::
         ::.................................................::
         :: SCC energy               -71.237116746783 Eh    ::
         :: -> isotropic ES            0.091982596607 Eh    ::
         :: -> anisotropic ES          0.006698704013 Eh    ::
         :: -> anisotropic XC          0.029270217004 Eh    ::
         :: -> dispersion             -0.047218824517 Eh    ::
         :: repulsion energy           0.925920788453 Eh    ::
         :: add. restraining           0.000000000000 Eh    ::
         :: total charge              -0.000000000000 e     ::
         :::::::::::::::::::::::::::::::::::::::::::::::::::::

           -------------------------------------------------
          |                Property Printout                |
           -------------------------------------------------

    * Orbital Energies and Occupations

         #    Occupation            Energy/Eh            Energy/eV
      -------------------------------------------------------------
         1        2.0000           -0.7604612             -20.6932
       ...           ...                  ...                  ...
        51        2.0000           -0.4541303             -12.3575
        52        2.0000           -0.4459877             -12.1359
        53        2.0000           -0.4420767             -12.0295
        54        2.0000           -0.4356293             -11.8541
        55        2.0000           -0.4241609             -11.5420
        56        2.0000           -0.4147502             -11.2859
        57        2.0000           -0.4062889             -11.0557
        58        2.0000           -0.4041280             -10.9969
        59        2.0000           -0.3975298             -10.8173
        60        2.0000           -0.3899269             -10.6104
        61        2.0000           -0.3832812             -10.4296
        62        2.0000           -0.3750641             -10.2060
        63        2.0000           -0.3698520             -10.0642 (HOMO)
        64                         -0.2598026              -7.0696 (LUMO)
        65                         -0.2430132              -6.6127
        66                         -0.2339066              -6.3649
        67                         -0.2086794              -5.6785
        68                         -0.2038370              -5.5467
        69                         -0.1820384              -4.9535
        70                         -0.1671754              -4.5491
        71                         -0.1152010              -3.1348
        72                         -0.0842072              -2.2914
        73                         -0.0446611              -1.2153
        74                         -0.0039217              -0.1067
       ...                                ...                  ...
       120                          0.8882313              24.1700
      -------------------------------------------------------------
                  HL-Gap            0.1100495 Eh            2.9946 eV
             Fermi-level           -0.3148273 Eh           -8.5669 eV

     #   Z          covCN         q      C6AA      α(0)
     1   6 C        3.757    -0.104    22.539     6.769
     2   6 C        2.957    -0.016    28.402     8.741
     3   6 C        2.896     0.135    25.051     8.206
     4   8 O        1.703    -0.306    19.105     5.901
     5   6 C        3.657     0.047    20.075     6.431
     6   6 C        2.959    -0.015    28.393     8.740
     7   6 C        3.756    -0.110    22.659     6.787
     8   6 C        2.910     0.041    27.076     8.532
     9   7 N        1.843    -0.244    27.210     7.731
    10   6 C        3.000     0.078    26.242     8.403
    11   6 C        3.802    -0.089    22.201     6.708
    12  16 S        2.872     0.430   124.760    18.799
    13   6 C        3.202     0.105    25.142     8.169
    14   7 N        1.892    -0.285    28.246     7.879
    15   6 C        3.219     0.069    25.782     8.257
    16   6 C        3.097     0.034    27.131     8.537
    17   7 N        2.799    -0.111    23.419     7.187
    18   6 C        2.907    -0.053    29.307     8.877
    19   6 C        2.924    -0.069    29.713     8.939
    20   6 C        2.865     0.137    25.007     8.197
    21   8 O        1.706    -0.268    18.449     5.799
    22   6 C        3.642     0.037    20.294     6.477
    23   6 C        2.911    -0.067    29.677     8.933
    24   8 O        0.859    -0.501    23.802     6.541
    25   1 H        0.925     0.059     2.205     2.322
    26   1 H        0.925     0.047     2.358     2.401
    27   1 H        0.924     0.047     2.363     2.404
    28   1 H        0.924     0.032     2.554     2.499
    29   1 H        0.925     0.058     2.227     2.333
    30   1 H        0.924     0.031     2.568     2.506
    31   1 H        0.924     0.040     2.454     2.450
    32   1 H        0.925     0.076     2.021     2.223
    33   1 H        0.925     0.058     2.222     2.331
    34   1 H        0.925     0.044     2.394     2.420
    35   1 H        0.925     0.089     1.891     2.151
    36   1 H        0.925     0.068     2.109     2.271
    37   1 H        0.860     0.189     1.162     1.688
    38   1 H        0.926     0.037     2.483     2.464
    39   1 H        0.926     0.042     2.421     2.433
    40   1 H        0.924     0.039     2.458     2.452
    41   1 H        0.925     0.063     2.163     2.300
    42   1 H        0.924     0.040     2.453     2.450
    43   1 H        0.926     0.066     2.129     2.282

 Mol. C6AA /au·bohr⁶  :      23693.348293
 Mol. C8AA /au·bohr⁸  :     592353.230107
 Mol. α(0) /au        :        239.922378


Wiberg/Mayer (AO) data.
largest (>0.10) Wiberg bond orders for each atom

 ---------------------------------------------------------------------------
     #   Z sym  total        # sym  WBO       # sym  WBO       # sym  WBO
 ---------------------------------------------------------------------------
     1   6 C    3.995 --     2 C    1.027    25 H    0.980    26 H    0.979
                            27 H    0.966
     2   6 C    3.984 --     8 C    1.396     3 C    1.365     1 C    1.027
     3   6 C    3.944 --     6 C    1.378     2 C    1.365     4 O    1.000
     4   8 O    2.106 --     3 C    1.000     5 C    0.971
     5   6 C    3.949 --    29 H    0.980    30 H    0.980    28 H    0.979
                             4 O    0.971
     6   6 C    3.985 --     3 C    1.378    10 C    1.358     7 C    1.028
                             8 C    0.102
     7   6 C    3.992 --     6 C    1.028    33 H    0.981    31 H    0.967
                            32 H    0.964
     8   6 C    3.982 --     9 N    1.442     2 C    1.396    34 H    0.961
                             6 C    0.102
     9   7 N    3.060 --     8 C    1.442    10 C    1.400
    10   6 C    3.982 --     9 N    1.400     6 C    1.358    11 C    1.027
    11   6 C    3.979 --    10 C    1.027    36 H    0.965    35 H    0.963
                            12 S    0.877
    12  16 S    3.754 --    24 O    1.792    13 C    0.931    11 C    0.877
    13   6 C    3.948 --    14 N    1.551    17 N    1.229    12 S    0.931
    14   7 N    3.015 --    13 C    1.551    15 C    1.200    17 N    0.127
    15   6 C    3.977 --    23 C    1.353    16 C    1.236    14 N    1.200
    16   6 C    3.951 --    18 C    1.356    15 C    1.236    17 N    1.149
    17   7 N    3.560 --    13 C    1.229    16 C    1.149    37 H    0.931
                            14 N    0.127
    18   6 C    3.988 --    19 C    1.475    16 C    1.356    38 H    0.968
                            23 C    0.115
    19   6 C    3.981 --    18 C    1.475    20 C    1.327    39 H    0.966
    20   6 C    3.935 --    23 C    1.403    19 C    1.327    21 O    1.057
    21   8 O    2.224 --    20 C    1.057    22 C    0.987
    22   6 C    3.947 --    21 O    0.987    41 H    0.979    40 H    0.976
                            42 H    0.976
    23   6 C    3.982 --    20 C    1.403    15 C    1.353    43 H    0.964
                            18 C    0.115
    24   8 O    1.974 --    12 S    1.792
    25   1 H    0.996 --     1 C    0.980
    26   1 H    0.997 --     1 C    0.979
    27   1 H    0.997 --     1 C    0.966
    28   1 H    0.999 --     5 C    0.979
    29   1 H    0.996 --     5 C    0.980
    30   1 H    0.999 --     5 C    0.980
    31   1 H    0.998 --     7 C    0.967
    32   1 H    0.994 --     7 C    0.964
    33   1 H    0.997 --     7 C    0.981
    34   1 H    0.997 --     8 C    0.961
    35   1 H    0.992 --    11 C    0.963
    36   1 H    0.995 --    11 C    0.965
    37   1 H    0.964 --    17 N    0.931
    38   1 H    0.999 --    18 C    0.968
    39   1 H    0.998 --    19 C    0.966
    40   1 H    0.998 --    22 C    0.976
    41   1 H    0.996 --    22 C    0.979
    42   1 H    0.998 --    22 C    0.976
    43   1 H    0.995 --    23 C    0.964
 ---------------------------------------------------------------------------

Topologies differ in total number of bonds
Writing topology from bond orders to xtbtopo.mol

molecular dipole:
                 x           y           z       tot (Debye)
 q only:        0.349       0.053       0.716
   full:        0.334      -0.707       1.110       3.451
molecular quadrupole (traceless):
                xx          xy          yy          xz          yz          zz
 q only:       23.658     -12.551     -16.038      -5.803      -4.520      -7.620
  q+dip:       30.674     -18.984     -18.061      -7.924      -3.598     -12.613
   full:       29.919     -18.962     -21.106      -9.013      -2.681      -8.814

           -------------------------------------------------
          |                Geometry Summary                 |
           -------------------------------------------------

      molecular mass/u    :      345.4164963
   center of mass at/Å    :        0.2297608       0.1000872      -0.3430016
  moments of inertia/u·Å² :        0.7102856E+03   0.6695772E+04   0.6867835E+04
rotational constants/cm⁻¹ :        0.2373360E-01   0.2517653E-02   0.2454577E-02

 * 42 selected distances

     #   Z          #   Z                                           value/Å
     2   6 C        3   6 C                                       1.3978692
     3   6 C        4   8 O                                       1.3845307
     4   8 O        5   6 C                                       1.4116076
     3   6 C        6   6 C                                       1.3970373
     2   6 C        8   6 C                                       1.3888912
     8   6 C        9   7 N                                       1.3171371
     6   6 C       10   6 C                                       1.3986540
     9   7 N       10   6 C                                       1.3265349
    10   6 C       11   6 C                                       1.4897261
    12  16 S       13   6 C                                       1.8029459 (max)
    13   6 C       14   7 N                                       1.2999928
    14   7 N       15   6 C                                       1.3739533
    15   6 C       16   6 C                                       1.4192751
    13   6 C       17   7 N                                       1.3595245
    16   6 C       17   7 N                                       1.3720712
    16   6 C       18   6 C                                       1.3821565
    18   6 C       19   6 C                                       1.3816391
    19   6 C       20   6 C                                       1.4032606
    20   6 C       21   8 O                                       1.3651674
    21   8 O       22   6 C                                       1.4058303
    15   6 C       23   6 C                                       1.3858176
    20   6 C       23   6 C                                       1.3892794
    12  16 S       24   8 O                                       1.4719766
     1   6 C       25   1 H                                       1.0875455
     1   6 C       26   1 H                                       1.0876032
     1   6 C       27   1 H                                       1.0909130
     5   6 C       28   1 H                                       1.0950667
     5   6 C       29   1 H                                       1.0886623
     5   6 C       30   1 H                                       1.0958743
     7   6 C       31   1 H                                       1.0909827
     7   6 C       32   1 H                                       1.0875541
     7   6 C       33   1 H                                       1.0865633
     8   6 C       34   1 H                                       1.0822746
    11   6 C       35   1 H                                       1.0870641
    11   6 C       36   1 H                                       1.0864581
    17   7 N       37   1 H                                       1.0078717 (min)
    18   6 C       38   1 H                                       1.0792186
    19   6 C       39   1 H                                       1.0780898
    22   6 C       40   1 H                                       1.0951995
    22   6 C       41   1 H                                       1.0890891
    22   6 C       42   1 H                                       1.0951946
    23   6 C       43   1 H                                       1.0762317

 * 7 distinct bonds (by element types)

   Z      Z             #   av. dist./Å        max./Å        min./Å
   1 H    6 C          18     1.0877547     1.0958743     1.0762317
   6 C    6 C          11     1.4030551     1.4897261     1.3816391
   1 H    7 N           1     1.0078717     1.0078717     1.0078717
   6 C    7 N           6     1.3415356     1.3739533     1.2999928
[...]
   
   for DFT-D4:
   * E. Caldeweyher, C. Bannwarth and S. Grimme, J. Chem. Phys., 2017,
     147, 034112. DOI: 10.1063/1.4993215
   * E. Caldeweyher, S. Ehlert, A. Hansen, H. Neugebauer, S. Spicher,
     C. Bannwarth and S. Grimme, J. Chem. Phys., 2019, 150, 154122.
     DOI: 10.1063/1.5090222
   * E. Caldeweyher, J.-M. Mewes, S. Ehlert and S. Grimme, Phys. Chem. Chem. Phys.
     2020, 22, 8499-8512. DOI: 10.1039/D0CP00502A
   
   for sTDA-xTB:
   * S. Grimme and C. Bannwarth, J. Chem. Phys., 2016, 145, 054103.
     DOI: 10.1063/1.4959605
   
   in the mass-spec context:
   * V. Asgeirsson, C. Bauer and S. Grimme, Chem. Sci., 2017, 8, 4879.
     DOI: 10.1039/c7sc00601b
   * J. Koopman and S. Grimme, ACS Omega 2019, 4, 12, 15120-15133.
     DOI: 10.1021/acsomega.9b02011
   
   for metadynamics refer to:
   * S. Grimme, J. Chem. Theory Comput., 2019, 155, 2847-2862
     DOI: 10.1021/acs.jctc.9b00143
   
   for SPH calculations refer to:
   * S. Spicher and S. Grimme, J. Chem. Theory Comput., 2021, 17, 1701-1714
     DOI: 10.1021/acs.jctc.0c01306
   
   for ONIOM refer to:
   * C. Plett, A. Katbashev, S. Ehlert, S. Grimme, M. Bursch,
     Phys. Chem. Chem. Phys., 2023, 25, 17860-17868. DOI: 10.1039/D3CP02178E
   
   for DIPRO refer to:
   * J. Kohn, N. Gildemeister, S. Grimme, D. Fazzi, A. Hansen,
     J. Chem. Phys., 2023, just accepted.
   
   for PTB refer to:
   * S. Grimme, M. Mueller, A. Hansen, J. Chem. Phys., 2023, 158, 124111.
     DOI: 10.1063/5.0137838
   
   with help from (in alphabetical order)
   P. Atkinson, C. Bannwarth, F. Bohle, G. Brandenburg, E. Caldeweyher
   M. Checinski, S. Dohm, S. Ehlert, S. Ehrlich, I. Gerasimov, C. Hölzer
   A. Katbashev, J. Kohn, J. Koopman, C. Lavigne, S. Lehtola, F. März, M. Müller,
   F. Musil, H. Neugebauer, J. Pisarek, C. Plett, P. Pracht, F. Pultar,
   J. Seibert, P. Shushkov, S. Spicher, M. Stahn, M. Steiner, T. Strunk,
   J. Stückrath, T. Rose, and J. Unsleber
   
 * started run on 2025/05/15 at 16:30:04.538     
   ID    Z sym.   atoms
    1    6 C      1-3, 5-8, 10, 11, 13, 15, 16, 18-20, 22, 23
    2    8 O      4, 21, 24
    3    7 N      9, 14, 17
    4   16 S      12
    5    1 H      25-43

           -------------------------------------------------
          |                Calculation Setup                |
           -------------------------------------------------

          program call               : xtb /rds/general/user/hgt20/home/callum/QDESCP/Omeprazole_rdkit_conf_6/Omeprazole_rdkit_conf_6.xyz --acc 1 --gfn 2 --chrg 0 --uhf 2 --etemp 300 --input /rds/general/user/hgt20/home/callum/QDESCP/Omeprazole_rdkit_conf_6/Omeprazole_rdkit_conf_6_xtb.inp -P 1
          hostname                   : login-c
          coordinate file            : /rds/general/user/hgt20/home/callum/QDESCP/Omeprazole_rdkit_conf_6/Omeprazole_rdkit_conf_6.xyz
          omp threads                :                     1


           -------------------------------------------------
          |                 G F N 2 - x T B                 |
           -------------------------------------------------

        Reference                      10.1021/acs.jctc.8b01176
      * Hamiltonian:
        H0-scaling (s, p, d)           1.850000    2.230000    2.230000
        zeta-weighting                 0.500000
      * Dispersion:
        s8                             2.700000
        a1                             0.520000
        a2                             5.000000
        s9                             5.000000
      * Repulsion:
        kExp                           1.500000    1.000000
        rExp                           1.000000
      * Coulomb:
        alpha                          2.000000
        third order                    shell-resolved
        anisotropic                    true
        a3                             3.000000
        a5                             4.000000
        cn-shift                       1.200000
        cn-exp                         4.000000
        max-rad                        5.000000


          ...................................................
          :                      SETUP                      :
          :.................................................:
          :  # basis functions                 121          :
          :  # atomic orbitals                 120          :
          :  # shells                           68          :
          :  # electrons                       126          :
          :  max. iterations                   250          :
          :  Hamiltonian                  GFN2-xTB          :
          :  restarted?                      false          :
          :  GBSA solvation                  false          :
          :  PC potential                    false          :
          :  electronic temp.          300.0000000     K    :
          :  accuracy                    1.0000000          :
          :  -> integral cutoff          0.2500000E+02      :
          :  -> integral neglect         0.1000000E-07      :
          :  -> SCF convergence          0.1000000E-05 Eh   :
          :  -> wf. convergence          0.1000000E-03 e    :
          :  Broyden damping             0.4000000          :
          :  net charge                          0          :
          :  unpaired electrons                  2          :
          ...................................................

 iter      E             dE          RMSdq      gap      omega  full diag
   1    -70.9601867 -0.709602E+02  0.444E+00    0.44       0.0  T
   2    -70.9794839 -0.192972E-01  0.291E+00    0.29       1.0  T
   3    -70.7496031  0.229881E+00  0.235E+00    1.13       1.0  T
   4    -70.8685426 -0.118940E+00  0.178E+00    0.39       1.0  T
   5    -70.9944225 -0.125880E+00  0.135E+00    0.78       1.0  T
   6    -71.0987357 -0.104313E+00  0.714E-01    0.36       1.0  T
   7    -71.0190469  0.796888E-01  0.908E-01    0.55       1.0  T
   8    -71.0988637 -0.798168E-01  0.599E-01    0.28       1.0  T
   9    -71.1089207 -0.100570E-01  0.470E-01    0.42       1.0  T
  10    -71.1113805 -0.245985E-02  0.293E-01    0.32       1.0  T
  11    -71.1116442 -0.263720E-03  0.199E-01    0.33       1.0  T
  12    -71.1099611  0.168311E-02  0.263E-01    0.29       1.0  T
  13    -71.1131132 -0.315206E-02  0.198E-01    0.29       1.0  T
  14    -71.1166231 -0.350991E-02  0.529E-02    0.30       1.0  T
  15    -71.1167849 -0.161814E-03  0.277E-02    0.30       1.0  T
  16    -71.1167753  0.956439E-05  0.261E-02    0.30       1.0  T
  17    -71.1168166 -0.412488E-04  0.166E-02    0.30       1.0  T
  18    -71.1168433 -0.267038E-04  0.554E-03    0.30       2.8  T
  19    -71.1168400  0.332797E-05  0.792E-03    0.30       1.9  T
  20    -71.1168404 -0.383948E-06  0.765E-03    0.30       2.0  T
  21    -71.1168462 -0.583998E-05  0.302E-03    0.30       5.1  T
  22    -71.1168474 -0.115519E-05  0.704E-04    0.30      21.7  T
  23    -71.1168474 -0.925471E-08  0.627E-04    0.30      24.3  T
  24    -71.1168474 -0.384590E-07  0.210E-04    0.30      72.5  T

   *** convergence criteria satisfied after 24 iterations ***

         #    Occupation            Energy/Eh            Energy/eV
      -------------------------------------------------------------
         1        2.0000           -0.7512149             -20.4416
       ...           ...                  ...                  ...
        58        2.0000           -0.3982985             -10.8383
        59        2.0000           -0.3923378             -10.6761
        60        1.9780           -0.3808127             -10.3624
        61        1.8906           -0.3792007             -10.3186
        62        1.7487           -0.3782455             -10.2926
        63        1.3827           -0.3767539             -10.2520
        64        0.9969           -0.2512621              -6.8372 (HOMO)
        65        0.0031           -0.2402727              -6.5382 (LUMO)
        66        0.0000           -0.2310905              -6.2883
        67                         -0.2071772              -5.6376
        68                         -0.1994001              -5.4260
        69                         -0.1707427              -4.6461
       ...                                ...                  ...
       120                          0.8948548              24.3502
      -------------------------------------------------------------
                  HL-Gap            0.0109894 Eh            0.2990 eV
             Fermi-level           -0.3114878 Eh           -8.4760 eV

 transition dipole moment (au) for excitation:          63          64
     X       Y       Z   
  -1.6319   0.7602   0.0159  total (au/Debye):    1.800   4.576
 dE (eV)             :    3.415
 oscillator strength :  0.38349E+00

 SCC (total)                   0 d,  0 h,  0 min,  0.145 sec
 SCC setup                      ...        0 min,  0.000 sec (  0.305%)
 Dispersion                     ...        0 min,  0.001 sec (  0.363%)
 classical contributions        ...        0 min,  0.000 sec (  0.108%)
 integral evaluation            ...        0 min,  0.008 sec (  5.728%)
 iterations                     ...        0 min,  0.103 sec ( 70.993%)
 molecular gradient             ...        0 min,  0.025 sec ( 17.075%)
 printout                       ...        0 min,  0.008 sec (  5.424%)

         :::::::::::::::::::::::::::::::::::::::::::::::::::::
         ::                     SUMMARY                     ::
         :::::::::::::::::::::::::::::::::::::::::::::::::::::
         :: total energy             -70.191198502732 Eh    ::
         :: gradient norm              0.098966660209 Eh/a0 ::
         :: HOMO-LUMO gap              0.299037366862 eV    ::
         ::.................................................::
         :: SCC energy               -71.117119291185 Eh    ::
         :: -> isotropic ES            0.087047459763 Eh    ::
         :: -> anisotropic ES          0.005951647332 Eh    ::
         :: -> anisotropic XC          0.025042394620 Eh    ::
         :: -> dispersion             -0.047209011498 Eh    ::
         :: repulsion energy           0.925920788453 Eh    ::
         :: add. restraining           0.000000000000 Eh    ::
         :: total charge               0.000000000010 e     ::
         :::::::::::::::::::::::::::::::::::::::::::::::::::::

           -------------------------------------------------
          |                Property Printout                |
           -------------------------------------------------

    * Orbital Energies and Occupations

         #    Occupation            Energy/Eh            Energy/eV
      -------------------------------------------------------------
         1        2.0000           -0.7512149             -20.4416
       ...           ...                  ...                  ...
        52        2.0000           -0.4435243             -12.0689
        53        2.0000           -0.4420457             -12.0287
        54        2.0000           -0.4354337             -11.8488
        55        2.0000           -0.4211551             -11.4602
        56        2.0000           -0.4113686             -11.1939
        57        2.0000           -0.4027741             -10.9600
        58        2.0000           -0.3982985             -10.8383
        59        2.0000           -0.3923378             -10.6761
        60        1.9780           -0.3808127             -10.3624
        61        1.8906           -0.3792007             -10.3186
        62        1.7487           -0.3782455             -10.2926
        63        1.3827           -0.3767539             -10.2520
        64        0.9969           -0.2512621              -6.8372 (HOMO)
        65        0.0031           -0.2402727              -6.5382 (LUMO)
        66        0.0000           -0.2310905              -6.2883
        67                         -0.2071772              -5.6376
        68                         -0.1994001              -5.4260
        69                         -0.1707427              -4.6461
        70                         -0.1609092              -4.3786
        71                         -0.1125777              -3.0634
        72                         -0.0828269              -2.2538
        73                         -0.0368972              -1.0040
        74                          0.0031005               0.0844
        75                          0.0188172               0.5120
       ...                                ...                  ...
       120                          0.8948548              24.3502
      -------------------------------------------------------------
                  HL-Gap            0.0109894 Eh            0.2990 eV
             Fermi-level           -0.3114878 Eh           -8.4760 eV

     #   Z          covCN         q      C6AA      α(0)
     1   6 C        3.757    -0.103    22.513     6.765
     2   6 C        2.957    -0.021    28.539     8.762
     3   6 C        2.896     0.124    25.287     8.245
     4   8 O        1.703    -0.307    19.109     5.902
     5   6 C        3.657     0.046    20.086     6.433
     6   6 C        2.959    -0.009    28.247     8.718
     7   6 C        3.756    -0.109    22.644     6.785
     8   6 C        2.910     0.040    27.092     8.535
     9   7 N        1.843    -0.210    26.404     7.615
    10   6 C        3.000     0.062    26.591     8.459
    11   6 C        3.802    -0.085    22.129     6.697
    12  16 S        2.872     0.393   126.049    18.896
    13   6 C        3.202     0.080    25.663     8.253
    14   7 N        1.892    -0.296    28.532     7.919
    15   6 C        3.219     0.072    25.713     8.246
    16   6 C        3.097     0.053    26.694     8.467
    17   7 N        2.799    -0.113    23.456     7.193
    18   6 C        2.907    -0.065    29.614     8.923
    19   6 C        2.924    -0.079    29.971     8.978
    20   6 C        2.865     0.148    24.782     8.160
    21   8 O        1.706    -0.238    17.944     5.719
    22   6 C        3.642     0.032    20.384     6.491
    23   6 C        2.911    -0.077    29.933     8.971
    24   8 O        0.859    -0.483    23.417     6.488
    25   1 H        0.925     0.061     2.191     2.315
    26   1 H        0.925     0.046     2.370     2.407
    27   1 H        0.924     0.046     2.376     2.411
    28   1 H        0.924     0.032     2.563     2.503
    29   1 H        0.925     0.056     2.242     2.341
    30   1 H        0.924     0.030     2.582     2.513
    31   1 H        0.924     0.042     2.417     2.431
    32   1 H        0.925     0.079     1.990     2.206
    33   1 H        0.925     0.061     2.183     2.311
    34   1 H        0.925     0.049     2.332     2.388
    35   1 H        0.925     0.085     1.931     2.173
    36   1 H        0.925     0.069     2.100     2.266
    37   1 H        0.860     0.186     1.178     1.700
    38   1 H        0.926     0.034     2.535     2.490
    39   1 H        0.926     0.036     2.499     2.472
    40   1 H        0.924     0.051     2.312     2.378
    41   1 H        0.925     0.069     2.098     2.265
    42   1 H        0.924     0.051     2.307     2.375
    43   1 H        0.926     0.062     2.171     2.304

 Mol. C6AA /au·bohr⁶  :      23675.733621
 Mol. C8AA /au·bohr⁸  :     592446.857533
 Mol. α(0) /au        :        239.872192


Wiberg/Mayer (AO) data.
largest (>0.10) Wiberg bond orders for each atom

 ---------------------------------------------------------------------------
     #   Z sym  total        # sym  WBO       # sym  WBO       # sym  WBO
 ---------------------------------------------------------------------------
     1   6 C    3.987 --     2 C    1.026    25 H    0.978    26 H    0.978
                            27 H    0.965
     2   6 C    3.870 --     8 C    1.386     3 C    1.295     1 C    1.026
     3   6 C    3.876 --     6 C    1.399     2 C    1.295     4 O    0.996
     4   8 O    2.097 --     3 C    0.996     5 C    0.973
     5   6 C    3.945 --    29 H    0.980    30 H    0.979    28 H    0.978
                             4 O    0.973
     6   6 C    3.937 --     3 C    1.399    10 C    1.304     7 C    1.029
     7   6 C    3.981 --     6 C    1.029    33 H    0.978    31 H    0.965
                            32 H    0.960
     8   6 C    3.942 --     9 N    1.429     2 C    1.386    34 H    0.956
     9   7 N    2.962 --     8 C    1.429    10 C    1.308
    10   6 C    3.884 --     9 N    1.308     6 C    1.304    11 C    1.064
    11   6 C    3.921 --    10 C    1.064    36 H    0.964    35 H    0.962
                            12 S    0.782
    12  16 S    3.769 --    24 O    1.759    13 C    0.998    11 C    0.782
    13   6 C    3.840 --    14 N    1.439    17 N    1.130    12 S    0.998
    14   7 N    2.939 --    13 C    1.439    15 C    1.232
    15   6 C    3.938 --    23 C    1.333    14 N    1.232    16 C    1.192
    16   6 C    3.882 --    18 C    1.303    17 N    1.204    15 C    1.192
    17   7 N    3.486 --    16 C    1.204    13 C    1.130    37 H    0.932
    18   6 C    3.853 --    19 C    1.410    16 C    1.303    38 H    0.968
    19   6 C    3.882 --    18 C    1.410    20 C    1.319    39 H    0.966
    20   6 C    3.819 --    19 C    1.319    23 C    1.283    21 O    1.093
    21   8 O    2.215 --    20 C    1.093    22 C    0.986
    22   6 C    3.939 --    21 O    0.986    41 H    0.978    40 H    0.971
                            42 H    0.971
    23   6 C    3.804 --    15 C    1.333    20 C    1.283    43 H    0.964
    24   8 O    1.938 --    12 S    1.759
    25   1 H    0.994 --     1 C    0.978
    26   1 H    0.994 --     1 C    0.978
    27   1 H    0.991 --     1 C    0.965
    28   1 H    0.999 --     5 C    0.978
    29   1 H    0.995 --     5 C    0.980
    30   1 H    0.999 --     5 C    0.979
    31   1 H    0.996 --     7 C    0.965
    32   1 H    0.991 --     7 C    0.960
    33   1 H    0.993 --     7 C    0.978
    34   1 H    0.989 --     8 C    0.956
    35   1 H    0.991 --    11 C    0.962
    36   1 H    0.992 --    11 C    0.964
    37   1 H    0.965 --    17 N    0.932
    38   1 H    0.998 --    18 C    0.968
    39   1 H    0.998 --    19 C    0.966
    40   1 H    0.991 --    22 C    0.971
    41   1 H    0.995 --    22 C    0.978
    42   1 H    0.991 --    22 C    0.971
    43   1 H    0.995 --    23 C    0.964
 ---------------------------------------------------------------------------

Topologies differ in total number of bonds
Writing topology from bond orders to xtbtopo.mol

molecular dipole:
                 x           y           z       tot (Debye)
 q only:        0.747       0.208       0.870
   full:        0.788      -0.435       1.250       3.916
molecular quadrupole (traceless):
                xx          xy          yy          xz          yz          zz
 q only:       31.339     -10.316     -19.241      -3.638      -4.519     -12.099
  q+dip:       38.121     -16.424     -20.904      -5.188      -3.817     -17.217
   full:       37.260     -16.485     -23.628      -6.335      -3.037     -13.632


           -------------------------------------------------
          | TOTAL ENERGY              -70.191198502732 Eh   |
          | GRADIENT NORM               0.098966660209 Eh/α |
          | HOMO-LUMO GAP               0.299037366862 eV   |
           -------------------------------------------------

------------------------------------------------------------------------
 * finished run on 2025/05/15 at 16:30:04.780     
------------------------------------------------------------------------
 total:
 * wall-time:     0 d,  0 h,  0 min,  0.242 sec
 *  cpu-time:     0 d,  0 h,  0 min,  0.112 sec
 * ratio c/w:     0.465 speedup
 SCF:
 * wall-time:     0 d,  0 h,  0 min,  0.145 sec
 *  cpu-time:     0 d,  0 h,  0 min,  0.100 sec
 * ratio c/w:     0.686 speedup


