43
 energy: -70.311195958330 gnorm: 0.000381994694 xtb: 6.7.1 (edcfbbe)
C           -6.44079519102484        1.15208267187876       -0.55094566442290
C           -4.96904015405716        0.93507567747032       -0.38884464559597
C           -4.45506584623649       -0.24118353724738        0.16458328677579
O           -5.31460978632579       -1.24702984660127        0.57248328468860
C           -5.77724829768704       -1.09669203320694        1.89762466734722
C           -3.07408530545462       -0.42593574922629        0.26691673290941
C           -2.50806059696864       -1.70737438356772        0.79525233425520
C           -4.04546286448369        1.88964043257912       -0.79483660924272
N           -2.74144212921644        1.74911734023815       -0.67386985673725
C           -2.25731380376675        0.62671005146176       -0.15858737135931
C           -0.77078526495482        0.55295581757935       -0.09473772260109
S           -0.12639156285704       -0.15785780796835       -1.69660060887097
C            1.59697687367608        0.01585102522367       -1.19616118864140
N            2.21673273745406        1.10537684292261       -0.85146258312718
C            3.50934999201978        0.71558263880193       -0.59661255364643
C            3.63331101232138       -0.68129204303440       -0.81505268639098
N            2.38372171375483       -1.09287288406767       -1.20454831978446
C            4.83687180072837       -1.33468094689624       -0.62828933425505
C            5.91913812588189       -0.57946809355260       -0.21929139408620
C            5.80946595573306        0.80161491575119        0.00369225495430
O            6.84703779420092        1.58994185231829        0.41071450083955
C            8.10440575569069        1.00278220492052        0.63572108419741
C            4.60140939329397        1.46179456042214       -0.18301355790694
O           -0.31374967137848       -1.61666353421019       -1.63746110756848
H           -6.95933709493348        0.19682355404460       -0.58767897506097
H           -6.64149344052612        1.70496724499177       -1.46577863587532
H           -6.83567269954872        1.73139480175361        0.28485346728650
H           -6.33227672882911       -0.16173084255887        2.02786239871187
H           -6.43915764113094       -1.94047535572269        2.08495063731048
H           -4.94806932621462       -1.11672163177562        2.61386576118740
H           -2.01628042468129       -1.54722362939303        1.75584958729541
H           -1.77999605395219       -2.10777845071702        0.09355991358037
H           -3.30283117647268       -2.43712260380250        0.92341926748100
H           -4.37515609528082        2.82025851185297       -1.23819917899169
H           -0.33816978193978        1.54958492293301       -0.05892770395019
H           -0.40695177895044       -0.07119433927836        0.71671335813052
H            2.05257329886307       -2.01717033431856       -1.43218860443498
H            4.93587066366241       -2.39612108436214       -0.79638639660946
H            6.86410658974507       -1.07744540149887       -0.07324150721847
H            8.06176979647271        0.24353202591765        1.42387276841397
H            8.75292790840494        1.81619978345363        0.95803397550345
H            8.51342314777266        0.55782797111805       -0.27760885320247
H            4.53005015719863        2.52161968537209       -0.00994422128391
