39
 energy: -51.131782923809 gnorm: 0.000454959653 xtb: 6.7.1 (edcfbbe)
C           -2.98413089376169        0.64370319762785       -1.88658427805667
C           -2.98496089100972        0.41022836060468       -0.40987340727311
C           -4.18425221283828        0.43418326287177        0.29112862634023
C           -4.23150931532903        0.15337887690715        1.64221976165713
C           -3.06825637748755       -0.17772297480902        2.31338365482827
C           -1.85048396100669       -0.19581568187340        1.65308096249864
C           -0.59626185122148       -0.55882735496985        2.39185355528180
C           -1.80738710679540        0.12949693671883        0.29131122917285
N           -0.56330019012017        0.10298339312881       -0.36707955625690
C           -0.02680729568644        1.03834665931616       -1.18340843197091
C            1.31427694388207        0.56872339278126       -1.76084652704990
N            2.08469427671262       -0.19950962960972       -0.79507734345263
C            3.06541112605600        0.63622699766478       -0.11545490778334
C            2.41859388036931        1.70334234256779        0.75683246678148
C            2.68339126778751       -1.41825920530075       -1.32501034068584
C            2.83803889151942       -2.48153391048134       -0.24059521655095
O           -0.52828136338959        2.10025483203052       -1.48354275710065
H           -3.99632742404604        0.59502148007165       -2.28016991712724
H           -2.36998389504142       -0.10182136793112       -2.39124037755544
H           -2.56209435220507        1.62193885068464       -2.11523473685566
H           -5.09577410275595        0.66469055328079       -0.24096647025810
H           -5.17344965410915        0.17662516157275        2.16951356992334
H           -3.10345830409637       -0.41958814921077        3.36584988549138
H           -0.15448839829654       -1.47164201111145        1.98903386080221
H            0.14116136548350        0.23815448529955        2.31225806401247
H           -0.81197603374127       -0.72398880751040        3.44424999753971
H            0.11431893847251       -0.58659137388206       -0.05642761447515
H            1.06217448172734       -0.05365275745802       -2.62551918428222
H            1.85785692491567        1.44513043436060       -2.13787714881940
H            3.67775648490877       -0.00948554615073        0.51703127227042
H            3.73537852803084        1.12205074061021       -0.84787171037733
H            1.77713176066916        2.35897605043389        0.17444619897376
H            3.19259809798636        2.30600584201410        1.22648814364371
H            1.82109948730344        1.24112594939067        1.53795231037818
H            3.66290789796106       -1.22008614505368       -1.79048109051950
H            2.02283626978953       -1.81795607101478       -2.09835914608273
H            3.22992009035842       -3.39591959213295       -0.67874068057542
H            1.87375561363552       -2.69865452591769        0.21219767725602
H            3.51988129536584       -2.15913269554477        0.54142960624650
