----- Optimization -----
      -----------------------------------------------------------      
     |                   =====================                   |     
     |                           x T B                           |     
     |                   =====================                   |     
     |                         S. Grimme                         |     
     |          Mulliken Center for Theoretical Chemistry        |     
     |                    University of Bonn                     |     
      -----------------------------------------------------------      

   * xtb version 6.7.1 (edcfbbe) compiled by 'conda@3ef47c1a292c' on 2024-11-25

   xtb is free software: you can redistribute it and/or modify it under
   the terms of the GNU Lesser General Public License as published by
   the Free Software Foundation, either version 3 of the License, or
   (at your option) any later version.
   
   xtb is distributed in the hope that it will be useful,
   but WITHOUT ANY WARRANTY; without even the implied warranty of
   MERCHANTABILITY or FITNESS FOR A PARTICULAR PURPOSE.  See the
   GNU Lesser General Public License for more details.
   
   Cite this work as:
   * C. Bannwarth, E. Caldeweyher, S. Ehlert, A. Hansen, P. Pracht,
     J. Seibert, S. Spicher, S. Grimme, WIREs Comput. Mol. Sci., 2020, 11,
     e01493. DOI: 10.1002/wcms.1493
   
   for GFN2-xTB:
   * C. Bannwarth, S. Ehlert and S. Grimme., J. Chem. Theory Comput., 2019,
     15, 1652-1671. DOI: 10.1021/acs.jctc.8b01176
   for GFN1-xTB:
   * S. Grimme, C. Bannwarth, P. Shushkov, J. Chem. Theory Comput., 2017,
     13, 1989-2009. DOI: 10.1021/acs.jctc.7b00118
   for GFN0-xTB:
   * P. Pracht, E. Caldeweyher, S. Ehlert, S. Grimme, ChemRxiv, 2019, preprint.
     DOI: 10.26434/chemrxiv.8326202.v1
   for GFN-FF:
   * S. Spicher and S. Grimme, Angew. Chem. Int. Ed., 2020, 59, 15665-15673.
     DOI: 10.1002/anie.202004239
   
   for ALPB and GBSA implicit solvation:
   * S. Ehlert, M. Stahn, S. Spicher, S. Grimme, J. Chem. Theory Comput.,
     2021, 17, 4250-4261. DOI: 10.1021/acs.jctc.1c00471
   
   for ddCOSMO and CPCM-X implicit solvation:
   * M. Stahn, S. Ehlert, S. Grimme, J. Phys. Chem. A,
     2023, XX, XXXX-XXXX. DOI: 10.1021/acs.jpca.3c04382
   
   for DFT-D4:
   * E. Caldeweyher, C. Bannwarth and S. Grimme, J. Chem. Phys., 2017,
     147, 034112. DOI: 10.1063/1.4993215
   * E. Caldeweyher, S. Ehlert, A. Hansen, H. Neugebauer, S. Spicher,
     C. Bannwarth and S. Grimme, J. Chem. Phys., 2019, 150, 154122.
     DOI: 10.1063/1.5090222
   * E. Caldeweyher, J.-M. Mewes, S. Ehlert and S. Grimme, Phys. Chem. Chem. Phys.
     2020, 22, 8499-8512. DOI: 10.1039/D0CP00502A
   
   for sTDA-xTB:
   * S. Grimme and C. Bannwarth, J. Chem. Phys., 2016, 145, 054103.
     DOI: 10.1063/1.4959605
   
   in the mass-spec context:
   * V. Asgeirsson, C. Bauer and S. Grimme, Chem. Sci., 2017, 8, 4879.
     DOI: 10.1039/c7sc00601b
   * J. Koopman and S. Grimme, ACS Omega 2019, 4, 12, 15120-15133.
     DOI: 10.1021/acsomega.9b02011
   
   for metadynamics refer to:
   * S. Grimme, J. Chem. Theory Comput., 2019, 155, 2847-2862
     DOI: 10.1021/acs.jctc.9b00143
   
   for SPH calculations refer to:
   * S. Spicher and S. Grimme, J. Chem. Theory Comput., 2021, 17, 1701-1714
     DOI: 10.1021/acs.jctc.0c01306
   
   for ONIOM refer to:
   * C. Plett, A. Katbashev, S. Ehlert, S. Grimme, M. Bursch,
     Phys. Chem. Chem. Phys., 2023, 25, 17860-17868. DOI: 10.1039/D3CP02178E
   
   for DIPRO refer to:
   * J. Kohn, N. Gildemeister, S. Grimme, D. Fazzi, A. Hansen,
     J. Chem. Phys., 2023, just accepted.
   
   for PTB refer to:
   * S. Grimme, M. Mueller, A. Hansen, J. Chem. Phys., 2023, 158, 124111.
     DOI: 10.1063/5.0137838
   
   with help from (in alphabetical order)
   P. Atkinson, C. Bannwarth, F. Bohle, G. Brandenburg, E. Caldeweyher
   M. Checinski, S. Dohm, S. Ehlert, S. Ehrlich, I. Gerasimov, C. Hölzer
   A. Katbashev, J. Kohn, J. Koopman, C. Lavigne, S. Lehtola, F. März, M. Müller,
   F. Musil, H. Neugebauer, J. Pisarek, C. Plett, P. Pracht, F. Pultar,
   J. Seibert, P. Shushkov, S. Spicher, M. Stahn, M. Steiner, T. Strunk,
   J. Stückrath, T. Rose, and J. Unsleber
   
 * started run on 2025/05/15 at 16:06:35.104     
   ID    Z sym.   atoms
    1    6 C      1-8, 10, 11, 13-16
    2    7 N      9, 12
    3    8 O      17
    4    1 H      18-39

           -------------------------------------------------
          |                Calculation Setup                |
           -------------------------------------------------

          program call               : xtb /rds/general/user/hgt20/home/callum/QDESCP/Lidocaine_rdkit_conf_14/Lidocaine_rdkit_conf_14.xyz --opt normal --acc 1 --gfn 2 --chrg 0 --uhf 0 -P 1
          hostname                   : login-c
          coordinate file            : /rds/general/user/hgt20/home/callum/QDESCP/Lidocaine_rdkit_conf_14/Lidocaine_rdkit_conf_14.xyz
          omp threads                :                     1


           -------------------------------------------------
          |                 G F N 2 - x T B                 |
           -------------------------------------------------

        Reference                      10.1021/acs.jctc.8b01176
      * Hamiltonian:
        H0-scaling (s, p, d)           1.850000    2.230000    2.230000
        zeta-weighting                 0.500000
      * Dispersion:
        s8                             2.700000
        a1                             0.520000
        a2                             5.000000
        s9                             5.000000
      * Repulsion:
        kExp                           1.500000    1.000000
        rExp                           1.000000
      * Coulomb:
        alpha                          2.000000
        third order                    shell-resolved
        anisotropic                    true
        a3                             3.000000
        a5                             4.000000
        cn-shift                       1.200000
        cn-exp                         4.000000
        max-rad                        5.000000


          ...................................................
          :                      SETUP                      :
          :.................................................:
          :  # basis functions                  90          :
          :  # atomic orbitals                  90          :
          :  # shells                           56          :
          :  # electrons                        94          :
          :  max. iterations                   250          :
          :  Hamiltonian                  GFN2-xTB          :
          :  restarted?                      false          :
          :  GBSA solvation                  false          :
          :  PC potential                    false          :
          :  electronic temp.          300.0000000     K    :
          :  accuracy                    1.0000000          :
          :  -> integral cutoff          0.2500000E+02      :
          :  -> integral neglect         0.1000000E-07      :
          :  -> SCF convergence          0.1000000E-05 Eh   :
          :  -> wf. convergence          0.1000000E-03 e    :
          :  Broyden damping             0.4000000          :
          :  net charge                          0          :
          :  unpaired electrons                  0          :
          ...................................................

 iter      E             dE          RMSdq      gap      omega  full diag
   1    -51.7362012 -0.517362E+02  0.337E+00    3.50       0.0  T
   2    -51.8215463 -0.853451E-01  0.192E+00    3.71       1.0  T
   3    -51.8241995 -0.265319E-02  0.955E-01    3.72       1.0  T
   4    -51.8267572 -0.255765E-02  0.233E-01    3.60       1.0  T
   5    -51.8282758 -0.151860E-02  0.870E-02    3.66       1.0  T
   6    -51.8284152 -0.139437E-03  0.429E-02    3.67       1.0  T
   7    -51.8284358 -0.205564E-04  0.194E-02    3.66       1.0  T
   8    -51.8284403 -0.455878E-05  0.493E-03    3.66       3.2  T
   9    -51.8284404 -0.103113E-06  0.205E-03    3.66       7.8  T
  10    -51.8284405 -0.662083E-07  0.104E-03    3.66      15.3  T
  11    -51.8284405 -0.666010E-08  0.377E-04    3.66      42.4  T
  12    -51.8284405 -0.716128E-09  0.956E-05    3.66     167.4  T

   *** convergence criteria satisfied after 12 iterations ***

         #    Occupation            Energy/Eh            Energy/eV
      -------------------------------------------------------------
         1        2.0000           -0.6930779             -18.8596
       ...           ...                  ...                  ...
        41        2.0000           -0.4327202             -11.7749
        42        2.0000           -0.4203033             -11.4370
        43        2.0000           -0.4188475             -11.3974
        44        2.0000           -0.3930517             -10.6955
        45        2.0000           -0.3812407             -10.3741
        46        2.0000           -0.3689390             -10.0393
        47        2.0000           -0.3686471             -10.0314 (HOMO)
        48                         -0.2340274              -6.3682 (LUMO)
        49                         -0.2170445              -5.9061
        50                         -0.1941715              -5.2837
        51                         -0.0931244              -2.5340
        52                         -0.0115368              -0.3139
       ...                                ...                  ...
        90                          0.6396627              17.4061
      -------------------------------------------------------------
                  HL-Gap            0.1346197 Eh            3.6632 eV
             Fermi-level           -0.3013373 Eh           -8.1998 eV

 SCC (total)                   0 d,  0 h,  0 min,  0.042 sec
 SCC setup                      ...        0 min,  0.000 sec (  0.729%)
 Dispersion                     ...        0 min,  0.000 sec (  0.839%)
 classical contributions        ...        0 min,  0.000 sec (  0.299%)
 integral evaluation            ...        0 min,  0.006 sec ( 13.629%)
 iterations                     ...        0 min,  0.018 sec ( 43.115%)
 molecular gradient             ...        0 min,  0.017 sec ( 41.067%)
 printout                       ...        0 min,  0.000 sec (  0.305%)

         :::::::::::::::::::::::::::::::::::::::::::::::::::::
         ::                     SUMMARY                     ::
         :::::::::::::::::::::::::::::::::::::::::::::::::::::
         :: total energy             -51.118316702446 Eh    ::
         :: gradient norm              0.060731887130 Eh/a0 ::
         :: HOMO-LUMO gap              3.663189822544 eV    ::
         ::.................................................::
         :: SCC energy               -51.827958066402 Eh    ::
         :: -> isotropic ES            0.045723607986 Eh    ::
         :: -> anisotropic ES          0.008592295399 Eh    ::
         :: -> anisotropic XC          0.029458658347 Eh    ::
         :: -> dispersion             -0.036323271959 Eh    ::
         :: repulsion energy           0.709641363956 Eh    ::
         :: add. restraining           0.000000000000 Eh    ::
         :: total charge              -0.000000000000 e     ::
         :::::::::::::::::::::::::::::::::::::::::::::::::::::

      ----------------------------------------------------------- 
     |                   =====================                   |
     |                        A N C O P T                        |
     |                   =====================                   |
     |               Approximate Normal Coordinate               |
     |                Rational Function Optimizer                |
      ----------------------------------------------------------- 
      ----------------------------------------------------------- 
     |                   =====================                   |
     |                        A N C O P T                        |
     |                   =====================                   |
     |               Approximate Normal Coordinate               |
     |                Rational Function Optimizer                |
      ----------------------------------------------------------- 

          ...................................................
          :                      SETUP                      :
          :.................................................:
          :   optimization level            normal          :
          :   max. optcycles                   200          :
          :   ANC micro-cycles                  20          :
          :   degrees of freedom               111          :
          :.................................................:
          :   RF solver                   davidson          :
          :   write xtbopt.log                true          :
          :   linear?                        false          :
          :   energy convergence         0.5000000E-05 Eh   :
          :   grad. convergence          0.1000000E-02 Eh/α :
          :   maxmium RF displ.          1.0000000          :
          :   Hlow (freq-cutoff)         0.1000000E-01      :
          :   Hmax (freq-cutoff)         5.0000000          :
          :   S6 in model hess.         20.0000000          :
          ...................................................

generating ANC from exact Hessian ...
Using Lindh-Hessian (1995)
 Shifting diagonal of input Hessian by    9.7663823972467395E-003
 Lowest  eigenvalues of input Hessian
    0.000000    0.000000    0.000000    0.000000    0.000000    0.000000
    0.010000    0.010266    0.010487    0.011187    0.011932    0.012740
    0.013545    0.014690    0.015044    0.015290    0.017095    0.017474
 Highest eigenvalues
    1.552602    1.797629    1.820668    1.932913    2.002987    2.254396


........................................................................
.............................. CYCLE    1 ..............................
........................................................................

 iter      E             dE          RMSdq      gap      omega  full diag
   1    -51.8284405 -0.518284E+02  0.508E-05    3.66       0.0  T
   2    -51.8284405 -0.143530E-10  0.292E-05    3.66     548.2  T
   3    -51.8284405 -0.846256E-11  0.195E-05    3.66     820.0  T
     SCC iter.                  ...        0 min,  0.005 sec
     gradient                   ...        0 min,  0.017 sec
 * total energy  :   -51.1183167 Eh     change       -0.1334044E-09 Eh
   gradient norm :     0.0607320 Eh/α   predicted     0.0000000E+00 (-100.00%)
   displ. norm   :     0.2907601 α      lambda       -0.9301914E-02
   maximum displ.:     0.0916737 α      in ANC's #12, #34, #15, ...

........................................................................
.............................. CYCLE    2 ..............................
........................................................................

 iter      E             dE          RMSdq      gap      omega  full diag
   1    -51.8668563 -0.518669E+02  0.181E-01    3.67       0.0  T
   2    -51.8668931 -0.367875E-04  0.108E-01    3.65       1.0  T
   3    -51.8668791  0.140123E-04  0.276E-02    3.64       1.0  T
   4    -51.8669000 -0.209483E-04  0.506E-03    3.63       3.2  T
   5    -51.8669004 -0.362060E-06  0.277E-03    3.63       5.8  T
   6    -51.8669005 -0.937554E-07  0.128E-03    3.64      12.5  T
   7    -51.8669005 -0.260870E-07  0.425E-04    3.64      37.7  T
   8    -51.8669005 -0.103904E-08  0.146E-04    3.64     109.7  T
     SCC iter.                  ...        0 min,  0.011 sec
     gradient                   ...        0 min,  0.017 sec
 * total energy  :   -51.1245338 Eh     change       -0.6217131E-02 Eh
   gradient norm :     0.0210790 Eh/α   predicted    -0.5044245E-02 ( -18.87%)
   displ. norm   :     0.2924080 α      lambda       -0.2579228E-02
   maximum displ.:     0.1256522 α      in ANC's #12, #15, #19, ...

........................................................................
.............................. CYCLE    3 ..............................
........................................................................

 iter      E             dE          RMSdq      gap      omega  full diag
   1    -51.8836523 -0.518837E+02  0.111E-01    3.61       0.0  T
   2    -51.8836807 -0.284014E-04  0.659E-02    3.62       1.0  T
   3    -51.8836768  0.395831E-05  0.200E-02    3.62       1.0  T
   4    -51.8836831 -0.637472E-05  0.501E-03    3.61       3.2  T
   5    -51.8836841 -0.935379E-06  0.178E-03    3.61       9.0  T
   6    -51.8836841 -0.253051E-07  0.865E-04    3.62      18.5  T
   7    -51.8836841 -0.872709E-08  0.228E-04    3.62      70.1  T
     SCC iter.                  ...        0 min,  0.010 sec
     gradient                   ...        0 min,  0.018 sec
 * total energy  :   -51.1262276 Eh     change       -0.1693739E-02 Eh
   gradient norm :     0.0099545 Eh/α   predicted    -0.1400645E-02 ( -17.30%)
   displ. norm   :     0.2987961 α      lambda       -0.1063982E-02
   maximum displ.:     0.1304584 α      in ANC's #12, #15, #3, ...

........................................................................
.............................. CYCLE    4 ..............................
........................................................................

 iter      E             dE          RMSdq      gap      omega  full diag
   1    -51.8865864 -0.518866E+02  0.902E-02    3.58       0.0  T
   2    -51.8866044 -0.179620E-04  0.531E-02    3.59       1.0  T
   3    -51.8866023  0.207254E-05  0.158E-02    3.58       1.0  T
   4    -51.8866057 -0.339504E-05  0.443E-03    3.58       3.6  T
   5    -51.8866064 -0.644340E-06  0.140E-03    3.58      11.5  T
   6    -51.8866064 -0.532890E-08  0.558E-04    3.58      28.7  T
   7    -51.8866064 -0.258773E-08  0.193E-04    3.58      82.8  T
     SCC iter.                  ...        0 min,  0.010 sec
     gradient                   ...        0 min,  0.018 sec
 * total energy  :   -51.1270414 Eh     change       -0.8138762E-03 Eh
   gradient norm :     0.0119935 Eh/α   predicted    -0.5794881E-03 ( -28.80%)
   displ. norm   :     0.4123620 α      lambda       -0.1071003E-02
   maximum displ.:     0.1618414 α      in ANC's #12, #3, #8, ...

........................................................................
.............................. CYCLE    5 ..............................
........................................................................

 iter      E             dE          RMSdq      gap      omega  full diag
   1    -51.8842953 -0.518843E+02  0.121E-01    3.54       0.0  T
   2    -51.8843113 -0.159798E-04  0.710E-02    3.55       1.0  T
   3    -51.8843049  0.636594E-05  0.194E-02    3.54       1.0  T
   4    -51.8843136 -0.869784E-05  0.482E-03    3.54       3.3  T
   5    -51.8843142 -0.596422E-06  0.179E-03    3.54       8.9  T
   6    -51.8843142 -0.723667E-08  0.653E-04    3.54      24.5  T
   7    -51.8843142 -0.266720E-08  0.258E-04    3.54      62.0  T
     SCC iter.                  ...        0 min,  0.010 sec
     gradient                   ...        0 min,  0.017 sec
 * total energy  :   -51.1277810 Eh     change       -0.7395449E-03 Eh
   gradient norm :     0.0154576 Eh/α   predicted    -0.6265644E-03 ( -15.28%)
   displ. norm   :     0.2893396 α      lambda       -0.5855499E-03
   maximum displ.:     0.1222136 α      in ANC's #8, #3, #5, ...

........................................................................
.............................. CYCLE    6 ..............................
........................................................................

 iter      E             dE          RMSdq      gap      omega  full diag
   1    -51.8830069 -0.518830E+02  0.771E-02    3.55       0.0  T
   2    -51.8830107 -0.377905E-05  0.446E-02    3.54       1.0  T
   3    -51.8830063  0.441218E-05  0.144E-02    3.54       1.1  T
   4    -51.8830121 -0.576240E-05  0.220E-03    3.54       7.3  T
   5    -51.8830121 -0.639339E-07  0.108E-03    3.54      14.8  T
   6    -51.8830121 -0.404122E-08  0.450E-04    3.54      35.5  T
   7    -51.8830121 -0.186603E-08  0.156E-04    3.54     102.9  T
     SCC iter.                  ...        0 min,  0.010 sec
     gradient                   ...        0 min,  0.018 sec
 * total energy  :   -51.1281969 Eh     change       -0.4158896E-03 Eh
   gradient norm :     0.0112902 Eh/α   predicted    -0.3172882E-03 ( -23.71%)
   displ. norm   :     0.2557519 α      lambda       -0.4235884E-03
   maximum displ.:     0.1269468 α      in ANC's #8, #5, #3, ...

........................................................................
.............................. CYCLE    7 ..............................
........................................................................

 iter      E             dE          RMSdq      gap      omega  full diag
   1    -51.8832020 -0.518832E+02  0.661E-02    3.56       0.0  T
   2    -51.8832076 -0.563225E-05  0.383E-02    3.55       1.0  T
   3    -51.8832051  0.254219E-05  0.131E-02    3.55       1.2  T
   4    -51.8832086 -0.354846E-05  0.273E-03    3.55       5.9  T
   5    -51.8832088 -0.169404E-06  0.952E-04    3.55      16.8  T
   6    -51.8832088 -0.223049E-08  0.433E-04    3.55      37.0  T
     SCC iter.                  ...        0 min,  0.008 sec
     gradient                   ...        0 min,  0.018 sec
 * total energy  :   -51.1285050 Eh     change       -0.3081268E-03 Eh
   gradient norm :     0.0064448 Eh/α   predicted    -0.2256518E-03 ( -26.77%)
   displ. norm   :     0.2651960 α      lambda       -0.3172475E-03
   maximum displ.:     0.1376871 α      in ANC's #8, #5, #13, ...

........................................................................
.............................. CYCLE    8 ..............................
........................................................................

 iter      E             dE          RMSdq      gap      omega  full diag
   1    -51.8845033 -0.518845E+02  0.619E-02    3.56       0.0  T
   2    -51.8845082 -0.494811E-05  0.359E-02    3.55       1.0  T
   3    -51.8845066  0.167692E-05  0.110E-02    3.56       1.5  T
   4    -51.8845089 -0.235258E-05  0.255E-03    3.55       6.3  T
   5    -51.8845091 -0.163225E-06  0.884E-04    3.55      18.1  T
   6    -51.8845091 -0.248184E-08  0.369E-04    3.55      43.4  T
     SCC iter.                  ...        0 min,  0.008 sec
     gradient                   ...        0 min,  0.018 sec
 * total energy  :   -51.1287360 Eh     change       -0.2310370E-03 Eh
   gradient norm :     0.0050943 Eh/α   predicted    -0.1697806E-03 ( -26.51%)
   displ. norm   :     0.2867880 α      lambda       -0.2345941E-03
   maximum displ.:     0.1384625 α      in ANC's #8, #5, #7, ...

........................................................................
.............................. CYCLE    9 ..............................
........................................................................

 iter      E             dE          RMSdq      gap      omega  full diag
   1    -51.8848485 -0.518848E+02  0.648E-02    3.55       0.0  T
   2    -51.8848506 -0.211504E-05  0.380E-02    3.55       1.0  T
   3    -51.8848488  0.175115E-05  0.836E-03    3.55       1.9  T
   4    -51.8848511 -0.224578E-05  0.184E-03    3.55       8.7  T
   5    -51.8848511 -0.631427E-07  0.831E-04    3.55      19.3  T
   6    -51.8848511 -0.165097E-08  0.271E-04    3.55      59.1  T
     SCC iter.                  ...        0 min,  0.008 sec
     gradient                   ...        0 min,  0.018 sec
 * total energy  :   -51.1288951 Eh     change       -0.1590296E-03 Eh
   gradient norm :     0.0048873 Eh/α   predicted    -0.1269469E-03 ( -20.17%)
   displ. norm   :     0.2574482 α      lambda       -0.2088236E-03
   maximum displ.:     0.1364457 α      in ANC's #7, #5, #9, ...

........................................................................
.............................. CYCLE   10 ..............................
........................................................................

 iter      E             dE          RMSdq      gap      omega  full diag
   1    -51.8887621 -0.518888E+02  0.488E-02    3.56       0.0  T
   2    -51.8887674 -0.525227E-05  0.287E-02    3.56       1.0  T
   3    -51.8887671  0.260715E-06  0.849E-03    3.56       1.9  T
   4    -51.8887679 -0.768206E-06  0.150E-03    3.56      10.6  T
   5    -51.8887679 -0.333468E-07  0.802E-04    3.56      20.0  T
   6    -51.8887679 -0.489712E-08  0.343E-04    3.56      46.7  T
     SCC iter.                  ...        0 min,  0.009 sec
     gradient                   ...        0 min,  0.018 sec
 * total energy  :   -51.1289736 Eh     change       -0.7855011E-04 Eh
   gradient norm :     0.0102311 Eh/α   predicted    -0.1113341E-03 (  41.74%)
   displ. norm   :     0.2128472 α      lambda       -0.1497636E-03
   maximum displ.:     0.0982785 α      in ANC's #5, #8, #7, ...

........................................................................
.............................. CYCLE   11 ..............................
........................................................................

 iter      E             dE          RMSdq      gap      omega  full diag
   1    -51.8860992 -0.518861E+02  0.521E-02    3.53       0.0  T
   2    -51.8861029 -0.371266E-05  0.309E-02    3.53       1.0  T
   3    -51.8861018  0.114052E-05  0.830E-03    3.53       1.9  T
   4    -51.8861033 -0.154479E-05  0.213E-03    3.53       7.5  T
   5    -51.8861035 -0.131274E-06  0.815E-04    3.53      19.7  T
   6    -51.8861035 -0.366046E-08  0.364E-04    3.53      44.0  T
     SCC iter.                  ...        0 min,  0.008 sec
     gradient                   ...        0 min,  0.018 sec
 * total energy  :   -51.1290558 Eh     change       -0.8222068E-04 Eh
   gradient norm :     0.0044564 Eh/α   predicted    -0.7830579E-04 (  -4.76%)
   displ. norm   :     0.0776315 α      lambda       -0.9649403E-04
   maximum displ.:     0.0460261 α      in ANC's #7, #9, #5, ...

........................................................................
.............................. CYCLE   12 ..............................
........................................................................

 iter      E             dE          RMSdq      gap      omega  full diag
   1    -51.8879351 -0.518879E+02  0.223E-02    3.51       0.0  T
   2    -51.8879367 -0.162153E-05  0.129E-02    3.52       1.2  T
   3    -51.8879367 -0.292748E-07  0.422E-03    3.52       3.8  T
   4    -51.8879368 -0.836598E-07  0.856E-04    3.52      18.7  T
   5    -51.8879368 -0.986594E-08  0.472E-04    3.52      33.9  T
     SCC iter.                  ...        0 min,  0.007 sec
     gradient                   ...        0 min,  0.018 sec
 * total energy  :   -51.1291072 Eh     change       -0.5138208E-04 Eh
   gradient norm :     0.0036577 Eh/α   predicted    -0.4854137E-04 (  -5.53%)
   displ. norm   :     0.1534896 α      lambda       -0.8830416E-04
   maximum displ.:     0.0849907 α      in ANC's #7, #5, #13, ...

........................................................................
.............................. CYCLE   13 ..............................
........................................................................

 iter      E             dE          RMSdq      gap      omega  full diag
   1    -51.8878791 -0.518879E+02  0.292E-02    3.51       0.0  T
   2    -51.8878794 -0.343812E-06  0.173E-02    3.51       1.0  T
   3    -51.8878791  0.368971E-06  0.348E-03    3.51       4.6  T
   4    -51.8878796 -0.478395E-06  0.857E-04    3.51      18.7  T
   5    -51.8878796 -0.738522E-08  0.403E-04    3.51      39.7  T
     SCC iter.                  ...        0 min,  0.007 sec
     gradient                   ...        0 min,  0.020 sec
 * total energy  :   -51.1291726 Eh     change       -0.6541893E-04 Eh
   gradient norm :     0.0025264 Eh/α   predicted    -0.4519309E-04 ( -30.92%)
   displ. norm   :     0.2262952 α      lambda       -0.8137271E-04
   maximum displ.:     0.1285895 α      in ANC's #7, #5, #13, ...

........................................................................
.............................. CYCLE   14 ..............................
........................................................................

 iter      E             dE          RMSdq      gap      omega  full diag
   1    -51.8868259 -0.518868E+02  0.382E-02    3.50       0.0  T
   2    -51.8868265 -0.510907E-06  0.225E-02    3.50       1.0  T
   3    -51.8868258  0.658595E-06  0.461E-03    3.50       3.5  T
   4    -51.8868266 -0.839983E-06  0.110E-03    3.50      14.6  T
   5    -51.8868266 -0.116492E-07  0.483E-04    3.50      33.1  T
   6    -51.8868267 -0.103201E-08  0.120E-04    3.50     133.7  T
     SCC iter.                  ...        0 min,  0.008 sec
     gradient                   ...        0 min,  0.017 sec
 * total energy  :   -51.1292223 Eh     change       -0.4968737E-04 Eh
   gradient norm :     0.0036590 Eh/α   predicted    -0.4277008E-04 ( -13.92%)
   displ. norm   :     0.1274303 α      lambda       -0.5452790E-04
   maximum displ.:     0.0649904 α      in ANC's #7, #1, #5, ...

........................................................................
.............................. CYCLE   15 ..............................
........................................................................

 iter      E             dE          RMSdq      gap      omega  full diag
   1    -51.8875382 -0.518875E+02  0.247E-02    3.50       0.0  T
   2    -51.8875387 -0.506099E-06  0.146E-02    3.50       1.1  T
   3    -51.8875384  0.287442E-06  0.315E-03    3.50       5.1  T
   4    -51.8875387 -0.357671E-06  0.938E-04    3.50      17.1  T
   5    -51.8875388 -0.272637E-07  0.366E-04    3.50      43.7  T
     SCC iter.                  ...        0 min,  0.007 sec
     gradient                   ...        0 min,  0.017 sec
 * total energy  :   -51.1292580 Eh     change       -0.3564222E-04 Eh
   gradient norm :     0.0034539 Eh/α   predicted    -0.2770980E-04 ( -22.26%)
   displ. norm   :     0.1745492 α      lambda       -0.5603129E-04
   maximum displ.:     0.0911494 α      in ANC's #5, #7, #1, ...

........................................................................
.............................. CYCLE   16 ..............................
........................................................................

 iter      E             dE          RMSdq      gap      omega  full diag
   1    -51.8869273 -0.518869E+02  0.274E-02    3.49       0.0  T
   2    -51.8869276 -0.256663E-06  0.161E-02    3.50       1.0  T
   3    -51.8869275  0.422244E-07  0.194E-03    3.50       8.3  T
   4    -51.8869276 -0.910096E-07  0.625E-04    3.50      25.6  T
   5    -51.8869276 -0.343361E-08  0.294E-04    3.50      54.5  T
     SCC iter.                  ...        0 min,  0.007 sec
     gradient                   ...        0 min,  0.018 sec
 * total energy  :   -51.1293022 Eh     change       -0.4423578E-04 Eh
   gradient norm :     0.0025940 Eh/α   predicted    -0.2887305E-04 ( -34.73%)
   displ. norm   :     0.2228957 α      lambda       -0.8533560E-04
   maximum displ.:     0.1208232 α      in ANC's #1, #5, #7, ...

........................................................................
.............................. CYCLE   17 ..............................
........................................................................

 iter      E             dE          RMSdq      gap      omega  full diag
   1    -51.8874669 -0.518875E+02  0.352E-02    3.50       0.0  T
   2    -51.8874676 -0.747058E-06  0.207E-02    3.50       1.0  T
   3    -51.8874672  0.445081E-06  0.466E-03    3.50       3.4  T
   4    -51.8874678 -0.599071E-06  0.100E-03    3.50      16.0  T
   5    -51.8874678 -0.149576E-07  0.474E-04    3.50      33.8  T
   6    -51.8874678 -0.228214E-08  0.191E-04    3.50      83.9  T
     SCC iter.                  ...        0 min,  0.008 sec
     gradient                   ...        0 min,  0.018 sec
 * total energy  :   -51.1293590 Eh     change       -0.5680729E-04 Eh
   gradient norm :     0.0033348 Eh/α   predicted    -0.4478802E-04 ( -21.16%)
   displ. norm   :     0.2842825 α      lambda       -0.6749303E-04
   maximum displ.:     0.1607306 α      in ANC's #5, #1, #7, ...

........................................................................
.............................. CYCLE   18 ..............................
........................................................................

 iter      E             dE          RMSdq      gap      omega  full diag
   1    -51.8851672 -0.518852E+02  0.432E-02    3.50       0.0  T
   2    -51.8851678 -0.648242E-06  0.255E-02    3.50       1.0  T
   3    -51.8851677  0.953761E-07  0.295E-03    3.50       5.4  T
   4    -51.8851679 -0.185926E-06  0.117E-03    3.50      13.6  T
   5    -51.8851679 -0.240836E-07  0.495E-04    3.50      32.4  T
   6    -51.8851680 -0.878664E-09  0.115E-04    3.50     139.4  T
     SCC iter.                  ...        0 min,  0.009 sec
     gradient                   ...        0 min,  0.017 sec
 * total energy  :   -51.1293918 Eh     change       -0.3279032E-04 Eh
   gradient norm :     0.0052169 Eh/α   predicted    -0.3647426E-04 (  11.23%)
   displ. norm   :     0.1244951 α      lambda       -0.6482479E-04
   maximum displ.:     0.0707122 α      in ANC's #1, #3, #4, ...

........................................................................
.............................. CYCLE   19 ..............................
........................................................................

 iter      E             dE          RMSdq      gap      omega  full diag
   1    -51.8868509 -0.518869E+02  0.181E-02    3.51       0.0  T
   2    -51.8868513 -0.417988E-06  0.105E-02    3.51       1.5  T
   3    -51.8868511  0.226227E-06  0.356E-03    3.51       4.5  T
   4    -51.8868514 -0.307479E-06  0.709E-04    3.51      22.6  T
   5    -51.8868514 -0.788237E-08  0.287E-04    3.51      55.9  T
     SCC iter.                  ...        0 min,  0.007 sec
     gradient                   ...        0 min,  0.018 sec
 * total energy  :   -51.1294378 Eh     change       -0.4602556E-04 Eh
   gradient norm :     0.0037328 Eh/α   predicted    -0.3291983E-04 ( -28.47%)
   displ. norm   :     0.2325496 α      lambda       -0.6058560E-04
   maximum displ.:     0.1280539 α      in ANC's #1, #5, #3, ...

........................................................................
.............................. CYCLE   20 ..............................
........................................................................

 iter      E             dE          RMSdq      gap      omega  full diag
   1    -51.8873321 -0.518873E+02  0.310E-02    3.50       0.0  T
   2    -51.8873327 -0.567294E-06  0.183E-02    3.51       1.0  T
   3    -51.8873325  0.185745E-06  0.332E-03    3.51       4.8  T
   4    -51.8873328 -0.264491E-06  0.949E-04    3.51      16.9  T
   5    -51.8873328 -0.145418E-07  0.384E-04    3.51      41.7  T
     SCC iter.                  ...        0 min,  0.007 sec
     gradient                   ...        0 min,  0.017 sec
 * total energy  :   -51.1294776 Eh     change       -0.3978270E-04 Eh
   gradient norm :     0.0027168 Eh/α   predicted    -0.3193258E-04 ( -19.73%)
   displ. norm   :     0.1484940 α      lambda       -0.3575126E-04
   maximum displ.:     0.0850352 α      in ANC's #1, #3, #5, ...
 * RMSD in coord.:     0.5275256 α      energy gain  -0.1116092E-01 Eh

generating ANC from exact Hessian ...
Using Lindh-Hessian (1995)
 Shifting diagonal of input Hessian by    9.6964706374114140E-003
 Lowest  eigenvalues of input Hessian
    0.000000    0.000000    0.000000    0.000000    0.000000    0.000000
    0.010000    0.010302    0.010584    0.011387    0.011849    0.012998
    0.013412    0.015168    0.015627    0.015923    0.017653    0.018356
 Highest eigenvalues
    1.631107    1.886062    1.906842    2.016991    2.104692    2.360923


........................................................................
.............................. CYCLE   21 ..............................
........................................................................

 iter      E             dE          RMSdq      gap      omega  full diag
   1    -51.8877106 -0.518877E+02  0.208E-02    3.50       0.0  T
   2    -51.8877110 -0.441891E-06  0.122E-02    3.50       1.3  T
   3    -51.8877109  0.121093E-06  0.267E-03    3.51       6.0  T
   4    -51.8877111 -0.182034E-06  0.714E-04    3.50      22.4  T
   5    -51.8877111 -0.117508E-07  0.332E-04    3.50      48.2  T
     SCC iter.                  ...        0 min,  0.007 sec
     gradient                   ...        0 min,  0.018 sec
 * total energy  :   -51.1294995 Eh     change       -0.2184500E-04 Eh
   gradient norm :     0.0019255 Eh/α   predicted     0.0000000E+00 (-100.00%)
   displ. norm   :     0.0438513 α      lambda       -0.1728724E-04
   maximum displ.:     0.0192230 α      in ANC's #13, #1, #6, ...

........................................................................
.............................. CYCLE   22 ..............................
........................................................................

 iter      E             dE          RMSdq      gap      omega  full diag
   1    -51.8879727 -0.518880E+02  0.100E-02    3.50       0.0  T
   2    -51.8879729 -0.226948E-06  0.591E-03    3.50       2.7  T
   3    -51.8879729  0.374028E-07  0.193E-03    3.50       8.3  T
   4    -51.8879729 -0.542345E-07  0.575E-04    3.50      27.8  T
   5    -51.8879729 -0.814835E-08  0.161E-04    3.50      99.8  T
     SCC iter.                  ...        0 min,  0.007 sec
     gradient                   ...        0 min,  0.017 sec
 * total energy  :   -51.1295212 Eh     change       -0.2169071E-04 Eh
   gradient norm :     0.0007000 Eh/α   predicted    -0.9139950E-05 ( -57.86%)
   displ. norm   :     0.1254185 α      lambda       -0.3320879E-04
   maximum displ.:     0.0563750 α      in ANC's #13, #1, #2, ...

........................................................................
.............................. CYCLE   23 ..............................
........................................................................

 iter      E             dE          RMSdq      gap      omega  full diag
   1    -51.8879564 -0.518880E+02  0.256E-02    3.50       0.0  T
   2    -51.8879571 -0.711716E-06  0.151E-02    3.50       1.1  T
   3    -51.8879568  0.315978E-06  0.429E-03    3.50       3.7  T
   4    -51.8879572 -0.409207E-06  0.996E-04    3.50      16.1  T
   5    -51.8879572 -0.188220E-07  0.313E-04    3.50      51.2  T
     SCC iter.                  ...        0 min,  0.007 sec
     gradient                   ...        0 min,  0.017 sec
 * total energy  :   -51.1295544 Eh     change       -0.3322205E-04 Eh
   gradient norm :     0.0017213 Eh/α   predicted    -0.1672379E-04 ( -49.66%)
   displ. norm   :     0.1182216 α      lambda       -0.1847776E-04
   maximum displ.:     0.0549871 α      in ANC's #1, #13, #2, ...

........................................................................
.............................. CYCLE   24 ..............................
........................................................................

 iter      E             dE          RMSdq      gap      omega  full diag
   1    -51.8878417 -0.518878E+02  0.244E-02    3.49       0.0  T
   2    -51.8878419 -0.187946E-06  0.144E-02    3.49       1.1  T
   3    -51.8878417  0.159814E-06  0.269E-03    3.49       5.9  T
   4    -51.8878419 -0.205806E-06  0.557E-04    3.49      28.8  T
   5    -51.8878419 -0.318605E-08  0.226E-04    3.49      70.9  T
     SCC iter.                  ...        0 min,  0.007 sec
     gradient                   ...        0 min,  0.018 sec
 * total energy  :   -51.1295752 Eh     change       -0.2081618E-04 Eh
   gradient norm :     0.0016700 Eh/α   predicted    -0.9296986E-05 ( -55.34%)
   displ. norm   :     0.1565858 α      lambda       -0.2114925E-04
   maximum displ.:     0.0774754 α      in ANC's #1, #13, #2, ...

........................................................................
.............................. CYCLE   25 ..............................
........................................................................

 iter      E             dE          RMSdq      gap      omega  full diag
   1    -51.8877896 -0.518878E+02  0.308E-02    3.49       0.0  T
   2    -51.8877898 -0.269460E-06  0.181E-02    3.49       1.0  T
   3    -51.8877897  0.188188E-06  0.286E-03    3.49       5.6  T
   4    -51.8877899 -0.249643E-06  0.728E-04    3.49      22.0  T
   5    -51.8877899 -0.799758E-08  0.317E-04    3.49      50.5  T
     SCC iter.                  ...        0 min,  0.010 sec
     gradient                   ...        0 min,  0.018 sec
 * total energy  :   -51.1295980 Eh     change       -0.2283527E-04 Eh
   gradient norm :     0.0010010 Eh/α   predicted    -0.1069043E-04 ( -53.18%)
   displ. norm   :     0.1430172 α      lambda       -0.1650192E-04
   maximum displ.:     0.0752341 α      in ANC's #1, #2, #5, ...

........................................................................
.............................. CYCLE   26 ..............................
........................................................................

 iter      E             dE          RMSdq      gap      omega  full diag
   1    -51.8879285 -0.518879E+02  0.254E-02    3.49       0.0  T
   2    -51.8879287 -0.216531E-06  0.149E-02    3.49       1.1  T
   3    -51.8879287  0.726060E-08  0.139E-03    3.49      11.5  T
   4    -51.8879287 -0.361139E-07  0.513E-04    3.49      31.2  T
   5    -51.8879287 -0.396211E-08  0.267E-04    3.49      60.1  T
     SCC iter.                  ...        0 min,  0.007 sec
     gradient                   ...        0 min,  0.017 sec
 * total energy  :   -51.1296160 Eh     change       -0.1801017E-04 Eh
   gradient norm :     0.0008530 Eh/α   predicted    -0.8327273E-05 ( -53.76%)
   displ. norm   :     0.1214861 α      lambda       -0.1320960E-04
   maximum displ.:     0.0654167 α      in ANC's #1, #5, #2, ...

........................................................................
.............................. CYCLE   27 ..............................
........................................................................

 iter      E             dE          RMSdq      gap      omega  full diag
   1    -51.8881662 -0.518882E+02  0.182E-02    3.49       0.0  T
   2    -51.8881664 -0.166820E-06  0.106E-02    3.49       1.5  T
   3    -51.8881664  0.146679E-07  0.145E-03    3.49      11.1  T
   4    -51.8881664 -0.359570E-07  0.500E-04    3.49      32.0  T
   5    -51.8881664 -0.387416E-08  0.227E-04    3.49      70.5  T
     SCC iter.                  ...        0 min,  0.007 sec
     gradient                   ...        0 min,  0.018 sec
 * total energy  :   -51.1296316 Eh     change       -0.1551725E-04 Eh
   gradient norm :     0.0010919 Eh/α   predicted    -0.6648752E-05 ( -57.15%)
   displ. norm   :     0.1289684 α      lambda       -0.1359459E-04
   maximum displ.:     0.0702087 α      in ANC's #1, #5, #2, ...

........................................................................
.............................. CYCLE   28 ..............................
........................................................................

 iter      E             dE          RMSdq      gap      omega  full diag
   1    -51.8882764 -0.518883E+02  0.172E-02    3.50       0.0  T
   2    -51.8882765 -0.128218E-06  0.100E-02    3.50       1.6  T
   3    -51.8882765  0.628023E-07  0.192E-03    3.50       8.3  T
   4    -51.8882766 -0.888581E-07  0.493E-04    3.50      32.5  T
   5    -51.8882766 -0.326903E-08  0.201E-04    3.50      79.6  T
     SCC iter.                  ...        0 min,  0.014 sec
     gradient                   ...        0 min,  0.017 sec
 * total energy  :   -51.1296483 Eh     change       -0.1672674E-04 Eh
   gradient norm :     0.0010011 Eh/α   predicted    -0.6848952E-05 ( -59.05%)
   displ. norm   :     0.2176701 α      lambda       -0.1968298E-04
   maximum displ.:     0.1176261 α      in ANC's #1, #5, #2, ...

........................................................................
.............................. CYCLE   29 ..............................
........................................................................

 iter      E             dE          RMSdq      gap      omega  full diag
   1    -51.8880514 -0.518881E+02  0.303E-02    3.50       0.0  T
   2    -51.8880517 -0.296978E-06  0.178E-02    3.50       1.0  T
   3    -51.8880515  0.158331E-06  0.295E-03    3.50       5.4  T
   4    -51.8880518 -0.228361E-06  0.786E-04    3.50      20.4  T
   5    -51.8880518 -0.728724E-08  0.314E-04    3.50      51.0  T
     SCC iter.                  ...        0 min,  0.007 sec
     gradient                   ...        0 min,  0.018 sec
 * total energy  :   -51.1296700 Eh     change       -0.2174460E-04 Eh
   gradient norm :     0.0010123 Eh/α   predicted    -0.1004901E-04 ( -53.79%)
   displ. norm   :     0.2126125 α      lambda       -0.1568026E-04
   maximum displ.:     0.1154468 α      in ANC's #1, #5, #2, ...

........................................................................
.............................. CYCLE   30 ..............................
........................................................................

 iter      E             dE          RMSdq      gap      omega  full diag
   1    -51.8880291 -0.518880E+02  0.303E-02    3.50       0.0  T
   2    -51.8880293 -0.235869E-06  0.178E-02    3.50       1.0  T
   3    -51.8880292  0.135663E-06  0.273E-03    3.50       5.9  T
   4    -51.8880294 -0.205355E-06  0.738E-04    3.50      21.7  T
   5    -51.8880294 -0.438383E-08  0.301E-04    3.50      53.2  T
     SCC iter.                  ...        0 min,  0.007 sec
     gradient                   ...        0 min,  0.018 sec
 * total energy  :   -51.1296872 Eh     change       -0.1714192E-04 Eh
   gradient norm :     0.0010082 Eh/α   predicted    -0.7998879E-05 ( -53.34%)
   displ. norm   :     0.1981301 α      lambda       -0.1449454E-04
   maximum displ.:     0.1066970 α      in ANC's #1, #2, #5, ...

........................................................................
.............................. CYCLE   31 ..............................
........................................................................

 iter      E             dE          RMSdq      gap      omega  full diag
   1    -51.8879948 -0.518880E+02  0.316E-02    3.50       0.0  T
   2    -51.8879951 -0.279155E-06  0.185E-02    3.50       1.0  T
   3    -51.8879950  0.552089E-07  0.218E-03    3.50       7.4  T
   4    -51.8879951 -0.115955E-06  0.764E-04    3.50      21.0  T
   5    -51.8879952 -0.736160E-08  0.360E-04    3.50      44.5  T
     SCC iter.                  ...        0 min,  0.007 sec
     gradient                   ...        0 min,  0.018 sec
 * total energy  :   -51.1297032 Eh     change       -0.1605164E-04 Eh
   gradient norm :     0.0008966 Eh/α   predicted    -0.7378007E-05 ( -54.04%)
   displ. norm   :     0.1684805 α      lambda       -0.1380364E-04
   maximum displ.:     0.0909669 α      in ANC's #2, #1, #5, ...

........................................................................
.............................. CYCLE   32 ..............................
........................................................................

 iter      E             dE          RMSdq      gap      omega  full diag
   1    -51.8883012 -0.518883E+02  0.280E-02    3.50       0.0  T
   2    -51.8883015 -0.362908E-06  0.164E-02    3.50       1.0  T
   3    -51.8883015  0.229394E-07  0.204E-03    3.50       7.9  T
   4    -51.8883016 -0.802914E-07  0.668E-04    3.50      24.0  T
   5    -51.8883016 -0.481613E-08  0.353E-04    3.50      45.3  T
     SCC iter.                  ...        0 min,  0.007 sec
     gradient                   ...        0 min,  0.018 sec
 * total energy  :   -51.1297175 Eh     change       -0.1430980E-04 Eh
   gradient norm :     0.0006464 Eh/α   predicted    -0.6989599E-05 ( -51.16%)
   displ. norm   :     0.1620629 α      lambda       -0.9277019E-05
   maximum displ.:     0.0931658 α      in ANC's #2, #1, #7, ...

........................................................................
.............................. CYCLE   33 ..............................
........................................................................

 iter      E             dE          RMSdq      gap      omega  full diag
   1    -51.8877480 -0.518877E+02  0.270E-02    3.50       0.0  T
   2    -51.8877482 -0.247588E-06  0.158E-02    3.50       1.0  T
   3    -51.8877482  0.149870E-07  0.161E-03    3.50       9.9  T
   4    -51.8877483 -0.528687E-07  0.650E-04    3.50      24.6  T
   5    -51.8877483 -0.701419E-08  0.321E-04    3.50      49.8  T
     SCC iter.                  ...        0 min,  0.007 sec
     gradient                   ...        0 min,  0.018 sec
 * total energy  :   -51.1297259 Eh     change       -0.8381317E-05 Eh
   gradient norm :     0.0010400 Eh/α   predicted    -0.4693473E-05 ( -44.00%)
   displ. norm   :     0.0868348 α      lambda       -0.1022679E-04
   maximum displ.:     0.0543359 α      in ANC's #7, #2, #10, ...

........................................................................
.............................. CYCLE   34 ..............................
........................................................................

 iter      E             dE          RMSdq      gap      omega  full diag
   1    -51.8887861 -0.518888E+02  0.152E-02    3.50       0.0  T
   2    -51.8887862 -0.120874E-06  0.884E-03    3.50       1.8  T
   3    -51.8887862  0.511890E-07  0.158E-03    3.50      10.2  T
   4    -51.8887862 -0.700198E-07  0.478E-04    3.50      33.5  T
   5    -51.8887863 -0.541083E-08  0.201E-04    3.50      79.7  T
     SCC iter.                  ...        0 min,  0.007 sec
     gradient                   ...        0 min,  0.018 sec
 * total energy  :   -51.1297324 Eh     change       -0.6514969E-05 Eh
   gradient norm :     0.0010317 Eh/α   predicted    -0.5131550E-05 ( -21.23%)
   displ. norm   :     0.0921546 α      lambda       -0.7123739E-05
   maximum displ.:     0.0585485 α      in ANC's #2, #1, #6, ...

........................................................................
.............................. CYCLE   35 ..............................
........................................................................

 iter      E             dE          RMSdq      gap      omega  full diag
   1    -51.8884255 -0.518884E+02  0.140E-02    3.50       0.0  T
   2    -51.8884256 -0.529066E-07  0.823E-03    3.50       1.9  T
   3    -51.8884255  0.339559E-07  0.109E-03    3.50      14.7  T
   4    -51.8884256 -0.467427E-07  0.356E-04    3.50      44.9  T
   5    -51.8884256 -0.248469E-08  0.152E-04    3.50     105.2  T
     SCC iter.                  ...        0 min,  0.007 sec
     gradient                   ...        0 min,  0.017 sec
 * total energy  :   -51.1297409 Eh     change       -0.8479184E-05 Eh
   gradient norm :     0.0007422 Eh/α   predicted    -0.3578509E-05 ( -57.80%)
   displ. norm   :     0.0927628 α      lambda       -0.9083324E-05
   maximum displ.:     0.0610934 α      in ANC's #2, #6, #5, ...

........................................................................
.............................. CYCLE   36 ..............................
........................................................................

 iter      E             dE          RMSdq      gap      omega  full diag
   1    -51.8880718 -0.518881E+02  0.170E-02    3.51       0.0  T
   2    -51.8880719 -0.162663E-06  0.986E-03    3.51       1.6  T
   3    -51.8880719  0.716823E-07  0.184E-03    3.51       8.7  T
   4    -51.8880719 -0.956591E-07  0.511E-04    3.51      31.3  T
   5    -51.8880720 -0.780453E-08  0.219E-04    3.51      73.3  T
     SCC iter.                  ...        0 min,  0.007 sec
     gradient                   ...        0 min,  0.017 sec
 * total energy  :   -51.1297509 Eh     change       -0.1001466E-04 Eh
   gradient norm :     0.0007077 Eh/α   predicted    -0.4560345E-05 ( -54.46%)
   displ. norm   :     0.1090378 α      lambda       -0.6822980E-05
   maximum displ.:     0.0729502 α      in ANC's #2, #6, #7, ...

........................................................................
.............................. CYCLE   37 ..............................
........................................................................

 iter      E             dE          RMSdq      gap      omega  full diag
   1    -51.8879460 -0.518879E+02  0.191E-02    3.51       0.0  T
   2    -51.8879461 -0.118074E-06  0.112E-02    3.51       1.4  T
   3    -51.8879460  0.115070E-06  0.199E-03    3.51       8.1  T
   4    -51.8879461 -0.146495E-06  0.469E-04    3.51      34.2  T
   5    -51.8879461 -0.469525E-08  0.219E-04    3.51      73.0  T
     SCC iter.                  ...        0 min,  0.007 sec
     gradient                   ...        0 min,  0.018 sec
 * total energy  :   -51.1297584 Eh     change       -0.7443420E-05 Eh
   gradient norm :     0.0008148 Eh/α   predicted    -0.3431694E-05 ( -53.90%)
   displ. norm   :     0.1219548 α      lambda       -0.5691088E-05
   maximum displ.:     0.0836759 α      in ANC's #2, #6, #5, ...

........................................................................
.............................. CYCLE   38 ..............................
........................................................................

 iter      E             dE          RMSdq      gap      omega  full diag
   1    -51.8879413 -0.518879E+02  0.204E-02    3.51       0.0  T
   2    -51.8879414 -0.996028E-07  0.120E-02    3.51       1.3  T
   3    -51.8879412  0.134578E-06  0.208E-03    3.51       7.7  T
   4    -51.8879414 -0.170354E-06  0.437E-04    3.51      36.6  T
   5    -51.8879414 -0.205727E-08  0.201E-04    3.51      79.6  T
     SCC iter.                  ...        0 min,  0.007 sec
     gradient                   ...        0 min,  0.018 sec
 * total energy  :   -51.1297649 Eh     change       -0.6526637E-05 Eh
   gradient norm :     0.0008278 Eh/α   predicted    -0.2866603E-05 ( -56.08%)
   displ. norm   :     0.1459095 α      lambda       -0.6535471E-05
   maximum displ.:     0.1016249 α      in ANC's #2, #5, #6, ...

........................................................................
.............................. CYCLE   39 ..............................
........................................................................

 iter      E             dE          RMSdq      gap      omega  full diag
   1    -51.8879537 -0.518880E+02  0.242E-02    3.51       0.0  T
   2    -51.8879539 -0.129857E-06  0.142E-02    3.51       1.1  T
   3    -51.8879538  0.110777E-06  0.202E-03    3.51       7.9  T
   4    -51.8879539 -0.148913E-06  0.538E-04    3.51      29.8  T
   5    -51.8879539 -0.375838E-08  0.229E-04    3.51      69.9  T
     SCC iter.                  ...        0 min,  0.007 sec
     gradient                   ...        0 min,  0.017 sec
 * total energy  :   -51.1297723 Eh     change       -0.7416573E-05 Eh
   gradient norm :     0.0007540 Eh/α   predicted    -0.3303103E-05 ( -55.46%)
   displ. norm   :     0.1657464 α      lambda       -0.6920738E-05
   maximum displ.:     0.1185854 α      in ANC's #2, #5, #6, ...

........................................................................
.............................. CYCLE   40 ..............................
........................................................................

 iter      E             dE          RMSdq      gap      omega  full diag
   1    -51.8880272 -0.518880E+02  0.266E-02    3.51       0.0  T
   2    -51.8880274 -0.228768E-06  0.156E-02    3.51       1.0  T
   3    -51.8880273  0.811165E-07  0.203E-03    3.51       7.9  T
   4    -51.8880274 -0.121592E-06  0.689E-04    3.51      23.3  T
   5    -51.8880274 -0.947070E-08  0.293E-04    3.51      54.7  T
     SCC iter.                  ...        0 min,  0.007 sec
     gradient                   ...        0 min,  0.018 sec
 * total energy  :   -51.1297798 Eh     change       -0.7503926E-05 Eh
   gradient norm :     0.0008157 Eh/α   predicted    -0.3503750E-05 ( -53.31%)
   displ. norm   :     0.1779227 α      lambda       -0.6975597E-05
   maximum displ.:     0.1297853 α      in ANC's #2, #5, #6, ...

........................................................................
.............................. CYCLE   41 ..............................
........................................................................

 iter      E             dE          RMSdq      gap      omega  full diag
   1    -51.8880025 -0.518880E+02  0.283E-02    3.50       0.0  T
   2    -51.8880027 -0.238447E-06  0.166E-02    3.50       1.0  T
   3    -51.8880027  0.252298E-07  0.168E-03    3.50       9.5  T
   4    -51.8880027 -0.645249E-07  0.673E-04    3.50      23.8  T
   5    -51.8880028 -0.759641E-08  0.313E-04    3.50      51.1  T
     SCC iter.                  ...        0 min,  0.007 sec
     gradient                   ...        0 min,  0.018 sec
 * total energy  :   -51.1297876 Eh     change       -0.7777320E-05 Eh
   gradient norm :     0.0008689 Eh/α   predicted    -0.3537693E-05 ( -54.51%)
   displ. norm   :     0.2515973 α      lambda       -0.1080931E-04
   maximum displ.:     0.1879134 α      in ANC's #2, #5, #6, ...

........................................................................
.............................. CYCLE   42 ..............................
........................................................................

 iter      E             dE          RMSdq      gap      omega  full diag
   1    -51.8880285 -0.518880E+02  0.386E-02    3.50       0.0  T
   2    -51.8880290 -0.447626E-06  0.226E-02    3.50       1.0  T
   3    -51.8880290 -0.129050E-07  0.195E-03    3.50       8.2  T
   4    -51.8880291 -0.641213E-07  0.796E-04    3.50      20.1  T
   5    -51.8880291 -0.461942E-08  0.423E-04    3.50      37.8  T
     SCC iter.                  ...        0 min,  0.007 sec
     gradient                   ...        0 min,  0.018 sec
 * total energy  :   -51.1298002 Eh     change       -0.1259106E-04 Eh
   gradient norm :     0.0011562 Eh/α   predicted    -0.5561254E-05 ( -55.83%)
   displ. norm   :     0.3834482 α      lambda       -0.2048642E-04
   maximum displ.:     0.2907769 α      in ANC's #2, #5, #6, ...
 * RMSD in coord.:     0.4764311 α      energy gain  -0.3225604E-03 Eh

generating ANC from exact Hessian ...
Using Lindh-Hessian (1995)
 Shifting diagonal of input Hessian by    9.6962236182752785E-003
 Lowest  eigenvalues of input Hessian
    0.000000    0.000000    0.000000    0.000000    0.000000    0.000000
    0.010000    0.010308    0.010538    0.011371    0.011773    0.012713
    0.013469    0.015110    0.015670    0.015988    0.017633    0.018279
 Highest eigenvalues
    1.630775    1.886276    1.905634    2.017091    2.102127    2.357748


........................................................................
.............................. CYCLE   43 ..............................
........................................................................

 iter      E             dE          RMSdq      gap      omega  full diag
   1    -51.8877826 -0.518878E+02  0.578E-02    3.50       0.0  T
   2    -51.8877834 -0.823528E-06  0.340E-02    3.50       1.0  T
   3    -51.8877835 -0.676527E-07  0.249E-03    3.51       6.4  T
   4    -51.8877836 -0.936695E-07  0.106E-03    3.51      15.1  T
   5    -51.8877836 -0.297555E-08  0.538E-04    3.51      29.8  T
   6    -51.8877836 -0.748053E-08  0.156E-04    3.51     102.9  T
     SCC iter.                  ...        0 min,  0.009 sec
     gradient                   ...        0 min,  0.018 sec
 * total energy  :   -51.1298251 Eh     change       -0.2495975E-04 Eh
   gradient norm :     0.0016917 Eh/α   predicted     0.0000000E+00 (-100.00%)
   displ. norm   :     0.0368775 α      lambda       -0.1497735E-04
   maximum displ.:     0.0190918 α      in ANC's #11, #6, #1, ...

........................................................................
.............................. CYCLE   44 ..............................
........................................................................

 iter      E             dE          RMSdq      gap      omega  full diag
   1    -51.8886545 -0.518887E+02  0.926E-03    3.51       0.0  T
   2    -51.8886546 -0.126418E-06  0.533E-03    3.51       3.0  T
   3    -51.8886546  0.535154E-08  0.124E-03    3.51      12.9  T
   4    -51.8886546 -0.168265E-07  0.379E-04    3.51      42.3  T
   5    -51.8886546 -0.267799E-08  0.169E-04    3.51      94.8  T
     SCC iter.                  ...        0 min,  0.007 sec
     gradient                   ...        0 min,  0.018 sec
 * total energy  :   -51.1298417 Eh     change       -0.1654957E-04 Eh
   gradient norm :     0.0007550 Eh/α   predicted    -0.7521108E-05 ( -54.55%)
   displ. norm   :     0.0829836 α      lambda       -0.1823464E-04
   maximum displ.:     0.0419603 α      in ANC's #6, #11, #1, ...

........................................................................
.............................. CYCLE   45 ..............................
........................................................................

 iter      E             dE          RMSdq      gap      omega  full diag
   1    -51.8889294 -0.518889E+02  0.174E-02    3.52       0.0  T
   2    -51.8889297 -0.290361E-06  0.101E-02    3.52       1.6  T
   3    -51.8889296  0.239187E-07  0.204E-03    3.52       7.8  T
   4    -51.8889297 -0.543520E-07  0.616E-04    3.52      26.0  T
   5    -51.8889297 -0.679839E-08  0.268E-04    3.52      59.7  T
     SCC iter.                  ...        0 min,  0.007 sec
     gradient                   ...        0 min,  0.018 sec
 * total energy  :   -51.1298604 Eh     change       -0.1870061E-04 Eh
   gradient norm :     0.0009836 Eh/α   predicted    -0.9150195E-05 ( -51.07%)
   displ. norm   :     0.0861488 α      lambda       -0.1098836E-04
   maximum displ.:     0.0470424 α      in ANC's #6, #1, #2, ...

........................................................................
.............................. CYCLE   46 ..............................
........................................................................

 iter      E             dE          RMSdq      gap      omega  full diag
   1    -51.8886244 -0.518886E+02  0.165E-02    3.53       0.0  T
   2    -51.8886246 -0.151657E-06  0.970E-03    3.53       1.7  T
   3    -51.8886246  0.927415E-08  0.134E-03    3.53      11.9  T
   4    -51.8886246 -0.283341E-07  0.439E-04    3.53      36.5  T
   5    -51.8886246 -0.263313E-08  0.222E-04    3.53      72.3  T
     SCC iter.                  ...        0 min,  0.007 sec
     gradient                   ...        0 min,  0.017 sec
 * total energy  :   -51.1298725 Eh     change       -0.1207532E-04 Eh
   gradient norm :     0.0008918 Eh/α   predicted    -0.5512606E-05 ( -54.35%)
   displ. norm   :     0.1187097 α      lambda       -0.1258523E-04
   maximum displ.:     0.0640947 α      in ANC's #6, #1, #2, ...

........................................................................
.............................. CYCLE   47 ..............................
........................................................................

 iter      E             dE          RMSdq      gap      omega  full diag
   1    -51.8882465 -0.518882E+02  0.217E-02    3.54       0.0  T
   2    -51.8882466 -0.101834E-06  0.128E-02    3.54       1.2  T
   3    -51.8882466  0.921996E-08  0.118E-03    3.54      13.6  T
   4    -51.8882466 -0.316021E-07  0.460E-04    3.54      34.8  T
   5    -51.8882466 -0.203356E-08  0.234E-04    3.54      68.6  T
     SCC iter.                  ...        0 min,  0.007 sec
     gradient                   ...        0 min,  0.018 sec
 * total energy  :   -51.1298877 Eh     change       -0.1527691E-04 Eh
   gradient norm :     0.0009925 Eh/α   predicted    -0.6335077E-05 ( -58.53%)
   displ. norm   :     0.2392379 α      lambda       -0.2474746E-04
   maximum displ.:     0.1240891 α      in ANC's #6, #1, #2, ...

........................................................................
.............................. CYCLE   48 ..............................
........................................................................

 iter      E             dE          RMSdq      gap      omega  full diag
   1    -51.8872127 -0.518872E+02  0.423E-02    3.55       0.0  T
   2    -51.8872130 -0.262099E-06  0.250E-02    3.55       1.0  T
   3    -51.8872130 -0.824924E-08  0.174E-03    3.55       9.2  T
   4    -51.8872131 -0.632495E-07  0.773E-04    3.55      20.7  T
   5    -51.8872131 -0.368108E-08  0.352E-04    3.55      45.5  T
     SCC iter.                  ...        0 min,  0.007 sec
     gradient                   ...        0 min,  0.018 sec
 * total energy  :   -51.1299163 Eh     change       -0.2859627E-04 Eh
   gradient norm :     0.0020746 Eh/α   predicted    -0.1271917E-04 ( -55.52%)
   displ. norm   :     0.2216635 α      lambda       -0.3467716E-04
   maximum displ.:     0.1096343 α      in ANC's #6, #1, #2, ...

........................................................................
.............................. CYCLE   49 ..............................
........................................................................

 iter      E             dE          RMSdq      gap      omega  full diag
   1    -51.8864815 -0.518865E+02  0.384E-02    3.56       0.0  T
   2    -51.8864818 -0.309419E-06  0.226E-02    3.56       1.0  T
   3    -51.8864818  0.769145E-08  0.177E-03    3.56       9.1  T
   4    -51.8864818 -0.684623E-07  0.722E-04    3.56      22.2  T
   5    -51.8864818 -0.502520E-08  0.376E-04    3.56      42.6  T
     SCC iter.                  ...        0 min,  0.007 sec
     gradient                   ...        0 min,  0.018 sec
 * total energy  :   -51.1299447 Eh     change       -0.2831613E-04 Eh
   gradient norm :     0.0030340 Eh/α   predicted    -0.1819137E-04 ( -35.76%)
   displ. norm   :     0.3324332 α      lambda       -0.6100878E-04
   maximum displ.:     0.1541813 α      in ANC's #1, #6, #5, ...

........................................................................
.............................. CYCLE   50 ..............................
........................................................................

 iter      E             dE          RMSdq      gap      omega  full diag
   1    -51.8854172 -0.518854E+02  0.565E-02    3.57       0.0  T
   2    -51.8854183 -0.111098E-05  0.332E-02    3.57       1.0  T
   3    -51.8854182  0.625322E-07  0.323E-03    3.57       5.0  T
   4    -51.8854184 -0.210069E-06  0.110E-03    3.57      14.5  T
   5    -51.8854185 -0.157065E-07  0.604E-04    3.57      26.5  T
   6    -51.8854185 -0.547732E-08  0.194E-04    3.57      82.5  T
     SCC iter.                  ...        0 min,  0.009 sec
     gradient                   ...        0 min,  0.018 sec
 * total energy  :   -51.1299894 Eh     change       -0.4474555E-04 Eh
   gradient norm :     0.0045438 Eh/α   predicted    -0.3388035E-04 ( -24.28%)
   displ. norm   :     0.2509287 α      lambda       -0.7817020E-04
   maximum displ.:     0.1262689 α      in ANC's #5, #1, #2, ...

........................................................................
.............................. CYCLE   51 ..............................
........................................................................

 iter      E             dE          RMSdq      gap      omega  full diag
   1    -51.8862213 -0.518862E+02  0.414E-02    3.57       0.0  T
   2    -51.8862224 -0.112167E-05  0.242E-02    3.57       1.0  T
   3    -51.8862223  0.882337E-07  0.343E-03    3.57       4.7  T
   4    -51.8862225 -0.192831E-06  0.976E-04    3.57      16.4  T
   5    -51.8862225 -0.207116E-07  0.512E-04    3.57      31.3  T
     SCC iter.                  ...        0 min,  0.007 sec
     gradient                   ...        0 min,  0.018 sec
 * total energy  :   -51.1300503 Eh     change       -0.6089166E-04 Eh
   gradient norm :     0.0042481 Eh/α   predicted    -0.4155286E-04 ( -31.76%)
   displ. norm   :     0.3191642 α      lambda       -0.9583314E-04
   maximum displ.:     0.1637097 α      in ANC's #1, #5, #2, ...

........................................................................
.............................. CYCLE   52 ..............................
........................................................................

 iter      E             dE          RMSdq      gap      omega  full diag
   1    -51.8867858 -0.518868E+02  0.520E-02    3.57       0.0  T
   2    -51.8867871 -0.132561E-05  0.305E-02    3.57       1.0  T
   3    -51.8867868  0.289590E-06  0.417E-03    3.57       3.8  T
   4    -51.8867872 -0.426887E-06  0.133E-03    3.57      12.0  T
   5    -51.8867873 -0.496940E-07  0.590E-04    3.57      27.1  T
   6    -51.8867873 -0.226875E-08  0.184E-04    3.57      87.2  T
     SCC iter.                  ...        0 min,  0.009 sec
     gradient                   ...        0 min,  0.018 sec
 * total energy  :   -51.1301313 Eh     change       -0.8097775E-04 Eh
   gradient norm :     0.0032276 Eh/α   predicted    -0.5279805E-04 ( -34.80%)
   displ. norm   :     0.4566802 α      lambda       -0.1399022E-03
   maximum displ.:     0.2395176 α      in ANC's #1, #5, #2, ...

........................................................................
.............................. CYCLE   53 ..............................
........................................................................

 iter      E             dE          RMSdq      gap      omega  full diag
   1    -51.8871143 -0.518871E+02  0.729E-02    3.58       0.0  T
   2    -51.8871160 -0.168441E-05  0.429E-02    3.58       1.0  T
   3    -51.8871153  0.633804E-06  0.534E-03    3.58       3.0  T
   4    -51.8871162 -0.882465E-06  0.175E-03    3.58       9.1  T
   5    -51.8871163 -0.754591E-07  0.764E-04    3.58      21.0  T
   6    -51.8871163 -0.256297E-08  0.211E-04    3.58      75.7  T
     SCC iter.                  ...        0 min,  0.009 sec
     gradient                   ...        0 min,  0.018 sec
 * total energy  :   -51.1302531 Eh     change       -0.1218397E-03 Eh
   gradient norm :     0.0026356 Eh/α   predicted    -0.8454464E-04 ( -30.61%)
   displ. norm   :     0.6380170 α      lambda       -0.2009297E-03
   maximum displ.:     0.3399020 α      in ANC's #1, #5, #2, ...

........................................................................
.............................. CYCLE   54 ..............................
........................................................................

 iter      E             dE          RMSdq      gap      omega  full diag
   1    -51.8861754 -0.518862E+02  0.993E-02    3.60       0.0  T
   2    -51.8861773 -0.193455E-05  0.585E-02    3.60       1.0  T
   3    -51.8861765  0.816332E-06  0.622E-03    3.60       2.6  T
   4    -51.8861777 -0.123590E-05  0.207E-03    3.60       7.7  T
   5    -51.8861778 -0.729748E-07  0.953E-04    3.60      16.8  T
   6    -51.8861778 -0.347958E-08  0.235E-04    3.60      68.2  T
     SCC iter.                  ...        0 min,  0.009 sec
     gradient                   ...        0 min,  0.018 sec
 * total energy  :   -51.1304274 Eh     change       -0.1742927E-03 Eh
   gradient norm :     0.0038488 Eh/α   predicted    -0.1413677E-03 ( -18.89%)
   displ. norm   :     0.5600718 α      lambda       -0.3282966E-03
   maximum displ.:     0.3051855 α      in ANC's #1, #5, #2, ...

........................................................................
.............................. CYCLE   55 ..............................
........................................................................

 iter      E             dE          RMSdq      gap      omega  full diag
   1    -51.8972547 -0.518973E+02  0.898E-02    3.63       0.0  T
   2    -51.8972618 -0.709242E-05  0.522E-02    3.63       1.0  T
   3    -51.8972610  0.811948E-06  0.951E-03    3.63       1.7  T
   4    -51.8972626 -0.153082E-05  0.320E-03    3.63       5.0  T
   5    -51.8972628 -0.200688E-06  0.139E-03    3.63      11.5  T
   6    -51.8972628 -0.680056E-08  0.496E-04    3.63      32.3  T
   7    -51.8972628 -0.221252E-08  0.125E-04    3.63     128.1  T
     SCC iter.                  ...        0 min,  0.010 sec
     gradient                   ...        0 min,  0.018 sec
 * total energy  :   -51.1303047 Eh     change        0.1227056E-03 Eh
   gradient norm :     0.0151128 Eh/α   predicted    -0.2156421E-03 (-275.74%)
   displ. norm   :     0.3760574 α      lambda       -0.6745399E-03
   maximum displ.:     0.1809989 α      in ANC's #1, #6, #2, ...

........................................................................
.............................. CYCLE   56 ..............................
........................................................................

 iter      E             dE          RMSdq      gap      omega  full diag
   1    -51.8867179 -0.518867E+02  0.749E-02    3.64       0.0  T
   2    -51.8867243 -0.632899E-05  0.432E-02    3.64       1.0  T
   3    -51.8867244 -0.834909E-07  0.739E-03    3.64       2.2  T
   4    -51.8867248 -0.412293E-06  0.190E-03    3.64       8.4  T
   5    -51.8867248 -0.353428E-07  0.109E-03    3.64      14.7  T
   6    -51.8867248 -0.844842E-08  0.428E-04    3.64      37.4  T
   7    -51.8867248 -0.349696E-08  0.998E-05    3.64     160.5  T
     SCC iter.                  ...        0 min,  0.010 sec
     gradient                   ...        0 min,  0.018 sec
 * total energy  :   -51.1306929 Eh     change       -0.3882423E-03 Eh
   gradient norm :     0.0050071 Eh/α   predicted    -0.3849673E-03 (  -0.84%)
   displ. norm   :     0.5184337 α      lambda       -0.1380250E-03
   maximum displ.:     0.2937349 α      in ANC's #1, #2, #5, ...

........................................................................
.............................. CYCLE   57 ..............................
........................................................................

 iter      E             dE          RMSdq      gap      omega  full diag
   1    -51.8830432 -0.518830E+02  0.812E-02    3.66       0.0  T
   2    -51.8830444 -0.116420E-05  0.478E-02    3.66       1.0  T
   3    -51.8830444 -0.148441E-07  0.323E-03    3.66       5.0  T
   4    -51.8830446 -0.206135E-06  0.134E-03    3.66      11.9  T
   5    -51.8830446 -0.153134E-07  0.692E-04    3.66      23.1  T
   6    -51.8830446 -0.321192E-08  0.216E-04    3.66      74.3  T
     SCC iter.                  ...        0 min,  0.008 sec
     gradient                   ...        0 min,  0.018 sec
 * total energy  :   -51.1307754 Eh     change       -0.8247259E-04 Eh
   gradient norm :     0.0070784 Eh/α   predicted    -0.8756279E-04 (   6.17%)
   displ. norm   :     0.2388347 α      lambda       -0.3424039E-03
   maximum displ.:     0.1393454 α      in ANC's #2, #1, #3, ...

........................................................................
.............................. CYCLE   58 ..............................
........................................................................

 iter      E             dE          RMSdq      gap      omega  full diag
   1    -51.8869348 -0.518869E+02  0.608E-02    3.65       0.0  T
   2    -51.8869392 -0.437759E-05  0.353E-02    3.66       1.0  T
   3    -51.8869370  0.220119E-05  0.101E-02    3.66       1.6  T
   4    -51.8869399 -0.288509E-05  0.240E-03    3.66       6.7  T
   5    -51.8869400 -0.127514E-06  0.101E-03    3.66      15.9  T
   6    -51.8869400 -0.369584E-08  0.458E-04    3.66      35.0  T
   7    -51.8869400 -0.187204E-08  0.978E-05    3.66     163.8  T
     SCC iter.                  ...        0 min,  0.010 sec
     gradient                   ...        0 min,  0.018 sec
 * total energy  :   -51.1308614 Eh     change       -0.8594195E-04 Eh
   gradient norm :     0.0099320 Eh/α   predicted    -0.1809761E-03 ( 110.58%)
   displ. norm   :     0.2763532 α      lambda       -0.3269700E-03
   maximum displ.:     0.1572366 α      in ANC's #2, #1, #5, ...

........................................................................
.............................. CYCLE   59 ..............................
........................................................................

 iter      E             dE          RMSdq      gap      omega  full diag
   1    -51.8889124 -0.518889E+02  0.564E-02    3.66       0.0  T
   2    -51.8889152 -0.274704E-05  0.327E-02    3.66       1.0  T
   3    -51.8889152 -0.397118E-07  0.471E-03    3.67       3.4  T
   4    -51.8889154 -0.184297E-06  0.161E-03    3.66      10.0  T
   5    -51.8889155 -0.401883E-07  0.792E-04    3.66      20.2  T
   6    -51.8889155 -0.403804E-08  0.236E-04    3.66      67.9  T
     SCC iter.                  ...        0 min,  0.009 sec
     gradient                   ...        0 min,  0.018 sec
 * total energy  :   -51.1310662 Eh     change       -0.2048253E-03 Eh
   gradient norm :     0.0064013 Eh/α   predicted    -0.1759756E-03 ( -14.09%)
   displ. norm   :     0.4308609 α      lambda       -0.2052805E-03
   maximum displ.:     0.2582818 α      in ANC's #2, #1, #5, ...

........................................................................
.............................. CYCLE   60 ..............................
........................................................................

 iter      E             dE          RMSdq      gap      omega  full diag
   1    -51.8870056 -0.518870E+02  0.740E-02    3.68       0.0  T
   2    -51.8870063 -0.753765E-06  0.435E-02    3.68       1.0  T
   3    -51.8870062  0.167233E-06  0.339E-03    3.68       4.7  T
   4    -51.8870065 -0.358900E-06  0.132E-03    3.68      12.2  T
   5    -51.8870065 -0.291338E-07  0.616E-04    3.68      26.0  T
   6    -51.8870065 -0.166170E-08  0.164E-04    3.68      97.5  T
     SCC iter.                  ...        0 min,  0.009 sec
     gradient                   ...        0 min,  0.018 sec
 * total energy  :   -51.1312019 Eh     change       -0.1357065E-03 Eh
   gradient norm :     0.0057071 Eh/α   predicted    -0.1216987E-03 ( -10.32%)
   displ. norm   :     0.3249067 α      lambda       -0.1717464E-03
   maximum displ.:     0.2052417 α      in ANC's #2, #1, #6, ...

........................................................................
.............................. CYCLE   61 ..............................
........................................................................

 iter      E             dE          RMSdq      gap      omega  full diag
   1    -51.8885398 -0.518885E+02  0.592E-02    3.68       0.0  T
   2    -51.8885404 -0.522267E-06  0.347E-02    3.68       1.0  T
   3    -51.8885397  0.638130E-06  0.433E-03    3.68       3.7  T
   4    -51.8885405 -0.823046E-06  0.987E-04    3.68      16.2  T
   5    -51.8885406 -0.136555E-07  0.437E-04    3.68      36.6  T
     SCC iter.                  ...        0 min,  0.007 sec
     gradient                   ...        0 min,  0.018 sec
 * total energy  :   -51.1313388 Eh     change       -0.1369006E-03 Eh
   gradient norm :     0.0052823 Eh/α   predicted    -0.9493900E-04 ( -30.65%)
   displ. norm   :     0.5589148 α      lambda       -0.2411227E-03
   maximum displ.:     0.3520254 α      in ANC's #2, #1, #6, ...

[...]
     15, 1652-1671. DOI: 10.1021/acs.jctc.8b01176
   for GFN1-xTB:
   * S. Grimme, C. Bannwarth, P. Shushkov, J. Chem. Theory Comput., 2017,
     13, 1989-2009. DOI: 10.1021/acs.jctc.7b00118
   for GFN0-xTB:
   * P. Pracht, E. Caldeweyher, S. Ehlert, S. Grimme, ChemRxiv, 2019, preprint.
     DOI: 10.26434/chemrxiv.8326202.v1
   for GFN-FF:
   * S. Spicher and S. Grimme, Angew. Chem. Int. Ed., 2020, 59, 15665-15673.
     DOI: 10.1002/anie.202004239
   
   for ALPB and GBSA implicit solvation:
   * S. Ehlert, M. Stahn, S. Spicher, S. Grimme, J. Chem. Theory Comput.,
     2021, 17, 4250-4261. DOI: 10.1021/acs.jctc.1c00471
   
   for ddCOSMO and CPCM-X implicit solvation:
   * M. Stahn, S. Ehlert, S. Grimme, J. Phys. Chem. A,
     2023, XX, XXXX-XXXX. DOI: 10.1021/acs.jpca.3c04382
   
   for DFT-D4:
   * E. Caldeweyher, C. Bannwarth and S. Grimme, J. Chem. Phys., 2017,
     147, 034112. DOI: 10.1063/1.4993215
   * E. Caldeweyher, S. Ehlert, A. Hansen, H. Neugebauer, S. Spicher,
     C. Bannwarth and S. Grimme, J. Chem. Phys., 2019, 150, 154122.
     DOI: 10.1063/1.5090222
   * E. Caldeweyher, J.-M. Mewes, S. Ehlert and S. Grimme, Phys. Chem. Chem. Phys.
     2020, 22, 8499-8512. DOI: 10.1039/D0CP00502A
   
   for sTDA-xTB:
   * S. Grimme and C. Bannwarth, J. Chem. Phys., 2016, 145, 054103.
     DOI: 10.1063/1.4959605
   
   in the mass-spec context:
   * V. Asgeirsson, C. Bauer and S. Grimme, Chem. Sci., 2017, 8, 4879.
     DOI: 10.1039/c7sc00601b
   * J. Koopman and S. Grimme, ACS Omega 2019, 4, 12, 15120-15133.
     DOI: 10.1021/acsomega.9b02011
   
   for metadynamics refer to:
   * S. Grimme, J. Chem. Theory Comput., 2019, 155, 2847-2862
     DOI: 10.1021/acs.jctc.9b00143
   
   for SPH calculations refer to:
   * S. Spicher and S. Grimme, J. Chem. Theory Comput., 2021, 17, 1701-1714
     DOI: 10.1021/acs.jctc.0c01306
   
   for ONIOM refer to:
   * C. Plett, A. Katbashev, S. Ehlert, S. Grimme, M. Bursch,
     Phys. Chem. Chem. Phys., 2023, 25, 17860-17868. DOI: 10.1039/D3CP02178E
   
   for DIPRO refer to:
   * J. Kohn, N. Gildemeister, S. Grimme, D. Fazzi, A. Hansen,
     J. Chem. Phys., 2023, just accepted.
   
   for PTB refer to:
   * S. Grimme, M. Mueller, A. Hansen, J. Chem. Phys., 2023, 158, 124111.
     DOI: 10.1063/5.0137838
   
   with help from (in alphabetical order)
   P. Atkinson, C. Bannwarth, F. Bohle, G. Brandenburg, E. Caldeweyher
   M. Checinski, S. Dohm, S. Ehlert, S. Ehrlich, I. Gerasimov, C. Hölzer
   A. Katbashev, J. Kohn, J. Koopman, C. Lavigne, S. Lehtola, F. März, M. Müller,
   F. Musil, H. Neugebauer, J. Pisarek, C. Plett, P. Pracht, F. Pultar,
   J. Seibert, P. Shushkov, S. Spicher, M. Stahn, M. Steiner, T. Strunk,
   J. Stückrath, T. Rose, and J. Unsleber
   
 * started run on 2025/05/15 at 16:06:38.857     
   ID    Z sym.   atoms
    1    6 C      1-8, 10, 11, 13-16
    2    7 N      9, 12
    3    8 O      17
    4    1 H      18-39

           -------------------------------------------------
          |                Calculation Setup                |
           -------------------------------------------------

          program call               : xtb /rds/general/user/hgt20/home/callum/QDESCP/Lidocaine_rdkit_conf_14/Lidocaine_rdkit_conf_14.xyz --acc 1 --gfn 2 --chrg 0 --uhf 2 --etemp 300 --input /rds/general/user/hgt20/home/callum/QDESCP/Lidocaine_rdkit_conf_14/Lidocaine_rdkit_conf_14_xtb.inp -P 1
          hostname                   : login-c
          coordinate file            : /rds/general/user/hgt20/home/callum/QDESCP/Lidocaine_rdkit_conf_14/Lidocaine_rdkit_conf_14.xyz
          omp threads                :                     1


           -------------------------------------------------
          |                 G F N 2 - x T B                 |
           -------------------------------------------------

        Reference                      10.1021/acs.jctc.8b01176
      * Hamiltonian:
        H0-scaling (s, p, d)           1.850000    2.230000    2.230000
        zeta-weighting                 0.500000
      * Dispersion:
        s8                             2.700000
        a1                             0.520000
        a2                             5.000000
        s9                             5.000000
      * Repulsion:
        kExp                           1.500000    1.000000
        rExp                           1.000000
      * Coulomb:
        alpha                          2.000000
        third order                    shell-resolved
        anisotropic                    true
        a3                             3.000000
        a5                             4.000000
        cn-shift                       1.200000
        cn-exp                         4.000000
        max-rad                        5.000000


          ...................................................
          :                      SETUP                      :
          :.................................................:
          :  # basis functions                  90          :
          :  # atomic orbitals                  90          :
          :  # shells                           56          :
          :  # electrons                        94          :
          :  max. iterations                   250          :
          :  Hamiltonian                  GFN2-xTB          :
          :  restarted?                      false          :
          :  GBSA solvation                  false          :
          :  PC potential                    false          :
          :  electronic temp.          300.0000000     K    :
          :  accuracy                    1.0000000          :
          :  -> integral cutoff          0.2500000E+02      :
          :  -> integral neglect         0.1000000E-07      :
          :  -> SCF convergence          0.1000000E-05 Eh   :
          :  -> wf. convergence          0.1000000E-03 e    :
          :  Broyden damping             0.4000000          :
          :  net charge                          0          :
          :  unpaired electrons                  2          :
          ...................................................

 iter      E             dE          RMSdq      gap      omega  full diag
   1    -51.4449569 -0.514450E+02  0.321E+00    0.15       0.0  T
   2    -51.4230088  0.219482E-01  0.334E+00    1.26       1.0  T
   3    -51.5706955 -0.147687E+00  0.201E+00    0.16       1.0  T
   4    -51.4819469  0.887486E-01  0.256E+00    1.38       1.0  T
   5    -51.6599914 -0.178044E+00  0.146E+00    0.60       1.0  T
   6    -51.6724330 -0.124416E-01  0.107E+00    0.36       1.0  T
   7    -51.6994326 -0.269997E-01  0.878E-01    0.42       1.0  T
   8    -51.7180611 -0.186284E-01  0.654E-01    0.37       1.0  T
   9    -51.7363989 -0.183378E-01  0.361E-01    0.27       1.0  T
  10    -51.7410295 -0.463058E-02  0.130E-01    0.27       1.0  T
  11    -51.7401549  0.874638E-03  0.139E-01    0.30       1.0  T
  12    -51.7409199 -0.765086E-03  0.866E-02    0.26       1.0  T
  13    -51.7414195 -0.499592E-03  0.140E-02    0.27       1.1  T
  14    -51.7414245 -0.500601E-05  0.408E-03    0.27       3.9  T
  15    -51.7414235  0.996889E-06  0.496E-03    0.27       3.2  T
  16    -51.7414245 -0.988838E-06  0.257E-03    0.27       6.2  T
  17    -51.7414249 -0.399070E-06  0.331E-04    0.27      48.4  T
  18    -51.7414249 -0.148967E-08  0.157E-04    0.27     102.0  T

   *** convergence criteria satisfied after 18 iterations ***

         #    Occupation            Energy/Eh            Energy/eV
      -------------------------------------------------------------
         1        2.0000           -0.6851420             -18.6437
       ...           ...                  ...                  ...
        42        2.0000           -0.4132368             -11.2447
        43        2.0000           -0.4078043             -11.0969
        44        2.0000           -0.3983218             -10.8389
        45        1.9997           -0.3766613             -10.2495
        46        1.9738           -0.3725129             -10.1366
        47        1.0265           -0.3656560              -9.9500
        48        0.9947           -0.2128632              -5.7923 (HOMO)
        49        0.0053           -0.2029169              -5.5216 (LUMO)
        50                         -0.1798191              -4.8931
        51                         -0.0759231              -2.0660
        52                         -0.0098646              -0.2684
        53                          0.0209359               0.5697
       ...                                ...                  ...
        90                          0.6920868              18.8326
      -------------------------------------------------------------
                  HL-Gap            0.0099463 Eh            0.2707 eV
             Fermi-level           -0.2884841 Eh           -7.8501 eV

 transition dipole moment (au) for excitation:          47          48
     X       Y       Z   
  -1.1437  -0.2988   0.7844  total (au/Debye):    1.419   3.606
 dE (eV)             :    4.158
 oscillator strength :  0.28992E+00

 SCC (total)                   0 d,  0 h,  0 min,  0.058 sec
 SCC setup                      ...        0 min,  0.000 sec (  0.476%)
 Dispersion                     ...        0 min,  0.000 sec (  0.591%)
 classical contributions        ...        0 min,  0.000 sec (  0.212%)
 integral evaluation            ...        0 min,  0.006 sec ( 10.080%)
 iterations                     ...        0 min,  0.027 sec ( 46.342%)
 molecular gradient             ...        0 min,  0.019 sec ( 33.323%)
 printout                       ...        0 min,  0.005 sec (  8.964%)

         :::::::::::::::::::::::::::::::::::::::::::::::::::::
         ::                     SUMMARY                     ::
         :::::::::::::::::::::::::::::::::::::::::::::::::::::
         :: total energy             -50.983180202708 Eh    ::
         :: gradient norm              0.149222736916 Eh/a0 ::
         :: HOMO-LUMO gap              0.270653938085 eV    ::
         ::.................................................::
         :: SCC energy               -51.740813480515 Eh    ::
         :: -> isotropic ES            0.044516508129 Eh    ::
         :: -> anisotropic ES          0.008043836649 Eh    ::
         :: -> anisotropic XC          0.024986272472 Eh    ::
         :: -> dispersion             -0.037397965710 Eh    ::
         :: repulsion energy           0.757633277808 Eh    ::
         :: add. restraining           0.000000000000 Eh    ::
         :: total charge              -0.000000000000 e     ::
         :::::::::::::::::::::::::::::::::::::::::::::::::::::

           -------------------------------------------------
          |                Property Printout                |
           -------------------------------------------------

    * Orbital Energies and Occupations

         #    Occupation            Energy/Eh            Energy/eV
      -------------------------------------------------------------
         1        2.0000           -0.6851420             -18.6437
       ...           ...                  ...                  ...
        36        2.0000           -0.4593487             -12.4995
        37        2.0000           -0.4573204             -12.4443
        38        2.0000           -0.4466463             -12.1539
        39        2.0000           -0.4449532             -12.1078
        40        2.0000           -0.4394875             -11.9591
        41        2.0000           -0.4255239             -11.5791
        42        2.0000           -0.4132368             -11.2447
        43        2.0000           -0.4078043             -11.0969
        44        2.0000           -0.3983218             -10.8389
        45        1.9997           -0.3766613             -10.2495
        46        1.9738           -0.3725129             -10.1366
        47        1.0265           -0.3656560              -9.9500
        48        0.9947           -0.2128632              -5.7923 (HOMO)
        49        0.0053           -0.2029169              -5.5216 (LUMO)
        50                         -0.1798191              -4.8931
        51                         -0.0759231              -2.0660
        52                         -0.0098646              -0.2684
        53                          0.0209359               0.5697
        54                          0.0538865               1.4663
        55                          0.0714276               1.9436
        56                          0.0915561               2.4914
        57                          0.1022126               2.7813
        58                          0.1043531               2.8396
        59                          0.1063838               2.8948
       ...                                ...                  ...
        90                          0.6920868              18.8326
      -------------------------------------------------------------
                  HL-Gap            0.0099463 Eh            0.2707 eV
             Fermi-level           -0.2884841 Eh           -7.8501 eV

     #   Z          covCN         q      C6AA      α(0)
     1   6 C        3.758    -0.111    22.672     6.789
     2   6 C        2.965     0.015    27.673     8.629
     3   6 C        2.927    -0.054    29.350     8.885
     4   6 C        2.915    -0.049    29.211     8.863
     5   6 C        2.925    -0.042    29.051     8.839
     6   6 C        2.969    -0.016    28.401     8.741
     7   6 C        3.757    -0.105    22.555     6.771
     8   6 C        2.913     0.045    26.993     8.519
     9   7 N        2.696    -0.142    24.079     7.288
    10   6 C        2.746     0.223    23.301     7.904
    11   6 C        3.761    -0.020    20.979     6.529
    12   7 N        2.727    -0.152    24.279     7.318
    13   6 C        3.759     0.012    20.424     6.443
    14   6 C        3.752    -0.111    22.689     6.793
    15   6 C        3.751     0.009    20.490     6.456
    16   6 C        3.752    -0.110    22.666     6.789
    17   8 O        0.857    -0.429    22.278     6.328
    18   1 H        0.925     0.040     2.454     2.450
    19   1 H        0.925     0.040     2.443     2.444
    20   1 H        0.925     0.091     1.873     2.140
    21   1 H        0.926     0.025     2.652     2.547
    22   1 H        0.926     0.021     2.717     2.578
    23   1 H        0.926     0.024     2.672     2.556
    24   1 H        0.924     0.033     2.548     2.496
    25   1 H        0.925     0.041     2.430     2.438
    26   1 H        0.925     0.042     2.425     2.435
    27   1 H        0.860     0.188     1.168     1.693
    28   1 H        0.924     0.043     2.409     2.427
    29   1 H        0.923     0.049     2.335     2.390
    30   1 H        0.924     0.041     2.436     2.441
    31   1 H        0.922     0.019     2.745     2.591
    32   1 H        0.925     0.057     2.232     2.336
    33   1 H        0.925     0.043     2.414     2.430
    34   1 H        0.925     0.043     2.409     2.427
    35   1 H        0.923     0.025     2.663     2.552
    36   1 H        0.924     0.039     2.456     2.451
    37   1 H        0.925     0.045     2.382     2.414
    38   1 H        0.925     0.045     2.387     2.416
    39   1 H        0.925     0.044     2.399     2.422

 Mol. C6AA /au·bohr⁶  :      13867.794087
 Mol. C8AA /au·bohr⁸  :     311455.841994
 Mol. α(0) /au        :        180.957692


Wiberg/Mayer (AO) data.
largest (>0.10) Wiberg bond orders for each atom

 ---------------------------------------------------------------------------
     #   Z sym  total        # sym  WBO       # sym  WBO       # sym  WBO
 ---------------------------------------------------------------------------
     1   6 C    3.993 --     2 C    1.043    18 H    0.983    19 H    0.969
                            20 H    0.937
     2   6 C    3.957 --     3 C    1.531     8 C    1.143     1 C    1.043
     3   6 C    3.968 --     2 C    1.531     4 C    1.266    21 H    0.968
     4   6 C    3.814 --     3 C    1.266     5 C    1.266    22 H    0.972
     5   6 C    3.969 --     6 C    1.550     4 C    1.266    23 H    0.969
     6   6 C    3.948 --     5 C    1.550     8 C    1.127     7 C    1.027
     7   6 C    3.996 --     6 C    1.027    26 H    0.985    24 H    0.967
                            25 H    0.963
     8   6 C    3.812 --     9 N    1.161     2 C    1.143     6 C    1.127
                            10 C    0.111
     9   7 N    3.500 --     8 C    1.161    10 C    1.133    27 H    0.905
                            17 O    0.121
    10   6 C    3.898 --    17 O    1.557     9 N    1.133    11 C    0.911
                             8 C    0.111
    11   6 C    3.961 --    12 N    1.015    29 H    0.961    28 H    0.949
                            10 C    0.911
    12   7 N    3.222 --    11 C    1.015    13 C    0.997    15 C    0.996
    13   6 C    3.980 --    14 C    1.016    12 N    0.997    30 H    0.970
                            31 H    0.961
    14   6 C    3.992 --    13 C    1.016    33 H    0.985    32 H    0.982
                            34 H    0.979
    15   6 C    3.979 --    16 C    1.014    12 N    0.996    36 H    0.971
                            35 H    0.963
    16   6 C    3.993 --    15 C    1.014    38 H    0.986    37 H    0.985
                            39 H    0.983
    17   8 O    2.038 --    10 C    1.557     9 N    0.121
    18   1 H    0.998 --     1 C    0.983
    19   1 H    0.997 --     1 C    0.969
    20   1 H    0.990 --     1 C    0.937
    21   1 H    0.998 --     3 C    0.968
    22   1 H    0.999 --     4 C    0.972
    23   1 H    0.998 --     5 C    0.969
    24   1 H    0.998 --     7 C    0.967
    25   1 H    0.997 --     7 C    0.963
    26   1 H    0.998 --     7 C    0.985
    27   1 H    0.964 --     9 N    0.905
    28   1 H    0.992 --    11 C    0.949
    29   1 H    0.993 --    11 C    0.961
    30   1 H    0.998 --    13 C    0.970
    31   1 H    0.992 --    13 C    0.961
    32   1 H    0.997 --    14 C    0.982
    33   1 H    0.998 --    14 C    0.985
    34   1 H    0.998 --    14 C    0.979
    35   1 H    0.989 --    15 C    0.963
    36   1 H    0.998 --    15 C    0.971
    37   1 H    0.998 --    16 C    0.985
    38   1 H    0.998 --    16 C    0.986
    39   1 H    0.998 --    16 C    0.983
 ---------------------------------------------------------------------------

Topologies differ in total number of bonds
Writing topology from bond orders to xtbtopo.mol

molecular dipole:
                 x           y           z       tot (Debye)
 q only:        1.351      -1.331       0.158
   full:        1.814      -1.515      -0.006       6.007
molecular quadrupole (traceless):
                xx          xy          yy          xz          yz          zz
 q only:        3.332       0.644      -4.764       1.288       4.758       1.432
  q+dip:        6.725       1.824      -9.870      -1.672       4.904       3.145
   full:        5.223       1.891      -7.832      -0.938       5.791       2.609


           -------------------------------------------------
          | TOTAL ENERGY              -50.983180202708 Eh   |
          | GRADIENT NORM               0.149222736916 Eh/α |
          | HOMO-LUMO GAP               0.270653938085 eV   |
           -------------------------------------------------

------------------------------------------------------------------------
 * finished run on 2025/05/15 at 16:06:38.926     
------------------------------------------------------------------------
 total:
 * wall-time:     0 d,  0 h,  0 min,  0.069 sec
 *  cpu-time:     0 d,  0 h,  0 min,  0.068 sec
 * ratio c/w:     0.984 speedup
 SCF:
 * wall-time:     0 d,  0 h,  0 min,  0.058 sec
 *  cpu-time:     0 d,  0 h,  0 min,  0.058 sec
 * ratio c/w:     0.994 speedup


