51
 energy: -84.107914139322 gnorm: 0.000500021561 xtb: 6.7.1 (edcfbbe)
F            8.62673934005517        0.88263556260486        2.25401119621626
C            7.61044987554934        0.49894387615764        1.45920749148369
C            7.84002129555515        0.32572869055377        0.10534491789162
C            6.78683876464938       -0.06844771360888       -0.69390808109167
C            5.51445780974471       -0.28666351890178       -0.16106642470039
C            5.31939992880220       -0.11021013946189        1.20837844296677
C            6.36453930185814        0.28348890295224        2.02222633409867
C            4.44663039457570       -0.71159515244818       -1.11072922003147
C            3.01357411061426       -0.66344200889629       -0.61843352083015
C            2.06311629147842       -1.36791502773320       -1.58513272140193
C            0.62967774050120       -1.25049970569508       -1.07608601735508
N            0.27178469941740        0.14984122623395       -0.96624683353200
C            1.10881937260983        0.83237033469768       -0.00243018371853
C            2.56030631051730        0.79620408328897       -0.47699165782442
C           -1.13744213313218        0.40743167340292       -0.83053158685944
C           -1.78578795520297       -0.09332698343160        0.47947147024339
N           -3.21086646712395        0.19151110903050        0.48332613926544
C           -3.58952721600801        1.44213643069786        0.93227436403006
N           -4.93735394568712        1.69557715688273        0.91228316513312
C           -5.89732449617008        0.81374188112565        0.47771524809434
C           -7.25131003962138        1.14381767273941        0.48740826859224
C           -8.18105385823531        0.22701140499003        0.04208460040141
C           -7.78169551693062       -1.02406421716268       -0.41729535733840
C           -6.44440703060692       -1.35567110454466       -0.43069138220661
C           -5.49012950112773       -0.44182044018250        0.01610911949138
C           -4.06728345509507       -0.79212702707487        0.00087133471019
O           -3.63465626985783       -1.85554985627561       -0.38960150466625
O           -2.79856326455923        2.26774842871516        1.32777696681530
O            4.72510644335922       -1.05428376404764       -2.23804999045078
H            8.82473560018193        0.49709753710326       -0.29937653391414
H            6.92661001648714       -0.21598470537525       -1.75413223353295
H            4.35674080627191       -0.28845856104741        1.65961431939613
H            6.22719154569955        0.42195615824396        3.08311282909746
H            2.95257021018631       -1.15518224380683        0.35812836722940
H            2.33959378323398       -2.41834549425390       -1.68492313401034
H            2.14172856375731       -0.90104022789401       -2.56672305871307
H           -0.05544454074796       -1.72821754633281       -1.77885987647392
H            0.54900015858752       -1.77544673881646       -0.10703737169102
H            0.77103201151208        1.86777640996854        0.07858424720558
H            1.05017196861934        0.37119754993289        1.00045810096255
H            2.62705847833380        1.28222287023486       -1.45114238917075
H            3.19500167010418        1.33878169977913        0.22530732358097
H           -1.29114204663538        1.48878102431365       -0.89699566256405
H           -1.64955140943909       -0.06933117391854       -1.67159232548606
H           -1.34258187134869        0.41414604369803        1.33744420796454
H           -1.67216846952641       -1.17468861532266        0.56770950721075
H           -5.21524925760348        2.60865151463841        1.24657424155767
H           -7.56027230076926        2.11515318621350        0.84418727818555
H           -9.22903999671344        0.48596779707149        0.05112439183527
H           -8.51974263565252       -1.73105420215683       -0.76219171460117
H           -6.10040281447053       -2.31665405688355       -0.78066509150098
