----- Optimization -----
      -----------------------------------------------------------      
     |                   =====================                   |     
     |                           x T B                           |     
     |                   =====================                   |     
     |                         S. Grimme                         |     
     |          Mulliken Center for Theoretical Chemistry        |     
     |                    University of Bonn                     |     
      -----------------------------------------------------------      

   * xtb version 6.7.1 (edcfbbe) compiled by 'conda@3ef47c1a292c' on 2024-11-25

   xtb is free software: you can redistribute it and/or modify it under
   the terms of the GNU Lesser General Public License as published by
   the Free Software Foundation, either version 3 of the License, or
   (at your option) any later version.
   
   xtb is distributed in the hope that it will be useful,
   but WITHOUT ANY WARRANTY; without even the implied warranty of
   MERCHANTABILITY or FITNESS FOR A PARTICULAR PURPOSE.  See the
   GNU Lesser General Public License for more details.
   
   Cite this work as:
   * C. Bannwarth, E. Caldeweyher, S. Ehlert, A. Hansen, P. Pracht,
     J. Seibert, S. Spicher, S. Grimme, WIREs Comput. Mol. Sci., 2020, 11,
     e01493. DOI: 10.1002/wcms.1493
   
   for GFN2-xTB:
   * C. Bannwarth, S. Ehlert and S. Grimme., J. Chem. Theory Comput., 2019,
     15, 1652-1671. DOI: 10.1021/acs.jctc.8b01176
   for GFN1-xTB:
   * S. Grimme, C. Bannwarth, P. Shushkov, J. Chem. Theory Comput., 2017,
     13, 1989-2009. DOI: 10.1021/acs.jctc.7b00118
   for GFN0-xTB:
   * P. Pracht, E. Caldeweyher, S. Ehlert, S. Grimme, ChemRxiv, 2019, preprint.
     DOI: 10.26434/chemrxiv.8326202.v1
   for GFN-FF:
   * S. Spicher and S. Grimme, Angew. Chem. Int. Ed., 2020, 59, 15665-15673.
     DOI: 10.1002/anie.202004239
   
   for ALPB and GBSA implicit solvation:
   * S. Ehlert, M. Stahn, S. Spicher, S. Grimme, J. Chem. Theory Comput.,
     2021, 17, 4250-4261. DOI: 10.1021/acs.jctc.1c00471
   
   for ddCOSMO and CPCM-X implicit solvation:
   * M. Stahn, S. Ehlert, S. Grimme, J. Phys. Chem. A,
     2023, XX, XXXX-XXXX. DOI: 10.1021/acs.jpca.3c04382
   
   for DFT-D4:
   * E. Caldeweyher, C. Bannwarth and S. Grimme, J. Chem. Phys., 2017,
     147, 034112. DOI: 10.1063/1.4993215
   * E. Caldeweyher, S. Ehlert, A. Hansen, H. Neugebauer, S. Spicher,
     C. Bannwarth and S. Grimme, J. Chem. Phys., 2019, 150, 154122.
     DOI: 10.1063/1.5090222
   * E. Caldeweyher, J.-M. Mewes, S. Ehlert and S. Grimme, Phys. Chem. Chem. Phys.
     2020, 22, 8499-8512. DOI: 10.1039/D0CP00502A
   
   for sTDA-xTB:
   * S. Grimme and C. Bannwarth, J. Chem. Phys., 2016, 145, 054103.
     DOI: 10.1063/1.4959605
   
   in the mass-spec context:
   * V. Asgeirsson, C. Bauer and S. Grimme, Chem. Sci., 2017, 8, 4879.
     DOI: 10.1039/c7sc00601b
   * J. Koopman and S. Grimme, ACS Omega 2019, 4, 12, 15120-15133.
     DOI: 10.1021/acsomega.9b02011
   
   for metadynamics refer to:
   * S. Grimme, J. Chem. Theory Comput., 2019, 155, 2847-2862
     DOI: 10.1021/acs.jctc.9b00143
   
   for SPH calculations refer to:
   * S. Spicher and S. Grimme, J. Chem. Theory Comput., 2021, 17, 1701-1714
     DOI: 10.1021/acs.jctc.0c01306
   
   for ONIOM refer to:
   * C. Plett, A. Katbashev, S. Ehlert, S. Grimme, M. Bursch,
     Phys. Chem. Chem. Phys., 2023, 25, 17860-17868. DOI: 10.1039/D3CP02178E
   
   for DIPRO refer to:
   * J. Kohn, N. Gildemeister, S. Grimme, D. Fazzi, A. Hansen,
     J. Chem. Phys., 2023, just accepted.
   
   for PTB refer to:
   * S. Grimme, M. Mueller, A. Hansen, J. Chem. Phys., 2023, 158, 124111.
     DOI: 10.1063/5.0137838
   
   with help from (in alphabetical order)
   P. Atkinson, C. Bannwarth, F. Bohle, G. Brandenburg, E. Caldeweyher
   M. Checinski, S. Dohm, S. Ehlert, S. Ehrlich, I. Gerasimov, C. Hölzer
   A. Katbashev, J. Kohn, J. Koopman, C. Lavigne, S. Lehtola, F. März, M. Müller,
   F. Musil, H. Neugebauer, J. Pisarek, C. Plett, P. Pracht, F. Pultar,
   J. Seibert, P. Shushkov, S. Spicher, M. Stahn, M. Steiner, T. Strunk,
   J. Stückrath, T. Rose, and J. Unsleber
   
 * started run on 2025/05/15 at 16:32:18.279     
   ID    Z sym.   atoms
    1    9 F      1
    2    6 C      2-11, 13-16, 18, 20-26
    3    7 N      12, 17, 19
    4    8 O      27-29
    5    1 H      30-51

           -------------------------------------------------
          |                Calculation Setup                |
           -------------------------------------------------

          program call               : xtb /rds/general/user/hgt20/home/callum/QDESCP/Ketanserin_rdkit_conf_11/Ketanserin_rdkit_conf_11.xyz --opt normal --acc 1 --gfn 2 --chrg 0 --uhf 0 -P 1
          hostname                   : login-c
          coordinate file            : /rds/general/user/hgt20/home/callum/QDESCP/Ketanserin_rdkit_conf_11/Ketanserin_rdkit_conf_11.xyz
          omp threads                :                     1


           -------------------------------------------------
          |                 G F N 2 - x T B                 |
           -------------------------------------------------

        Reference                      10.1021/acs.jctc.8b01176
      * Hamiltonian:
        H0-scaling (s, p, d)           1.850000    2.230000    2.230000
        zeta-weighting                 0.500000
      * Dispersion:
        s8                             2.700000
        a1                             0.520000
        a2                             5.000000
        s9                             5.000000
      * Repulsion:
        kExp                           1.500000    1.000000
        rExp                           1.000000
      * Coulomb:
        alpha                          2.000000
        third order                    shell-resolved
        anisotropic                    true
        a3                             3.000000
        a5                             4.000000
        cn-shift                       1.200000
        cn-exp                         4.000000
        max-rad                        5.000000


          ...................................................
          :                      SETUP                      :
          :.................................................:
          :  # basis functions                 138          :
          :  # atomic orbitals                 138          :
          :  # shells                           80          :
          :  # electrons                       150          :
          :  max. iterations                   250          :
          :  Hamiltonian                  GFN2-xTB          :
          :  restarted?                      false          :
          :  GBSA solvation                  false          :
          :  PC potential                    false          :
          :  electronic temp.          300.0000000     K    :
          :  accuracy                    1.0000000          :
          :  -> integral cutoff          0.2500000E+02      :
          :  -> integral neglect         0.1000000E-07      :
          :  -> SCF convergence          0.1000000E-05 Eh   :
          :  -> wf. convergence          0.1000000E-03 e    :
          :  Broyden damping             0.4000000          :
          :  net charge                          0          :
          :  unpaired electrons                  0          :
          ...................................................

 iter      E             dE          RMSdq      gap      omega  full diag
   1    -84.9926605 -0.849927E+02  0.443E+00    2.46       0.0  T
   2    -85.1545455 -0.161885E+00  0.256E+00    2.10       1.0  T
   3    -85.1624076 -0.786216E-02  0.142E+00    2.01       1.0  T
   4    -85.1777088 -0.153012E-01  0.316E-01    1.63       1.0  T
   5    -85.1811148 -0.340602E-02  0.945E-02    1.66       1.0  T
   6    -85.1812262 -0.111373E-03  0.507E-02    1.69       1.0  T
   7    -85.1812815 -0.553346E-04  0.196E-02    1.70       1.0  T
   8    -85.1812829 -0.140980E-05  0.813E-03    1.70       1.7  T
   9    -85.1812840 -0.108513E-05  0.353E-03    1.70       4.0  T
  10    -85.1812841 -0.128671E-06  0.118E-03    1.70      11.8  T
  11    -85.1812841 -0.198308E-07  0.619E-04    1.70      22.6  T
  12    -85.1812841 -0.385864E-08  0.191E-04    1.70      73.2  T

   *** convergence criteria satisfied after 12 iterations ***

         #    Occupation            Energy/Eh            Energy/eV
      -------------------------------------------------------------
         1        2.0000           -0.8285471             -22.5459
       ...           ...                  ...                  ...
        69        2.0000           -0.4290202             -11.6742
        70        2.0000           -0.4278070             -11.6412
        71        2.0000           -0.4214931             -11.4694
        72        2.0000           -0.4127583             -11.2317
        73        2.0000           -0.4090142             -11.1298
        74        2.0000           -0.3949215             -10.7464
        75        2.0000           -0.3530171              -9.6061 (HOMO)
        76                         -0.2905685              -7.9068 (LUMO)
        77                         -0.2842276              -7.7342
        78                         -0.2557313              -6.9588
        79                         -0.2544284              -6.9233
        80                         -0.2257217              -6.1422
       ...                                ...                  ...
       138                          0.6629443              18.0396
      -------------------------------------------------------------
                  HL-Gap            0.0624486 Eh            1.6993 eV
             Fermi-level           -0.3217928 Eh           -8.7564 eV

 SCC (total)                   0 d,  0 h,  0 min,  0.120 sec
 SCC setup                      ...        0 min,  0.001 sec (  0.426%)
 Dispersion                     ...        0 min,  0.001 sec (  0.574%)
 classical contributions        ...        0 min,  0.000 sec (  0.177%)
 integral evaluation            ...        0 min,  0.010 sec (  8.313%)
 iterations                     ...        0 min,  0.039 sec ( 32.288%)
 molecular gradient             ...        0 min,  0.070 sec ( 57.999%)
 printout                       ...        0 min,  0.000 sec (  0.217%)

         :::::::::::::::::::::::::::::::::::::::::::::::::::::
         ::                     SUMMARY                     ::
         :::::::::::::::::::::::::::::::::::::::::::::::::::::
         :: total energy             -84.097373362119 Eh    ::
         :: gradient norm              0.086289841236 Eh/a0 ::
         :: HOMO-LUMO gap              1.699311669885 eV    ::
         ::.................................................::
         :: SCC energy               -85.181626367121 Eh    ::
         :: -> isotropic ES            0.116705481849 Eh    ::
         :: -> anisotropic ES          0.005389152393 Eh    ::
         :: -> anisotropic XC          0.029538572205 Eh    ::
         :: -> dispersion             -0.055614031366 Eh    ::
         :: repulsion energy           1.084253005002 Eh    ::
         :: add. restraining           0.000000000000 Eh    ::
         :: total charge              -0.000000000000 e     ::
         :::::::::::::::::::::::::::::::::::::::::::::::::::::

      ----------------------------------------------------------- 
     |                   =====================                   |
     |                        A N C O P T                        |
     |                   =====================                   |
     |               Approximate Normal Coordinate               |
     |                Rational Function Optimizer                |
      ----------------------------------------------------------- 
      ----------------------------------------------------------- 
     |                   =====================                   |
     |                        A N C O P T                        |
     |                   =====================                   |
     |               Approximate Normal Coordinate               |
     |                Rational Function Optimizer                |
      ----------------------------------------------------------- 

          ...................................................
          :                      SETUP                      :
          :.................................................:
          :   optimization level            normal          :
          :   max. optcycles                   200          :
          :   ANC micro-cycles                  20          :
          :   degrees of freedom               147          :
          :.................................................:
          :   RF solver                   davidson          :
          :   write xtbopt.log                true          :
          :   linear?                        false          :
          :   energy convergence         0.5000000E-05 Eh   :
          :   grad. convergence          0.1000000E-02 Eh/α :
          :   maxmium RF displ.          1.0000000          :
          :   Hlow (freq-cutoff)         0.1000000E-01      :
          :   Hmax (freq-cutoff)         5.0000000          :
          :   S6 in model hess.         20.0000000          :
          ...................................................

generating ANC from exact Hessian ...
Using Lindh-Hessian (1995)
 Shifting diagonal of input Hessian by    9.8256980364128006E-003
 Lowest  eigenvalues of input Hessian
    0.000000    0.000000    0.000000    0.000000    0.000000    0.000000
    0.010000    0.010086    0.010405    0.010543    0.010603    0.011078
    0.012286    0.013009    0.013901    0.015266    0.016118    0.016580
 Highest eigenvalues
    2.031090    2.047112    2.091989    2.101883    2.299118    2.472332


........................................................................
.............................. CYCLE    1 ..............................
........................................................................

 iter      E             dE          RMSdq      gap      omega  full diag
   1    -85.1812841 -0.851813E+02  0.689E-05    1.70       0.0  T
   2    -85.1812841 -0.450342E-10  0.418E-05    1.70     335.3  T
   3    -85.1812841 -0.224958E-10  0.263E-05    1.70     532.7  T
     SCC iter.                  ...        0 min,  0.010 sec
     gradient                   ...        0 min,  0.063 sec
 * total energy  :   -84.0973734 Eh     change       -0.4975789E-09 Eh
   gradient norm :     0.0862896 Eh/α   predicted     0.0000000E+00 (-100.00%)
   displ. norm   :     0.2867699 α      lambda       -0.1152233E-01
   maximum displ.:     0.1027725 α      in ANC's #14, #45, #9, ...

........................................................................
.............................. CYCLE    2 ..............................
........................................................................

 iter      E             dE          RMSdq      gap      omega  full diag
   1    -85.2298978 -0.852299E+02  0.169E-01    1.73       0.0  T
   2    -85.2300198 -0.121970E-03  0.985E-02    1.73       1.0  T
   3    -85.2300036  0.161228E-04  0.385E-02    1.73       1.0  T
   4    -85.2300323 -0.286274E-04  0.942E-03    1.73       1.5  T
   5    -85.2300357 -0.344713E-05  0.320E-03    1.73       4.4  T
   6    -85.2300359 -0.159133E-06  0.154E-03    1.73       9.1  T
   7    -85.2300359 -0.253506E-07  0.581E-04    1.73      24.1  T
   8    -85.2300359 -0.348547E-08  0.239E-04    1.73      58.5  T
     SCC iter.                  ...        0 min,  0.025 sec
     gradient                   ...        0 min,  0.057 sec
 * total energy  :   -84.1051017 Eh     change       -0.7728299E-02 Eh
   gradient norm :     0.0320641 Eh/α   predicted    -0.6242470E-02 ( -19.23%)
   displ. norm   :     0.2655025 α      lambda       -0.3006632E-02
   maximum displ.:     0.1421835 α      in ANC's #14, #9, #20, ...

........................................................................
.............................. CYCLE    3 ..............................
........................................................................

 iter      E             dE          RMSdq      gap      omega  full diag
   1    -85.2509422 -0.852509E+02  0.987E-02    1.70       0.0  T
   2    -85.2509820 -0.398525E-04  0.568E-02    1.71       1.0  T
   3    -85.2509750  0.699752E-05  0.246E-02    1.71       1.0  T
   4    -85.2509873 -0.122840E-04  0.538E-03    1.71       2.6  T
   5    -85.2509886 -0.123419E-05  0.169E-03    1.71       8.3  T
   6    -85.2509886 -0.403883E-07  0.809E-04    1.71      17.3  T
   7    -85.2509886 -0.685179E-08  0.319E-04    1.71      44.0  T
     SCC iter.                  ...        0 min,  0.022 sec
     gradient                   ...        0 min,  0.059 sec
 * total energy  :   -84.1069372 Eh     change       -0.1835558E-02 Eh
   gradient norm :     0.0093938 Eh/α   predicted    -0.1610228E-02 ( -12.28%)
   displ. norm   :     0.1954844 α      lambda       -0.6344480E-03
   maximum displ.:     0.1189823 α      in ANC's #9, #14, #4, ...

........................................................................
.............................. CYCLE    4 ..............................
........................................................................

 iter      E             dE          RMSdq      gap      omega  full diag
   1    -85.2531539 -0.852532E+02  0.456E-02    1.69       0.0  T
   2    -85.2531575 -0.361719E-05  0.265E-02    1.70       1.0  T
   3    -85.2531560  0.155789E-05  0.834E-03    1.70       1.7  T
   4    -85.2531581 -0.214922E-05  0.169E-03    1.70       8.3  T
   5    -85.2531582 -0.111456E-06  0.676E-04    1.70      20.7  T
   6    -85.2531582 -0.435118E-08  0.295E-04    1.70      47.4  T
     SCC iter.                  ...        0 min,  0.019 sec
     gradient                   ...        0 min,  0.060 sec
 * total energy  :   -84.1073886 Eh     change       -0.4513752E-03 Eh
   gradient norm :     0.0060856 Eh/α   predicted    -0.3293509E-03 ( -27.03%)
   displ. norm   :     0.2092538 α      lambda       -0.3746802E-03
   maximum displ.:     0.1270996 α      in ANC's #9, #14, #4, ...

........................................................................
.............................. CYCLE    5 ..............................
........................................................................

 iter      E             dE          RMSdq      gap      omega  full diag
   1    -85.2527821 -0.852528E+02  0.417E-02    1.68       0.0  T
   2    -85.2527844 -0.220356E-05  0.243E-02    1.69       1.0  T
   3    -85.2527842  0.158240E-06  0.415E-03    1.69       3.4  T
   4    -85.2527846 -0.391704E-06  0.122E-03    1.69      11.4  T
   5    -85.2527846 -0.329837E-07  0.585E-04    1.69      23.9  T
   6    -85.2527846 -0.331133E-08  0.230E-04    1.69      60.9  T
     SCC iter.                  ...        0 min,  0.019 sec
     gradient                   ...        0 min,  0.065 sec
 * total energy  :   -84.1076267 Eh     change       -0.2380978E-03 Eh
   gradient norm :     0.0044980 Eh/α   predicted    -0.1955440E-03 ( -17.87%)
   displ. norm   :     0.1217054 α      lambda       -0.1082384E-03
   maximum displ.:     0.0647287 α      in ANC's #9, #7, #14, ...

........................................................................
.............................. CYCLE    6 ..............................
........................................................................

 iter      E             dE          RMSdq      gap      omega  full diag
   1    -85.2524167 -0.852524E+02  0.235E-02    1.69       0.0  T
   2    -85.2524172 -0.431001E-06  0.138E-02    1.69       1.0  T
   3    -85.2524170  0.141102E-06  0.230E-03    1.70       6.1  T
   4    -85.2524172 -0.198740E-06  0.737E-04    1.70      19.0  T
   5    -85.2524172 -0.164661E-07  0.290E-04    1.70      48.3  T
     SCC iter.                  ...        0 min,  0.016 sec
     gradient                   ...        0 min,  0.078 sec
 * total energy  :   -84.1077012 Eh     change       -0.7451956E-04 Eh
   gradient norm :     0.0032493 Eh/α   predicted    -0.5492100E-04 ( -26.30%)
   displ. norm   :     0.1158574 α      lambda       -0.6894075E-04
   maximum displ.:     0.0689854 α      in ANC's #7, #9, #4, ...

........................................................................
.............................. CYCLE    7 ..............................
........................................................................

 iter      E             dE          RMSdq      gap      omega  full diag
   1    -85.2525601 -0.852526E+02  0.207E-02    1.70       0.0  T
   2    -85.2525605 -0.380304E-06  0.122E-02    1.70       1.1  T
   3    -85.2525603  0.208930E-06  0.265E-03    1.70       5.3  T
   4    -85.2525605 -0.277988E-06  0.633E-04    1.70      22.1  T
   5    -85.2525606 -0.123186E-07  0.285E-04    1.70      49.1  T
     SCC iter.                  ...        0 min,  0.016 sec
     gradient                   ...        0 min,  0.032 sec
 * total energy  :   -84.1077472 Eh     change       -0.4595002E-04 Eh
   gradient norm :     0.0021572 Eh/α   predicted    -0.3495188E-04 ( -23.94%)
   displ. norm   :     0.0850310 α      lambda       -0.3618998E-04
   maximum displ.:     0.0560246 α      in ANC's #7, #4, #3, ...

........................................................................
.............................. CYCLE    8 ..............................
........................................................................

 iter      E             dE          RMSdq      gap      omega  full diag
   1    -85.2529067 -0.852529E+02  0.150E-02    1.71       0.0  T
   2    -85.2529069 -0.265369E-06  0.882E-03    1.71       1.6  T
   3    -85.2529069  0.595562E-07  0.172E-03    1.71       8.1  T
   4    -85.2529069 -0.861877E-07  0.443E-04    1.71      31.6  T
   5    -85.2529070 -0.711672E-08  0.196E-04    1.71      71.6  T
     SCC iter.                  ...        0 min,  0.036 sec
     gradient                   ...        0 min,  0.032 sec
 * total energy  :   -84.1077725 Eh     change       -0.2537614E-04 Eh
   gradient norm :     0.0018888 Eh/α   predicted    -0.1822700E-04 ( -28.17%)
   displ. norm   :     0.1098496 α      lambda       -0.2335203E-04
   maximum displ.:     0.0674053 α      in ANC's #7, #4, #3, ...

........................................................................
.............................. CYCLE    9 ..............................
........................................................................

 iter      E             dE          RMSdq      gap      omega  full diag
   1    -85.2533831 -0.852534E+02  0.184E-02    1.71       0.0  T
   2    -85.2533836 -0.440361E-06  0.108E-02    1.71       1.3  T
   3    -85.2533835  0.326188E-07  0.176E-03    1.71       8.0  T
   4    -85.2533836 -0.705576E-07  0.531E-04    1.71      26.4  T
   5    -85.2533836 -0.803696E-08  0.268E-04    1.71      52.2  T
     SCC iter.                  ...        0 min,  0.055 sec
     gradient                   ...        0 min,  0.032 sec
 * total energy  :   -84.1077931 Eh     change       -0.2057681E-04 Eh
   gradient norm :     0.0017640 Eh/α   predicted    -0.1174041E-04 ( -42.94%)
   displ. norm   :     0.0720871 α      lambda       -0.1112506E-04
   maximum displ.:     0.0331342 α      in ANC's #7, #3, #4, ...

........................................................................
.............................. CYCLE   10 ..............................
........................................................................

 iter      E             dE          RMSdq      gap      omega  full diag
   1    -85.2532585 -0.852533E+02  0.128E-02    1.71       0.0  T
   2    -85.2532586 -0.102246E-06  0.752E-03    1.71       1.9  T
   3    -85.2532586  0.204127E-07  0.107E-03    1.71      13.0  T
   4    -85.2532586 -0.375531E-07  0.333E-04    1.71      42.0  T
   5    -85.2532586 -0.251754E-08  0.169E-04    1.71      82.7  T
     SCC iter.                  ...        0 min,  0.016 sec
     gradient                   ...        0 min,  0.032 sec
 * total energy  :   -84.1078049 Eh     change       -0.1179560E-04 Eh
   gradient norm :     0.0010291 Eh/α   predicted    -0.5576892E-05 ( -52.72%)
   displ. norm   :     0.0871334 α      lambda       -0.1081470E-04
   maximum displ.:     0.0413551 α      in ANC's #3, #6, #4, ...

........................................................................
.............................. CYCLE   11 ..............................
........................................................................

 iter      E             dE          RMSdq      gap      omega  full diag
   1    -85.2530536 -0.852531E+02  0.154E-02    1.70       0.0  T
   2    -85.2530538 -0.193501E-06  0.898E-03    1.70       1.6  T
   3    -85.2530538  0.140986E-07  0.123E-03    1.70      11.3  T
   4    -85.2530539 -0.430617E-07  0.403E-04    1.70      34.8  T
   5    -85.2530539 -0.307197E-08  0.209E-04    1.70      66.9  T
     SCC iter.                  ...        0 min,  0.049 sec
     gradient                   ...        0 min,  0.032 sec
 * total energy  :   -84.1078155 Eh     change       -0.1058487E-04 Eh
   gradient norm :     0.0010715 Eh/α   predicted    -0.5427563E-05 ( -48.72%)
   displ. norm   :     0.0866142 α      lambda        0.2077074E-05
   maximum displ.:     0.0410929 α      in ANC's #3, #6, #4, ...

........................................................................
.............................. CYCLE   12 ..............................
........................................................................

 iter      E             dE          RMSdq      gap      omega  full diag
   1    -85.2527656 -0.852528E+02  0.153E-02    1.70       0.0  T
   2    -85.2527658 -0.194262E-06  0.893E-03    1.70       1.6  T
   3    -85.2527658  0.133617E-07  0.123E-03    1.70      11.4  T
   4    -85.2527658 -0.421510E-07  0.396E-04    1.70      35.3  T
   5    -85.2527658 -0.288237E-08  0.208E-04    1.70      67.3  T
     SCC iter.                  ...        0 min,  0.055 sec
     gradient                   ...        0 min,  0.032 sec
 * total energy  :   -84.1078147 Eh     change        0.7679381E-06 Eh
   gradient norm :     0.0023661 Eh/α   predicted     0.1041890E-05 (  35.67%)
   displ. norm   :     0.0131900 α      lambda       -0.8210860E-05
   maximum displ.:     0.0096845 α      in ANC's #7, #8, #1, ...

........................................................................
.............................. CYCLE   13 ..............................
........................................................................

 iter      E             dE          RMSdq      gap      omega  full diag
   1    -85.2528967 -0.852529E+02  0.380E-03    1.70       0.0  T
   2    -85.2528967 -0.374674E-07  0.223E-03    1.70       6.3  T
   3    -85.2528967  0.642738E-08  0.653E-04    1.70      21.5  T
   4    -85.2528967 -0.898582E-08  0.187E-04    1.70      75.0  T
     SCC iter.                  ...        0 min,  0.058 sec
     gradient                   ...        0 min,  0.032 sec
 * total energy  :   -84.1078214 Eh     change       -0.6639159E-05 Eh
   gradient norm :     0.0014514 Eh/α   predicted    -0.4108467E-05 ( -38.12%)
   displ. norm   :     0.0699631 α      lambda       -0.1258572E-04
   maximum displ.:     0.0332426 α      in ANC's #3, #1, #4, ...

........................................................................
.............................. CYCLE   14 ..............................
........................................................................

 iter      E             dE          RMSdq      gap      omega  full diag
   1    -85.2531724 -0.852532E+02  0.145E-02    1.70       0.0  T
   2    -85.2531727 -0.313518E-06  0.847E-03    1.70       1.7  T
   3    -85.2531727  0.473317E-07  0.168E-03    1.70       8.3  T
   4    -85.2531728 -0.722461E-07  0.493E-04    1.70      28.4  T
   5    -85.2531728 -0.945691E-08  0.189E-04    1.70      74.2  T
     SCC iter.                  ...        0 min,  0.055 sec
     gradient                   ...        0 min,  0.033 sec
 * total energy  :   -84.1078314 Eh     change       -0.1007177E-04 Eh
   gradient norm :     0.0013058 Eh/α   predicted    -0.6306868E-05 ( -37.38%)
   displ. norm   :     0.0629626 α      lambda       -0.5468604E-05
   maximum displ.:     0.0329780 α      in ANC's #3, #1, #6, ...

........................................................................
.............................. CYCLE   15 ..............................
........................................................................

 iter      E             dE          RMSdq      gap      omega  full diag
   1    -85.2532497 -0.852532E+02  0.120E-02    1.70       0.0  T
   2    -85.2532497 -0.317165E-07  0.700E-03    1.70       2.0  T
   3    -85.2532497 -0.462781E-08  0.412E-04    1.70      34.0  T
   4    -85.2532497 -0.433688E-08  0.200E-04    1.70      70.2  T
     SCC iter.                  ...        0 min,  0.054 sec
     gradient                   ...        0 min,  0.033 sec
 * total energy  :   -84.1078388 Eh     change       -0.7387554E-05 Eh
   gradient norm :     0.0011403 Eh/α   predicted    -0.2739707E-05 ( -62.91%)
   displ. norm   :     0.1827578 α      lambda       -0.1441843E-04
   maximum displ.:     0.0982010 α      in ANC's #3, #1, #4, ...

........................................................................
.............................. CYCLE   16 ..............................
........................................................................

 iter      E             dE          RMSdq      gap      omega  full diag
   1    -85.2530136 -0.852530E+02  0.361E-02    1.71       0.0  T
   2    -85.2530138 -0.230123E-06  0.211E-02    1.71       1.0  T
   3    -85.2530138 -0.375751E-07  0.118E-03    1.71      11.8  T
   4    -85.2530139 -0.388262E-07  0.573E-04    1.71      24.4  T
   5    -85.2530139 -0.369650E-08  0.256E-04    1.71      54.8  T
     SCC iter.                  ...        0 min,  0.061 sec
     gradient                   ...        0 min,  0.032 sec
 * total energy  :   -84.1078542 Eh     change       -0.1535217E-04 Eh
   gradient norm :     0.0006621 Eh/α   predicted    -0.7317789E-05 ( -52.33%)
   displ. norm   :     0.1592260 α      lambda       -0.7587322E-05
   maximum displ.:     0.0882888 α      in ANC's #3, #1, #4, ...

........................................................................
.............................. CYCLE   17 ..............................
........................................................................

 iter      E             dE          RMSdq      gap      omega  full diag
   1    -85.2530035 -0.852530E+02  0.322E-02    1.71       0.0  T
   2    -85.2530037 -0.177832E-06  0.188E-02    1.71       1.0  T
   3    -85.2530037 -0.251117E-07  0.107E-03    1.71      13.1  T
   4    -85.2530038 -0.340057E-07  0.503E-04    1.71      27.8  T
   5    -85.2530038 -0.280083E-08  0.242E-04    1.71      57.8  T
     SCC iter.                  ...        0 min,  0.055 sec
     gradient                   ...        0 min,  0.033 sec
 * total energy  :   -84.1078620 Eh     change       -0.7871153E-05 Eh
   gradient norm :     0.0006604 Eh/α   predicted    -0.3838526E-05 ( -51.23%)
   displ. norm   :     0.0974783 α      lambda       -0.4554498E-05
   maximum displ.:     0.0567969 α      in ANC's #3, #1, #4, ...

........................................................................
.............................. CYCLE   18 ..............................
........................................................................

 iter      E             dE          RMSdq      gap      omega  full diag
   1    -85.2532242 -0.852532E+02  0.213E-02    1.71       0.0  T
   2    -85.2532243 -0.638350E-07  0.125E-02    1.71       1.1  T
   3    -85.2532243 -0.931760E-08  0.633E-04    1.71      22.1  T
   4    -85.2532243 -0.126065E-07  0.287E-04    1.71      48.8  T
     SCC iter.                  ...        0 min,  0.052 sec
     gradient                   ...        0 min,  0.033 sec
 * total energy  :   -84.1078679 Eh     change       -0.5837252E-05 Eh
   gradient norm :     0.0004598 Eh/α   predicted    -0.2287925E-05 ( -60.80%)
   displ. norm   :     0.1122593 α      lambda       -0.6765904E-05
   maximum displ.:     0.0663229 α      in ANC's #3, #1, #4, ...

........................................................................
.............................. CYCLE   19 ..............................
........................................................................

 iter      E             dE          RMSdq      gap      omega  full diag
   1    -85.2534649 -0.852535E+02  0.266E-02    1.71       0.0  T
   2    -85.2534649 -0.744711E-07  0.156E-02    1.71       1.0  T
   3    -85.2534649  0.476597E-08  0.899E-04    1.71      15.6  T
   4    -85.2534650 -0.355974E-07  0.330E-04    1.71      42.5  T
     SCC iter.                  ...        0 min,  0.015 sec
     gradient                   ...        0 min,  0.071 sec
 * total energy  :   -84.1078770 Eh     change       -0.9147214E-05 Eh
   gradient norm :     0.0004394 Eh/α   predicted    -0.3402865E-05 ( -62.80%)
   displ. norm   :     0.2130212 α      lambda       -0.1280838E-04
   maximum displ.:     0.1249893 α      in ANC's #3, #1, #4, ...

........................................................................
.............................. CYCLE   20 ..............................
........................................................................

 iter      E             dE          RMSdq      gap      omega  full diag
   1    -85.2532249 -0.852532E+02  0.518E-02    1.71       0.0  T
   2    -85.2532252 -0.241371E-06  0.304E-02    1.71       1.0  T
   3    -85.2532252  0.118960E-07  0.167E-03    1.71       8.4  T
   4    -85.2532253 -0.120015E-06  0.592E-04    1.71      23.7  T
   5    -85.2532253 -0.312647E-08  0.265E-04    1.71      52.9  T
     SCC iter.                  ...        0 min,  0.016 sec
     gradient                   ...        0 min,  0.072 sec
 * total energy  :   -84.1078932 Eh     change       -0.1620420E-04 Eh
   gradient norm :     0.0007476 Eh/α   predicted    -0.6535054E-05 ( -59.67%)
   displ. norm   :     0.2886612 α      lambda       -0.1444646E-04
   maximum displ.:     0.1691101 α      in ANC's #3, #1, #4, ...
 * RMSD in coord.:     0.2531228 α      energy gain  -0.1051988E-01 Eh

generating ANC from exact Hessian ...
Using Lindh-Hessian (1995)
 Shifting diagonal of input Hessian by    9.8177525427673492E-003
 Lowest  eigenvalues of input Hessian
    0.000000    0.000000    0.000000    0.000000    0.000000    0.000000
    0.010000    0.010080    0.010427    0.010566    0.010653    0.011174
    0.012531    0.013204    0.014169    0.015690    0.016568    0.017200
 Highest eigenvalues
    2.078618    2.104944    2.142361    2.188618    2.377846    2.552221


........................................................................
.............................. CYCLE   21 ..............................
........................................................................

 iter      E             dE          RMSdq      gap      omega  full diag
   1    -85.2527776 -0.852528E+02  0.713E-02    1.72       0.0  T
   2    -85.2527780 -0.461573E-06  0.418E-02    1.72       1.0  T
   3    -85.2527780  0.507931E-07  0.239E-03    1.72       5.9  T
   4    -85.2527782 -0.251291E-06  0.806E-04    1.72      17.4  T
   5    -85.2527783 -0.649511E-08  0.369E-04    1.72      37.9  T
     SCC iter.                  ...        0 min,  0.016 sec
     gradient                   ...        0 min,  0.033 sec
 * total energy  :   -84.1079097 Eh     change       -0.1646165E-04 Eh
   gradient norm :     0.0010572 Eh/α   predicted     0.0000000E+00 (-100.00%)
   displ. norm   :     0.0197595 α      lambda       -0.4844565E-05
   maximum displ.:     0.0101645 α      in ANC's #5, #6, #3, ...

........................................................................
.............................. CYCLE   22 ..............................
........................................................................

 iter      E             dE          RMSdq      gap      omega  full diag
   1    -85.2535189 -0.852535E+02  0.707E-03    1.72       0.0  T
   2    -85.2535189 -0.258796E-07  0.417E-03    1.72       3.4  T
   3    -85.2535189  0.251586E-07  0.820E-04    1.72      17.1  T
   4    -85.2535189 -0.325029E-07  0.151E-04    1.72      92.9  T
     SCC iter.                  ...        0 min,  0.013 sec
     gradient                   ...        0 min,  0.033 sec
 * total energy  :   -84.1079141 Eh     change       -0.4439039E-05 Eh
   gradient norm :     0.0004970 Eh/α   predicted    -0.2449292E-05 ( -44.82%)
   displ. norm   :     0.0368802 α      lambda       -0.4201219E-05
   maximum displ.:     0.0209037 α      in ANC's #5, #6, #3, ...

   *** GEOMETRY OPTIMIZATION CONVERGED AFTER 22 ITERATIONS ***

------------------------------------------------------------------------
 total energy gain   :        -0.0105408 Eh       -6.6144 kcal/mol
 total RMSD          :         0.2533634 a0        0.1341 Å
 total power (kW/mol):        -1.2579457 (step)  -13.0320 (real)
------------------------------------------------------------------------

 ANCopt (total)                0 d,  0 h,  0 min,  2.124 sec
 optimizer setup                ...        0 min,  0.000 sec (  0.004%)
 model hessian                  ...        0 min,  0.041 sec (  1.917%)
 ANC generation                 ...        0 min,  0.004 sec (  0.206%)
 coordinate transformation      ...        0 min,  0.000 sec (  0.012%)
 single point calculation       ...        0 min,  2.071 sec ( 97.514%)
 optimization log               ...        0 min,  0.005 sec (  0.215%)
 hessian update                 ...        0 min,  0.000 sec (  0.017%)
 rational function              ...        0 min,  0.002 sec (  0.073%)

================
 final structure:
================
51
 xtb: 6.7.1 (edcfbbe)
F            8.62673934005517        0.88263556260486        2.25401119621626
C            7.61044987554934        0.49894387615764        1.45920749148369
C            7.84002129555515        0.32572869055377        0.10534491789162
C            6.78683876464938       -0.06844771360888       -0.69390808109167
C            5.51445780974471       -0.28666351890178       -0.16106642470039
C            5.31939992880220       -0.11021013946189        1.20837844296677
C            6.36453930185814        0.28348890295224        2.02222633409867
C            4.44663039457570       -0.71159515244818       -1.11072922003147
C            3.01357411061426       -0.66344200889629       -0.61843352083015
C            2.06311629147842       -1.36791502773320       -1.58513272140193
C            0.62967774050120       -1.25049970569508       -1.07608601735508
N            0.27178469941740        0.14984122623395       -0.96624683353200
C            1.10881937260983        0.83237033469768       -0.00243018371853
C            2.56030631051730        0.79620408328897       -0.47699165782442
C           -1.13744213313218        0.40743167340292       -0.83053158685944
C           -1.78578795520297       -0.09332698343160        0.47947147024339
N           -3.21086646712395        0.19151110903050        0.48332613926544
C           -3.58952721600801        1.44213643069786        0.93227436403006
N           -4.93735394568712        1.69557715688273        0.91228316513312
C           -5.89732449617008        0.81374188112565        0.47771524809434
C           -7.25131003962138        1.14381767273941        0.48740826859224
C           -8.18105385823531        0.22701140499003        0.04208460040141
C           -7.78169551693062       -1.02406421716268       -0.41729535733840
C           -6.44440703060692       -1.35567110454466       -0.43069138220661
C           -5.49012950112773       -0.44182044018250        0.01610911949138
C           -4.06728345509507       -0.79212702707487        0.00087133471019
O           -3.63465626985783       -1.85554985627561       -0.38960150466625
O           -2.79856326455923        2.26774842871516        1.32777696681530
O            4.72510644335922       -1.05428376404764       -2.23804999045078
H            8.82473560018193        0.49709753710326       -0.29937653391414
H            6.92661001648714       -0.21598470537525       -1.75413223353295
H            4.35674080627191       -0.28845856104741        1.65961431939613
H            6.22719154569955        0.42195615824396        3.08311282909746
H            2.95257021018631       -1.15518224380683        0.35812836722940
H            2.33959378323398       -2.41834549425390       -1.68492313401034
H            2.14172856375731       -0.90104022789401       -2.56672305871307
H           -0.05544454074796       -1.72821754633281       -1.77885987647392
H            0.54900015858752       -1.77544673881646       -0.10703737169102
H            0.77103201151208        1.86777640996854        0.07858424720558
H            1.05017196861934        0.37119754993289        1.00045810096255
H            2.62705847833380        1.28222287023486       -1.45114238917075
H            3.19500167010418        1.33878169977913        0.22530732358097
H           -1.29114204663538        1.48878102431365       -0.89699566256405
H           -1.64955140943909       -0.06933117391854       -1.67159232548606
H           -1.34258187134869        0.41414604369803        1.33744420796454
H           -1.67216846952641       -1.17468861532266        0.56770950721075
H           -5.21524925760348        2.60865151463841        1.24657424155767
H           -7.56027230076926        2.11515318621350        0.84418727818555
H           -9.22903999671344        0.48596779707149        0.05112439183527
H           -8.51974263565252       -1.73105420215683       -0.76219171460117
H           -6.10040281447053       -2.31665405688355       -0.78066509150098

 Bond Distances (Angstroems)
 ---------------------------
F1-C2=1.3460         C2-F1=1.3460         C2-C3=1.3841         C2-C7=1.3841         C3-C2=1.3841         C3-C4=1.3796         
C3-H30=1.0783        C4-C3=1.3796         C4-C5=1.3966         C4-H31=1.0795        C5-C4=1.3966         C5-C6=1.3945         
C5-C8=1.4909         C6-C5=1.3945         C6-C7=1.3819         C6-H32=1.0780        C7-C2=1.3841         C7-C6=1.3819         
C7-H33=1.0787        C8-C5=1.4909         C8-C9=1.5160         C8-O29=1.2107        C9-C8=1.5160         C9-C10=1.5278        
C9-C14=1.5349        C9-H34=1.0951        C10-C9=1.5278        C10-C11=1.5257       C10-H35=1.0908       C10-H36=1.0898       
C11-C10=1.5257       C11-N12=1.4495       C11-H37=1.0916       C11-H38=1.1050       N12-C11=1.4495       N12-C13=1.4476       
N12-C15=1.4390       C13-N12=1.4476       C13-C14=1.5275       C13-H39=1.0921       C13-H40=1.1054       C14-C9=1.5349        
C14-C13=1.5275       C14-H41=1.0907       C14-H42=1.0911       C15-N12=1.4390       C15-C16=1.5451       C15-H43=1.0942       
C15-H44=1.0940       C16-C15=1.5451       C16-N17=1.4533       C16-H45=1.0909       C16-H46=1.0909       N17-C16=1.4533       
N17-C18=1.3817       N17-C26=1.3906       C18-N17=1.3817       C18-N19=1.3716       C18-O28=1.2098       N19-C18=1.3716       
N19-C20=1.3741       N19-H47=1.0113       C20-N19=1.3741       C20-C21=1.3937       C20-C25=1.3983       C21-C20=1.3937       
C21-C22=1.3796       C21-H48=1.0799       C22-C21=1.3796       C22-C23=1.3913       C22-H49=1.0795       C23-C22=1.3913       
C23-C24=1.3779       C23-H50=1.0787       C24-C23=1.3779       C24-C25=1.3948       C24-H51=1.0790       C25-C20=1.3983       
C25-C24=1.3948       C25-C26=1.4654       C26-N17=1.3906       C26-C25=1.4654       C26-O27=1.2126       O27-C26=1.2126       
O28-C18=1.2098       O29-C8=1.2107        H30-C3=1.0783        H31-C4=1.0795        H32-C6=1.0780        H33-C7=1.0787        
H34-C9=1.0951        H35-C10=1.0908       H36-C10=1.0898       H37-C11=1.0916       H38-C11=1.1050       H39-C13=1.0921       
H40-C13=1.1054       H41-C14=1.0907       H42-C14=1.0911       H43-C15=1.0942       H44-C15=1.0940       H45-C16=1.0909       
H46-C16=1.0909       H47-N19=1.0113       H48-C21=1.0799       H49-C22=1.0795       H50-C23=1.0787       H51-C24=1.0790       
 C  H  Rav=1.0883 sigma=0.0083  Rmin=1.0780  Rmax=1.1054    21
 C  C  Rav=1.4395 sigma=0.0651  Rmin=1.3779  Rmax=1.5451    20
 N  H  Rav=1.0113 sigma=0.0000  Rmin=1.0113  Rmax=1.0113     1
 N  C  Rav=1.4134 sigma=0.0345  Rmin=1.3716  Rmax=1.4533     8
 O  C  Rav=1.2111 sigma=0.0012  Rmin=1.2098  Rmax=1.2126     3
 F  C  Rav=1.3460 sigma=0.0000  Rmin=1.3460  Rmax=1.3460     1

 selected bond angles (degree)
 --------------------
C3-C2-F1=119.21                C7-C2-F1=118.94                C7-C2-C3=121.85                C4-C3-C2=118.41                
H30-C3-C2=119.91               H30-C3-C4=121.67               C5-C4-C3=121.27                H31-C4-C3=120.61               
H31-C4-C5=118.12               C6-C5-C4=118.84                C8-C5-C4=117.00                C8-C5-C6=124.15                
C7-C6-C5=120.57                H32-C6-C5=121.00               H32-C6-C7=118.42               C6-C7-C2=119.05                
H33-C7-C2=119.65               H33-C7-C6=121.30               C9-C8-C5=117.46                O29-C8-C5=120.60               
O29-C8-C9=121.92               C10-C9-C8=111.59               C14-C9-C8=109.83               C14-C9-C10=108.25              
H34-C9-C8=109.15               H34-C9-C10=108.82              H34-C9-C14=109.17              C11-C10-C9=109.75              
H35-C10-C9=110.14              H35-C10-C11=110.05             H36-C10-C9=109.12              H36-C10-C11=109.59             
H36-C10-H35=108.17             

 selected dihedral angles (degree)
 ---------------------------------
C4-C3-C2-F1=179.97            C4-C3-C2-C7=  0.23            H30-C3-C2-F1=  0.08           H30-C3-C2-C7=180.34           
C5-C4-C3-C2=  0.18            C5-C4-C3-H30=180.07           H31-C4-C3-C2=180.12           H31-C4-C3-H30=  0.00          
C6-C5-C4-C3=359.47            C6-C5-C4-H31=179.52           C8-C5-C4-C3=180.05            C8-C5-C4-H31=  0.11           
C7-C6-C5-C4=  0.48            C7-C6-C5-C8=179.85            H32-C6-C5-C4=181.25           H32-C6-C5-C8=  0.62           
C6-C7-C2-F1=179.99            C6-C7-C2-C3=359.72            H33-C7-C2-F1=359.80           H33-C7-C2-C3=179.54           
C2-C7-C6-C5=359.91            C2-C7-C6-H32=179.16           H33-C7-C6-C5=180.10           H33-C7-C6-H32=359.35          
C9-C8-C5-C4=192.86            C9-C8-C5-C6= 13.48            O29-C8-C5-C4= 11.43           O29-C8-C5-C6=192.05           
C10-C9-C8-C5=190.83           C10-C9-C8-O29= 12.29          C14-C9-C8-C5= 70.79           C14-C9-C8-O29=252.24          
H34-C9-C8-C5=311.13           H34-C9-C8-O29=132.59          C11-C10-C9-C8=182.05          C11-C10-C9-C14=303.03         
C11-C10-C9-H34= 61.56         H35-C10-C9-C8= 60.75          H35-C10-C9-C14=181.72         H35-C10-C9-H34=300.25         
H36-C10-C9-C8=302.15          H36-C10-C9-C14= 63.13         H36-C10-C9-H34=181.66         
           -------------------------------------------------
          |                Final Singlepoint                |
           -------------------------------------------------

          ...................................................
          :                      SETUP                      :
          :.................................................:
          :  # basis functions                 138          :
          :  # atomic orbitals                 138          :
          :  # shells                           80          :
          :  # electrons                       150          :
          :  max. iterations                   250          :
          :  Hamiltonian                  GFN2-xTB          :
          :  restarted?                      false          :
          :  GBSA solvation                  false          :
          :  PC potential                    false          :
          :  electronic temp.          300.0000000     K    :
          :  accuracy                    1.0000000          :
          :  -> integral cutoff          0.2500000E+02      :
          :  -> integral neglect         0.1000000E-07      :
          :  -> SCF convergence          0.1000000E-05 Eh   :
          :  -> wf. convergence          0.1000000E-03 e    :
          :  Broyden damping             0.4000000          :
          :  net charge                          0          :
          :  unpaired electrons                  0          :
          ...................................................

 iter      E             dE          RMSdq      gap      omega  full diag
   1    -85.2535189 -0.852535E+02  0.830E-05    1.72       0.0  T
   2    -85.2535189 -0.597993E-10  0.538E-05    1.72     260.4  T
   3    -85.2535189 -0.365787E-10  0.340E-05    1.72     411.8  T

   *** convergence criteria satisfied after 3 iterations ***

         #    Occupation            Energy/Eh            Energy/eV
      -------------------------------------------------------------
         1        2.0000           -0.8260070             -22.4768
       ...           ...                  ...                  ...
        69        2.0000           -0.4290755             -11.6757
        70        2.0000           -0.4274446             -11.6314
        71        2.0000           -0.4217498             -11.4764
        72        2.0000           -0.4135760             -11.2540
        73        2.0000           -0.4080879             -11.1046
        74        2.0000           -0.3932617             -10.7012
        75        2.0000           -0.3504743              -9.5369 (HOMO)
        76                         -0.2873255              -7.8185 (LUMO)
        77                         -0.2812346              -7.6528
        78                         -0.2530821              -6.8867
        79                         -0.2504831              -6.8160
        80                         -0.2201426              -5.9904
       ...                                ...                  ...
       138                          0.7001449              19.0519
      -------------------------------------------------------------
                  HL-Gap            0.0631488 Eh            1.7184 eV
             Fermi-level           -0.3188999 Eh           -8.6777 eV

 SCC (total)                   0 d,  0 h,  0 min,  0.090 sec
 SCC setup                      ...        0 min,  0.000 sec (  0.489%)
 Dispersion                     ...        0 min,  0.000 sec (  0.495%)
 classical contributions        ...        0 min,  0.000 sec (  0.228%)
 integral evaluation            ...        0 min,  0.010 sec ( 10.700%)
 iterations                     ...        0 min,  0.046 sec ( 51.436%)
 molecular gradient             ...        0 min,  0.033 sec ( 36.398%)
 printout                       ...        0 min,  0.000 sec (  0.247%)

         :::::::::::::::::::::::::::::::::::::::::::::::::::::
         ::                     SUMMARY                     ::
         :::::::::::::::::::::::::::::::::::::::::::::::::::::
         :: total energy             -84.107914139322 Eh    ::
         :: gradient norm              0.000500021561 Eh/a0 ::
         :: HOMO-LUMO gap              1.718366649103 eV    ::
         ::.................................................::
         :: SCC energy               -85.253871848470 Eh    ::
         :: -> isotropic ES            0.114092058726 Eh    ::
         :: -> anisotropic ES          0.004528569668 Eh    ::
         :: -> anisotropic XC          0.027930962885 Eh    ::
         :: -> dispersion             -0.056350376273 Eh    ::
         :: repulsion energy           1.145957709148 Eh    ::
         :: add. restraining           0.000000000000 Eh    ::
         :: total charge               0.000000000000 e     ::
         :::::::::::::::::::::::::::::::::::::::::::::::::::::

           -------------------------------------------------
          |                Property Printout                |
           -------------------------------------------------

    * Orbital Energies and Occupations

         #    Occupation            Energy/Eh            Energy/eV
      -------------------------------------------------------------
         1        2.0000           -0.8260070             -22.4768
       ...           ...                  ...                  ...
        63        2.0000           -0.4420171             -12.0279
        64        2.0000           -0.4412764             -12.0077
        65        2.0000           -0.4367168             -11.8837
        66        2.0000           -0.4340513             -11.8111
        67        2.0000           -0.4333602             -11.7923
        68        2.0000           -0.4319621             -11.7543
        69        2.0000           -0.4290755             -11.6757
        70        2.0000           -0.4274446             -11.6314
        71        2.0000           -0.4217498             -11.4764
        72        2.0000           -0.4135760             -11.2540
        73        2.0000           -0.4080879             -11.1046
        74        2.0000           -0.3932617             -10.7012
        75        2.0000           -0.3504743              -9.5369 (HOMO)
        76                         -0.2873255              -7.8185 (LUMO)
        77                         -0.2812346              -7.6528
        78                         -0.2530821              -6.8867
        79                         -0.2504831              -6.8160
        80                         -0.2201426              -5.9904
        81                         -0.2079414              -5.6584
        82                         -0.1807249              -4.9178
        83                         -0.1074630              -2.9242
        84                         -0.0952823              -2.5928
        85                         -0.0330709              -0.8999
        86                          0.0097475               0.2652
       ...                                ...                  ...
       138                          0.7001449              19.0519
      -------------------------------------------------------------
                  HL-Gap            0.0631488 Eh            1.7184 eV
             Fermi-level           -0.3188999 Eh           -8.6777 eV

     #   Z          covCN         q      C6AA      α(0)
     1   9 F        0.787    -0.217    11.411     3.990
     2   6 C        2.788     0.177    24.196     8.057
     3   6 C        2.914    -0.046    29.145     8.853
     4   6 C        2.932    -0.017    28.444     8.747
     5   6 C        2.968    -0.018    28.456     8.750
     6   6 C        2.925    -0.028    28.695     8.785
     7   6 C        2.915    -0.048    29.194     8.860
     8   6 C        2.825     0.227    23.243     7.900
     9   6 C        3.859    -0.039    21.224     6.552
    10   6 C        3.811    -0.061    21.672     6.626
    11   6 C        3.762     0.008    20.493     6.453
    12   7 N        2.732    -0.166    24.592     7.365
    13   6 C        3.762     0.011    20.440     6.445
    14   6 C        3.811    -0.059    21.630     6.620
    15   6 C        3.752    -0.000    20.640     6.479
    16   6 C        3.755    -0.002    20.662     6.482
    17   7 N        2.744    -0.112    23.443     7.191
    18   6 C        2.706     0.327    21.437     7.578
    19   7 N        2.702    -0.161    24.474     7.347
    20   6 C        2.917     0.076    26.309     8.411
    21   6 C        2.919    -0.052    29.285     8.874
    22   6 C        2.921    -0.019    28.491     8.753
    23   6 C        2.917    -0.034    28.838     8.806
    24   6 C        2.923    -0.016    28.415     8.742
    25   6 C        2.982    -0.037    28.918     8.821
    26   6 C        2.771     0.271    22.425     7.756
    27   8 O        0.859    -0.412    21.912     6.276
    28   8 O        0.860    -0.444    22.577     6.371
    29   8 O        0.858    -0.358    20.859     6.123
    30   1 H        0.926     0.066     2.131     2.283
    31   1 H        0.926     0.076     2.024     2.225
    32   1 H        0.926     0.053     2.284     2.363
    33   1 H        0.926     0.063     2.163     2.300
    34   1 H        0.924     0.046     2.377     2.411
    35   1 H        0.924     0.044     2.397     2.421
    36   1 H        0.925     0.064     2.158     2.298
    37   1 H        0.924     0.044     2.395     2.420
    38   1 H        0.922     0.009     2.914     2.669
    39   1 H        0.924     0.044     2.396     2.421
    40   1 H        0.922     0.009     2.908     2.667
    41   1 H        0.924     0.053     2.277     2.360
    42   1 H        0.924     0.035     2.512     2.479
    43   1 H        0.924     0.048     2.345     2.395
    44   1 H        0.924     0.048     2.351     2.398
    45   1 H        0.924     0.065     2.144     2.290
    46   1 H        0.924     0.072     2.064     2.247
    47   1 H        0.860     0.201     1.100     1.643
    48   1 H        0.926     0.043     2.412     2.428
    49   1 H        0.926     0.049     2.331     2.388
    50   1 H        0.926     0.049     2.331     2.388
    51   1 H        0.926     0.071     2.075     2.253

 Mol. C6AA /au·bohr⁶  :      30523.426293
 Mol. C8AA /au·bohr⁸  :     723195.650643
 Mol. α(0) /au        :        269.758643


Wiberg/Mayer (AO) data.
largest (>0.10) Wiberg bond orders for each atom

 ---------------------------------------------------------------------------
     #   Z sym  total        # sym  WBO       # sym  WBO       # sym  WBO
 ---------------------------------------------------------------------------
     1   9 F    1.099 --     2 C    0.967
     2   6 C    3.888 --     3 C    1.388     7 C    1.387     1 F    0.967
     3   6 C    3.988 --     4 C    1.459     2 C    1.388    30 H    0.965
                             6 C    0.104
     4   6 C    3.985 --     3 C    1.459     5 C    1.380    31 H    0.963
                             7 C    0.104
     5   6 C    3.988 --     6 C    1.385     4 C    1.380     8 C    1.018
     6   6 C    3.990 --     7 C    1.457     5 C    1.385    32 H    0.963
                             3 C    0.104
     7   6 C    3.989 --     6 C    1.457     2 C    1.387    33 H    0.966
                             4 C    0.104
     8   6 C    3.922 --    29 O    1.829     5 C    1.018     9 C    0.976
     9   6 C    3.995 --    10 C    0.997     8 C    0.976    14 C    0.970
                            34 H    0.946
    10   6 C    3.993 --    11 C    1.003     9 C    0.997    35 H    0.975
                            36 H    0.973
    11   6 C    3.986 --    10 C    1.003    12 N    1.002    37 H    0.972
                            38 H    0.962
    12   7 N    3.154 --    15 C    1.020    13 C    1.006    11 C    1.002
    13   6 C    3.988 --    12 N    1.006    14 C    1.000    39 H    0.971
                            40 H    0.962
    14   6 C    3.994 --    13 C    1.000    41 H    0.976    42 H    0.974
                             9 C    0.970
    15   6 C    3.985 --    12 N    1.020    44 H    0.970    43 H    0.970
                            16 C    0.968
    16   6 C    3.950 --    17 N    0.970    15 C    0.968    45 H    0.967
                            46 H    0.966
    17   7 N    3.557 --    18 C    1.111    26 C    1.110    16 C    0.970
                            27 O    0.146    28 O    0.126
    18   6 C    3.961 --    28 O    1.638    19 N    1.134    17 N    1.111
    19   7 N    3.501 --    18 C    1.134    20 C    1.129    47 H    0.926
                            28 O    0.138
    20   6 C    3.962 --    21 C    1.347    25 C    1.311    19 N    1.129
    21   6 C    3.988 --    22 C    1.474    20 C    1.347    48 H    0.967
                            24 C    0.109
    22   6 C    3.988 --    21 C    1.474    23 C    1.399    49 H    0.970
    23   6 C    3.982 --    24 C    1.475    22 C    1.399    50 H    0.970
    24   6 C    3.984 --    23 C    1.475    25 C    1.367    51 H    0.964
                            21 C    0.109
    25   6 C    3.985 --    24 C    1.367    20 C    1.311    26 C    1.046
    26   6 C    3.949 --    27 O    1.693    17 N    1.110    25 C    1.046
    27   8 O    2.030 --    26 C    1.693    17 N    0.146
    28   8 O    1.984 --    18 C    1.638    19 N    0.138    17 N    0.126
    29   8 O    2.067 --     8 C    1.829
    30   1 H    0.995 --     3 C    0.965
    31   1 H    0.994 --     4 C    0.963
    32   1 H    0.997 --     6 C    0.963
    33   1 H    0.996 --     7 C    0.966
    34   1 H    0.998 --     9 C    0.946
    35   1 H    0.998 --    10 C    0.975
    36   1 H    0.996 --    10 C    0.973
    37   1 H    0.998 --    11 C    0.972
    38   1 H    1.000 --    11 C    0.962
    39   1 H    0.997 --    13 C    0.971
    40   1 H    0.999 --    13 C    0.962
    41   1 H    0.997 --    14 C    0.976
    42   1 H    0.998 --    14 C    0.974
    43   1 H    0.997 --    15 C    0.970
    44   1 H    0.997 --    15 C    0.970
    45   1 H    0.995 --    16 C    0.967
    46   1 H    0.995 --    16 C    0.966
    47   1 H    0.959 --    19 N    0.926
    48   1 H    0.998 --    21 C    0.967
    49   1 H    0.997 --    22 C    0.970
    50   1 H    0.997 --    23 C    0.970
    51   1 H    0.994 --    24 C    0.964
 ---------------------------------------------------------------------------

Topologies differ in total number of bonds
Writing topology from bond orders to xtbtopo.mol

molecular dipole:
                 x           y           z       tot (Debye)
 q only:       -1.916       0.461       0.338
   full:       -2.283       0.613       0.889       6.419
molecular quadrupole (traceless):
                xx          xy          yy          xz          yz          zz
 q only:       20.730      -7.806      -9.762      -1.770      -6.799     -10.968
  q+dip:       23.498     -11.199     -11.057      -1.518      -6.991     -12.441
   full:       21.728     -11.886      -9.632      -1.356      -9.228     -12.096

           -------------------------------------------------
          |                Geometry Summary                 |
           -------------------------------------------------

      molecular mass/u    :      395.4276138
   center of mass at/Å    :        0.1142131       0.0439595       0.0572632
  moments of inertia/u·Å² :        0.8942557E+03   0.1080176E+05   0.1135294E+05
rotational constants/cm⁻¹ :        0.1885102E-01   0.1560638E-02   0.1484869E-02

 * 49 selected distances

     #   Z          #   Z                                           value/Å
     2   6 C        3   6 C                                       1.3840704
     3   6 C        4   6 C                                       1.3796283
     4   6 C        5   6 C                                       1.3966002
     5   6 C        6   6 C                                       1.3944759
     2   6 C        7   6 C                                       1.3840898
     6   6 C        7   6 C                                       1.3819059
     9   6 C       10   6 C                                       1.5277958
    10   6 C       11   6 C                                       1.5256675
    11   6 C       12   7 N                                       1.4495196
    12   7 N       13   6 C                                       1.4475552
     9   6 C       14   6 C                                       1.5349347 (max)
    13   6 C       14   6 C                                       1.5275246
    12   7 N       15   6 C                                       1.4389900
    16   6 C       17   7 N                                       1.4532711
    17   7 N       18   6 C                                       1.3816666
    18   6 C       19   7 N                                       1.3715936
    19   7 N       20   6 C                                       1.3740548
    20   6 C       21   6 C                                       1.3936718
    21   6 C       22   6 C                                       1.3795908
    22   6 C       23   6 C                                       1.3912971
    23   6 C       24   6 C                                       1.3778546
    20   6 C       25   6 C                                       1.3983294
    24   6 C       25   6 C                                       1.3947759
    17   7 N       26   6 C                                       1.3905959
    26   6 C       27   8 O                                       1.2126433
    18   6 C       28   8 O                                       1.2098271
     8   6 C       29   8 O                                       1.2107175
     3   6 C       30   1 H                                       1.0783456
     4   6 C       31   1 H                                       1.0795270
     6   6 C       32   1 H                                       1.0780070
     7   6 C       33   1 H                                       1.0786649
     9   6 C       34   1 H                                       1.0950814
    10   6 C       35   1 H                                       1.0907806
    10   6 C       36   1 H                                       1.0898036
    11   6 C       37   1 H                                       1.0915577
    11   6 C       38   1 H                                       1.1050492
    13   6 C       39   1 H                                       1.0921216
    13   6 C       40   1 H                                       1.1053981
    14   6 C       41   1 H                                       1.0907062
    14   6 C       42   1 H                                       1.0910787
    15   6 C       43   1 H                                       1.0942384
    15   6 C       44   1 H                                       1.0940485
    16   6 C       45   1 H                                       1.0909069
    16   6 C       46   1 H                                       1.0908889
    19   7 N       47   1 H                                       1.0112771 (min)
    21   6 C       48   1 H                                       1.0799268
    22   6 C       49   1 H                                       1.0795440
    23   6 C       50   1 H                                       1.0786575
    24   6 C       51   1 H                                       1.0790315

 * 5 distinct bonds (by element types)

   Z      Z             #   av. dist./Å        max./Å        min./Å
   1 H    6 C          21     1.0882554     1.1053981     1.0780070
   6 C    6 C          16     1.4232633     1.5349347     1.3778546
   1 H    7 N           1     1.0112771     1.0112771     1.0112771
   6 C    7 N           8     1.4134058     1.4532711     1.3715936
   6 C    8 O           3     1.2110626     1.2126433     1.2098271


optimized geometry written to: xtbopt.xyz


           -------------------------------------------------
          | TOTAL ENERGY              -84.107914139322 Eh   |
          | GRADIENT NORM               0.000500021561 Eh/α |
          | HOMO-LUMO GAP               1.718366649103 eV   |
           -------------------------------------------------

------------------------------------------------------------------------
 * finished run on 2025/05/15 at 16:32:20.634     
------------------------------------------------------------------------
 total:
 * wall-time:     0 d,  0 h,  0 min,  2.354 sec
 *  cpu-time:     0 d,  0 h,  0 min,  1.497 sec
 * ratio c/w:     0.636 speedup
 SCF:
 * wall-time:     0 d,  0 h,  0 min,  0.120 sec
 *  cpu-time:     0 d,  0 h,  0 min,  0.083 sec
 * ratio c/w:     0.689 speedup
 ANC optimizer:
 * wall-time:     0 d,  0 h,  0 min,  2.216 sec
 *  cpu-time:     0 d,  0 h,  0 min,  1.399 sec
 * ratio c/w:     0.631 speedup



----- Single-point -----
      -----------------------------------------------------------      
     |                   =====================                   |     
     |                           x T B                           |     
     |                   =====================                   |     
     |                         S. Grimme                         |     
     |          Mulliken Center for Theoretical Chemistry        |     
     |                    University of Bonn                     |     
      -----------------------------------------------------------      

   * xtb version 6.7.1 (edcfbbe) compiled by 'conda@3ef47c1a292c' on 2024-11-25

   xtb is free software: you can redistribute it and/or modify it under
   the terms of the GNU Lesser General Public License as published by
   the Free Software Foundation, either version 3 of the License, or
   (at your option) any later version.
   
   xtb is distributed in the hope that it will be useful,
   but WITHOUT ANY WARRANTY; without even the implied warranty of
   MERCHANTABILITY or FITNESS FOR A PARTICULAR PURPOSE.  See the
   GNU Lesser General Public License for more details.
   
   Cite this work as:
   * C. Bannwarth, E. Caldeweyher, S. Ehlert, A. Hansen, P. Pracht,
     J. Seibert, S. Spicher, S. Grimme, WIREs Comput. Mol. Sci., 2020, 11,
     e01493. DOI: 10.1002/wcms.1493
   
   for GFN2-xTB:
   * C. Bannwarth, S. Ehlert and S. Grimme., J. Chem. Theory Comput., 2019,
     15, 1652-1671. DOI: 10.1021/acs.jctc.8b01176
   for GFN1-xTB:
   * S. Grimme, C. Bannwarth, P. Shushkov, J. Chem. Theory Comput., 2017,
     13, 1989-2009. DOI: 10.1021/acs.jctc.7b00118
   for GFN0-xTB:
   * P. Pracht, E. Caldeweyher, S. Ehlert, S. Grimme, ChemRxiv, 2019, preprint.
     DOI: 10.26434/chemrxiv.8326202.v1
   for GFN-FF:
   * S. Spicher and S. Grimme, Angew. Chem. Int. Ed., 2020, 59, 15665-15673.
     DOI: 10.1002/anie.202004239
   
   for ALPB and GBSA implicit solvation:
   * S. Ehlert, M. Stahn, S. Spicher, S. Grimme, J. Chem. Theory Comput.,
     2021, 17, 4250-4261. DOI: 10.1021/acs.jctc.1c00471
   
   for ddCOSMO and CPCM-X implicit solvation:
   * M. Stahn, S. Ehlert, S. Grimme, J. Phys. Chem. A,
     2023, XX, XXXX-XXXX. DOI: 10.1021/acs.jpca.3c04382
   
   for DFT-D4:
   * E. Caldeweyher, C. Bannwarth and S. Grimme, J. Chem. Phys., 2017,
     147, 034112. DOI: 10.1063/1.4993215
   * E. Caldeweyher, S. Ehlert, A. Hansen, H. Neugebauer, S. Spicher,
     C. Bannwarth and S. Grimme, J. Chem. Phys., 2019, 150, 154122.
     DOI: 10.1063/1.5090222
   * E. Caldeweyher, J.-M. Mewes, S. Ehlert and S. Grimme, Phys. Chem. Chem. Phys.
     2020, 22, 8499-8512. DOI: 10.1039/D0CP00502A
   
   for sTDA-xTB:
   * S. Grimme and C. Bannwarth, J. Chem. Phys., 2016, 145, 054103.
     DOI: 10.1063/1.4959605
   
   in the mass-spec context:
   * V. Asgeirsson, C. Bauer and S. Grimme, Chem. Sci., 2017, 8, 4879.
     DOI: 10.1039/c7sc00601b
   * J. Koopman and S. Grimme, ACS Omega 2019, 4, 12, 15120-15133.
     DOI: 10.1021/acsomega.9b02011
   
   for metadynamics refer to:
   * S. Grimme, J. Chem. Theory Comput., 2019, 155, 2847-2862
     DOI: 10.1021/acs.jctc.9b00143
   
   for SPH calculations refer to:
   * S. Spicher and S. Grimme, J. Chem. Theory Comput., 2021, 17, 1701-1714
     DOI: 10.1021/acs.jctc.0c01306
   
   for ONIOM refer to:
   * C. Plett, A. Katbashev, S. Ehlert, S. Grimme, M. Bursch,
     Phys. Chem. Chem. Phys., 2023, 25, 17860-17868. DOI: 10.1039/D3CP02178E
   
   for DIPRO refer to:
   * J. Kohn, N. Gildemeister, S. Grimme, D. Fazzi, A. Hansen,
     J. Chem. Phys., 2023, just accepted.
   
   for PTB refer to:
   * S. Grimme, M. Mueller, A. Hansen, J. Chem. Phys., 2023, 158, 124111.
     DOI: 10.1063/5.0137838
   
   with help from (in alphabetical order)
   P. Atkinson, C. Bannwarth, F. Bohle, G. Brandenburg, E. Caldeweyher
   M. Checinski, S. Dohm, S. Ehlert, S. Ehrlich, I. Gerasimov, C. Hölzer
   A. Katbashev, J. Kohn, J. Koopman, C. Lavigne, S. Lehtola, F. März, M. Müller,
   F. Musil, H. Neugebauer, J. Pisarek, C. Plett, P. Pracht, F. Pultar,
   J. Seibert, P. Shushkov, S. Spicher, M. Stahn, M. Steiner, T. Strunk,
   J. Stückrath, T. Rose, and J. Unsleber
   
 * started run on 2025/05/15 at 16:32:20.693     
   ID    Z sym.   atoms
    1    9 F      1
    2    6 C      2-11, 13-16, 18, 20-26
    3    7 N      12, 17, 19
    4    8 O      27-29
    5    1 H      30-51

           -------------------------------------------------
          |                Calculation Setup                |
           -------------------------------------------------

          program call               : xtb /rds/general/user/hgt20/home/callum/QDESCP/Ketanserin_rdkit_conf_11/Ketanserin_rdkit_conf_11.xyz --acc 1 --gfn 2 --chrg 0 --uhf 0 --etemp 300 --input /rds/general/user/hgt20/home/callum/QDESCP/Ketanserin_rdkit_conf_11/Ketanserin_rdkit_conf_11_xtb.inp -P 1
          hostname                   : login-c
          coordinate file            : /rds/general/user/hgt20/home/callum/QDESCP/Ketanserin_rdkit_conf_11/Ketanserin_rdkit_conf_11.xyz
          omp threads                :                     1


           -------------------------------------------------
          |                 G F N 2 - x T B                 |
           -------------------------------------------------

        Reference                      10.1021/acs.jctc.8b01176
      * Hamiltonian:
        H0-scaling (s, p, d)           1.850000    2.230000    2.230000
        zeta-weighting                 0.500000
      * Dispersion:
        s8                             2.700000
        a1                             0.520000
        a2                             5.000000
        s9                             5.000000
      * Repulsion:
        kExp                           1.500000    1.000000
        rExp                           1.000000
      * Coulomb:
        alpha                          2.000000
        third order                    shell-resolved
        anisotropic                    true
        a3                             3.000000
        a5                             4.000000
        cn-shift                       1.200000
        cn-exp                         4.000000
        max-rad                        5.000000

q/qsh data taken from xtbrestart
CAMM data taken from xtbrestart

          ...................................................
          :                      SETUP                      :
          :.................................................:
          :  # basis functions                 138          :
          :  # atomic orbitals                 138          :
          :  # shells                           80          :
          :  # electrons                       150          :
          :  max. iterations                   250          :
          :  Hamiltonian                  GFN2-xTB          :
          :  restarted?                       true          :
          :  GBSA solvation                  false          :
          :  PC potential                    false          :
          :  electronic temp.          300.0000000     K    :
          :  accuracy                    1.0000000          :
          :  -> integral cutoff          0.2500000E+02      :
          :  -> integral neglect         0.1000000E-07      :
          :  -> SCF convergence          0.1000000E-05 Eh   :
          :  -> wf. convergence          0.1000000E-03 e    :
          :  Broyden damping             0.4000000          :
          :  net charge                          0          :
          :  unpaired electrons                  0          :
          ...................................................

 iter      E             dE          RMSdq      gap      omega  full diag
   1    -85.2535189 -0.852535E+02  0.587E-06    1.72       0.0  T
   2    -85.2535189 -0.852651E-12  0.358E-06    1.72    3909.3  T
   3    -85.2535189  0.170530E-12  0.228E-06    1.72    6131.3  T

   *** convergence criteria satisfied after 3 iterations ***

         #    Occupation            Energy/Eh            Energy/eV
      -------------------------------------------------------------
         1        2.0000           -0.8260068             -22.4768
       ...           ...                  ...                  ...
        69        2.0000           -0.4290756             -11.6757
        70        2.0000           -0.4274446             -11.6314
        71        2.0000           -0.4217498             -11.4764
        72        2.0000           -0.4135760             -11.2540
        73        2.0000           -0.4080880             -11.1046
        74        2.0000           -0.3932618             -10.7012
        75        2.0000           -0.3504743              -9.5369 (HOMO)
        76                         -0.2873257              -7.8185 (LUMO)
        77                         -0.2812347              -7.6528
        78                         -0.2530822              -6.8867
        79                         -0.2504831              -6.8160
        80                         -0.2201427              -5.9904
       ...                                ...                  ...
       138                          0.7001448              19.0519
      -------------------------------------------------------------
                  HL-Gap            0.0631486 Eh            1.7184 eV
             Fermi-level           -0.3189000 Eh           -8.6777 eV

 SCC (total)                   0 d,  0 h,  0 min,  0.094 sec
 SCC setup                      ...        0 min,  0.001 sec (  0.549%)
 Dispersion                     ...        0 min,  0.001 sec (  0.731%)
 classical contributions        ...        0 min,  0.000 sec (  0.226%)
 integral evaluation            ...        0 min,  0.010 sec ( 10.772%)
 iterations                     ...        0 min,  0.011 sec ( 11.807%)
 molecular gradient             ...        0 min,  0.071 sec ( 75.581%)
 printout                       ...        0 min,  0.000 sec (  0.327%)

         :::::::::::::::::::::::::::::::::::::::::::::::::::::
         ::                     SUMMARY                     ::
         :::::::::::::::::::::::::::::::::::::::::::::::::::::
         :: total energy             -84.107914139339 Eh    ::
         :: gradient norm              0.000500250161 Eh/a0 ::
         :: HOMO-LUMO gap              1.718361275811 eV    ::
         ::.................................................::
         :: SCC energy               -85.253871848487 Eh    ::
         :: -> isotropic ES            0.114091988459 Eh    ::
         :: -> anisotropic ES          0.004528591187 Eh    ::
         :: -> anisotropic XC          0.027930965944 Eh    ::
         :: -> dispersion             -0.056350378937 Eh    ::
         :: repulsion energy           1.145957709148 Eh    ::
         :: add. restraining           0.000000000000 Eh    ::
         :: total charge              -0.000000000000 e     ::
         :::::::::::::::::::::::::::::::::::::::::::::::::::::

           -------------------------------------------------
          |                Property Printout                |
           -------------------------------------------------

    * Orbital Energies and Occupations

         #    Occupation            Energy/Eh            Energy/eV
      -------------------------------------------------------------
         1        2.0000           -0.8260068             -22.4768
       ...           ...                  ...                  ...
        63        2.0000           -0.4420171             -12.0279
[...]
     Phys. Chem. Chem. Phys., 2023, 25, 17860-17868. DOI: 10.1039/D3CP02178E
   
   for DIPRO refer to:
   * J. Kohn, N. Gildemeister, S. Grimme, D. Fazzi, A. Hansen,
     J. Chem. Phys., 2023, just accepted.
   
   for PTB refer to:
   * S. Grimme, M. Mueller, A. Hansen, J. Chem. Phys., 2023, 158, 124111.
     DOI: 10.1063/5.0137838
   
   with help from (in alphabetical order)
   P. Atkinson, C. Bannwarth, F. Bohle, G. Brandenburg, E. Caldeweyher
   M. Checinski, S. Dohm, S. Ehlert, S. Ehrlich, I. Gerasimov, C. Hölzer
   A. Katbashev, J. Kohn, J. Koopman, C. Lavigne, S. Lehtola, F. März, M. Müller,
   F. Musil, H. Neugebauer, J. Pisarek, C. Plett, P. Pracht, F. Pultar,
   J. Seibert, P. Shushkov, S. Spicher, M. Stahn, M. Steiner, T. Strunk,
   J. Stückrath, T. Rose, and J. Unsleber
   
 * started run on 2025/05/15 at 16:32:23.914     
   ID    Z sym.   atoms
    1    9 F      1
    2    6 C      2-11, 13-16, 18, 20-26
    3    7 N      12, 17, 19
    4    8 O      27-29
    5    1 H      30-51

           -------------------------------------------------
          |                Calculation Setup                |
           -------------------------------------------------

          program call               : xtb /rds/general/user/hgt20/home/callum/QDESCP/Ketanserin_rdkit_conf_11/Ketanserin_rdkit_conf_11.xyz --acc 1 --gfn 2 --chrg 0 --uhf 2 --etemp 300 --input /rds/general/user/hgt20/home/callum/QDESCP/Ketanserin_rdkit_conf_11/Ketanserin_rdkit_conf_11_xtb.inp -P 1
          hostname                   : login-c
          coordinate file            : /rds/general/user/hgt20/home/callum/QDESCP/Ketanserin_rdkit_conf_11/Ketanserin_rdkit_conf_11.xyz
          omp threads                :                     1


           -------------------------------------------------
          |                 G F N 2 - x T B                 |
           -------------------------------------------------

        Reference                      10.1021/acs.jctc.8b01176
      * Hamiltonian:
        H0-scaling (s, p, d)           1.850000    2.230000    2.230000
        zeta-weighting                 0.500000
      * Dispersion:
        s8                             2.700000
        a1                             0.520000
        a2                             5.000000
        s9                             5.000000
      * Repulsion:
        kExp                           1.500000    1.000000
        rExp                           1.000000
      * Coulomb:
        alpha                          2.000000
        third order                    shell-resolved
        anisotropic                    true
        a3                             3.000000
        a5                             4.000000
        cn-shift                       1.200000
        cn-exp                         4.000000
        max-rad                        5.000000


          ...................................................
          :                      SETUP                      :
          :.................................................:
          :  # basis functions                 138          :
          :  # atomic orbitals                 138          :
          :  # shells                           80          :
          :  # electrons                       150          :
          :  max. iterations                   250          :
          :  Hamiltonian                  GFN2-xTB          :
          :  restarted?                      false          :
          :  GBSA solvation                  false          :
          :  PC potential                    false          :
          :  electronic temp.          300.0000000     K    :
          :  accuracy                    1.0000000          :
          :  -> integral cutoff          0.2500000E+02      :
          :  -> integral neglect         0.1000000E-07      :
          :  -> SCF convergence          0.1000000E-05 Eh   :
          :  -> wf. convergence          0.1000000E-03 e    :
          :  Broyden damping             0.4000000          :
          :  net charge                          0          :
          :  unpaired electrons                  2          :
          ...................................................

 iter      E             dE          RMSdq      gap      omega  full diag
   1    -84.8135981 -0.848136E+02  0.420E+00    0.19       0.0  T
   2    -84.7364921  0.771060E-01  0.314E+00    0.73       1.0  T
   3    -84.7774292 -0.409371E-01  0.241E+00    1.93       1.0  T
   4    -84.9287092 -0.151280E+00  0.184E+00    0.97       1.0  T
   5    -85.0856723 -0.156963E+00  0.110E+00    0.47       1.0  T
   6    -85.1320985 -0.464262E-01  0.376E-01    0.00       1.0  T
   7    -84.9183238  0.213775E+00  0.120E+00    0.47       1.0  T
   8    -85.1306632 -0.212339E+00  0.579E-01    0.25       1.0  T
   9    -85.1359577 -0.529445E-02  0.556E-01    0.15       1.0  T
  10    -85.0689239  0.670338E-01  0.835E-01    0.21       1.0  T
  11    -85.0059946  0.629293E-01  0.967E-01    0.11       1.0  T
  12    -85.1470060 -0.141011E+00  0.155E-01    0.08       1.0  T
  13    -85.1311141  0.158919E-01  0.327E-01    0.01       1.0  T
  14    -85.1428107 -0.116966E-01  0.173E-01    0.03       1.0  T
  15    -85.1472858 -0.447514E-02  0.538E-02    0.05       1.0  T
  16    -85.1476145 -0.328678E-03  0.354E-02    0.06       1.0  T
  17    -85.1475478  0.666956E-04  0.490E-02    0.07       1.0  T
  18    -85.1476952 -0.147343E-03  0.277E-02    0.07       1.0  T
  19    -85.1477074 -0.122331E-04  0.205E-02    0.06       1.0  T
  20    -85.1477392 -0.318018E-04  0.763E-03    0.06       1.8  T
  21    -85.1477419 -0.272918E-05  0.175E-03    0.06       8.0  T
  22    -85.1477404  0.155073E-05  0.364E-03    0.06       3.8  T
  23    -85.1477422 -0.183237E-05  0.278E-04    0.06      50.4  T
  24    -85.1477422  0.159170E-07  0.388E-04    0.06      36.1  T
  25    -85.1477422 -0.144812E-07  0.183E-04    0.06      76.6  T

   *** convergence criteria satisfied after 25 iterations ***

         #    Occupation            Energy/Eh            Energy/eV
      -------------------------------------------------------------
         1        2.0000           -0.8042237             -21.8840
       ...           ...                  ...                  ...
        70        2.0000           -0.4123755             -11.2213
        71        2.0000           -0.4096837             -11.1481
        72        1.9960           -0.4033394             -10.9754
        73        1.9915           -0.4026155             -10.9557
        74        1.9333           -0.4006050             -10.9010
        75        1.0793           -0.3957693             -10.7694
        76        0.7653           -0.2754729              -7.4960 (HOMO)
        77        0.2347           -0.2732272              -7.4349 (LUMO)
        78                         -0.2475974              -6.7375
        79                         -0.2303267              -6.2675
        80                         -0.2150013              -5.8505
        81                         -0.1920827              -5.2268
       ...                                ...                  ...
       138                          0.7047580              19.1774
      -------------------------------------------------------------
                  HL-Gap            0.0022457 Eh            0.0611 eV
             Fermi-level           -0.3362245 Eh           -9.1491 eV

 transition dipole moment (au) for excitation:          75          76
     X       Y       Z   
  -0.1546  -0.0132  -0.0484  total (au/Debye):    0.163   0.413
 dE (eV)             :    3.273
 oscillator strength :  0.29956E-02

 SCC (total)                   0 d,  0 h,  0 min,  0.261 sec
 SCC setup                      ...        0 min,  0.001 sec (  0.194%)
 Dispersion                     ...        0 min,  0.001 sec (  0.262%)
 classical contributions        ...        0 min,  0.000 sec (  0.081%)
 integral evaluation            ...        0 min,  0.010 sec (  3.871%)
 iterations                     ...        0 min,  0.169 sec ( 64.600%)
 molecular gradient             ...        0 min,  0.033 sec ( 12.496%)
 printout                       ...        0 min,  0.048 sec ( 18.493%)

         :::::::::::::::::::::::::::::::::::::::::::::::::::::
         ::                     SUMMARY                     ::
         :::::::::::::::::::::::::::::::::::::::::::::::::::::
         :: total energy             -84.002137458172 Eh    ::
         :: gradient norm              0.100338822258 Eh/a0 ::
         :: HOMO-LUMO gap              0.061108423998 eV    ::
         ::.................................................::
         :: SCC energy               -85.148095167320 Eh    ::
         :: -> isotropic ES            0.113843730735 Eh    ::
         :: -> anisotropic ES          0.003987016184 Eh    ::
         :: -> anisotropic XC          0.023881730203 Eh    ::
         :: -> dispersion             -0.055978945020 Eh    ::
         :: repulsion energy           1.145957709148 Eh    ::
         :: add. restraining           0.000000000000 Eh    ::
         :: total charge               0.000000000228 e     ::
         :::::::::::::::::::::::::::::::::::::::::::::::::::::

           -------------------------------------------------
          |                Property Printout                |
           -------------------------------------------------

    * Orbital Energies and Occupations

         #    Occupation            Energy/Eh            Energy/eV
      -------------------------------------------------------------
         1        2.0000           -0.8042237             -21.8840
       ...           ...                  ...                  ...
        64        2.0000           -0.4537621             -12.3475
        65        2.0000           -0.4447305             -12.1017
        66        2.0000           -0.4415972             -12.0165
        67        2.0000           -0.4332660             -11.7898
        68        2.0000           -0.4246678             -11.5558
        69        2.0000           -0.4235422             -11.5252
        70        2.0000           -0.4123755             -11.2213
        71        2.0000           -0.4096837             -11.1481
        72        1.9960           -0.4033394             -10.9754
        73        1.9915           -0.4026155             -10.9557
        74        1.9333           -0.4006050             -10.9010
        75        1.0793           -0.3957693             -10.7694
        76        0.7653           -0.2754729              -7.4960 (HOMO)
        77        0.2347           -0.2732272              -7.4349 (LUMO)
        78                         -0.2475974              -6.7375
        79                         -0.2303267              -6.2675
        80                         -0.2150013              -5.8505
        81                         -0.1920827              -5.2268
        82                         -0.1760173              -4.7897
        83                         -0.0884638              -2.4072
        84                         -0.0868897              -2.3644
        85                         -0.0469190              -1.2767
        86                         -0.0061215              -0.1666
        87                          0.0174818               0.4757
       ...                                ...                  ...
       138                          0.7047580              19.1774
      -------------------------------------------------------------
                  HL-Gap            0.0022457 Eh            0.0611 eV
             Fermi-level           -0.3362245 Eh           -9.1491 eV

     #   Z          covCN         q      C6AA      α(0)
     1   9 F        0.787    -0.233    11.585     4.021
     2   6 C        2.788     0.154    24.641     8.131
     3   6 C        2.914    -0.050    29.251     8.869
     4   6 C        2.932    -0.031    28.781     8.798
     5   6 C        2.968    -0.020    28.501     8.757
     6   6 C        2.925    -0.049    29.222     8.865
     7   6 C        2.915    -0.050    29.253     8.869
     8   6 C        2.825     0.180    24.131     8.049
     9   6 C        3.859    -0.016    20.813     6.488
    10   6 C        3.811    -0.060    21.652     6.623
    11   6 C        3.762    -0.003    20.678     6.482
    12   7 N        2.732    -0.087    22.939     7.113
    13   6 C        3.762    -0.001    20.635     6.475
    14   6 C        3.811    -0.064    21.728     6.635
    15   6 C        3.752    -0.009    20.798     6.503
    16   6 C        3.755     0.004    20.567     6.467
    17   7 N        2.744    -0.116    23.517     7.202
    18   6 C        2.706     0.325    21.477     7.586
    19   7 N        2.702    -0.160    24.461     7.345
    20   6 C        2.917     0.070    26.424     8.429
    21   6 C        2.919    -0.055    29.367     8.887
    22   6 C        2.921    -0.029    28.727     8.789
    23   6 C        2.917    -0.032    28.807     8.801
    24   6 C        2.923    -0.024    28.604     8.771
    25   6 C        2.982    -0.044    29.084     8.846
    26   6 C        2.771     0.258    22.657     7.796
    27   8 O        0.859    -0.433    22.356     6.339
    28   8 O        0.860    -0.455    22.813     6.404
    29   8 O        0.858    -0.339    20.499     6.070
    30   1 H        0.926     0.058     2.217     2.328
    31   1 H        0.926     0.056     2.247     2.344
    32   1 H        0.926     0.033     2.546     2.495
    33   1 H        0.926     0.051     2.311     2.377
    34   1 H        0.924     0.052     2.301     2.372
    35   1 H        0.924     0.059     2.209     2.324
    36   1 H        0.925     0.069     2.093     2.262
    37   1 H        0.924     0.062     2.170     2.304
    38   1 H        0.922     0.040     2.452     2.449
    39   1 H        0.924     0.062     2.177     2.308
    40   1 H        0.922     0.042     2.428     2.437
    41   1 H        0.924     0.063     2.166     2.302
    42   1 H        0.924     0.057     2.235     2.338
    43   1 H        0.924     0.066     2.126     2.280
    44   1 H        0.924     0.067     2.124     2.279
    45   1 H        0.924     0.071     2.077     2.254
    46   1 H        0.924     0.080     1.984     2.203
    47   1 H        0.860     0.200     1.107     1.648
    48   1 H        0.926     0.036     2.505     2.475
    49   1 H        0.926     0.041     2.432     2.439
    50   1 H        0.926     0.044     2.402     2.424
    51   1 H        0.926     0.063     2.165     2.301

 Mol. C6AA /au·bohr⁶  :      30428.812857
 Mol. C8AA /au·bohr⁸  :     722462.786000
 Mol. α(0) /au        :        269.354425


Wiberg/Mayer (AO) data.
largest (>0.10) Wiberg bond orders for each atom

 ---------------------------------------------------------------------------
     #   Z sym  total        # sym  WBO       # sym  WBO       # sym  WBO
 ---------------------------------------------------------------------------
     1   9 F    1.066 --     2 C    0.951
     2   6 C    3.817 --     7 C    1.359     3 C    1.352     1 F    0.951
     3   6 C    3.978 --     4 C    1.491     2 C    1.352    30 H    0.960
     4   6 C    3.934 --     3 C    1.491     5 C    1.285    31 H    0.965
     5   6 C    3.872 --     6 C    1.306     4 C    1.285     8 C    1.061
     6   6 C    3.938 --     7 C    1.474     5 C    1.306    32 H    0.959
     7   6 C    3.978 --     6 C    1.474     2 C    1.359    33 H    0.967
     8   6 C    3.742 --    29 O    1.625     5 C    1.061     9 C    0.886
     9   6 C    3.957 --    10 C    0.999    14 C    0.984    34 H    0.948
                             8 C    0.886
    10   6 C    3.984 --     9 C    0.999    11 C    0.984    36 H    0.973
                            35 H    0.973
    11   6 C    3.972 --    12 N    1.008    10 C    0.984    37 H    0.969
                            38 H    0.952
    12   7 N    3.271 --    15 C    1.021    13 C    1.014    11 C    1.008
    13   6 C    3.972 --    12 N    1.014    14 C    0.979    39 H    0.969
                            40 H    0.949
    14   6 C    3.979 --     9 C    0.984    13 C    0.979    41 H    0.973
                            42 H    0.970
    15   6 C    3.959 --    12 N    1.021    44 H    0.966    43 H    0.965
                            16 C    0.950
    16   6 C    3.932 --    17 N    0.987    45 H    0.965    46 H    0.963
                            15 C    0.950
    17   7 N    3.510 --    18 C    1.111    26 C    1.069    16 C    0.987
                            28 O    0.126    27 O    0.121
    18   6 C    3.956 --    28 O    1.625    19 N    1.142    17 N    1.111
    19   7 N    3.471 --    18 C    1.142    20 C    1.116    47 H    0.927
                            28 O    0.138
    20   6 C    3.931 --    21 C    1.363    25 C    1.290    19 N    1.116
    21   6 C    3.948 --    22 C    1.437    20 C    1.363    48 H    0.967
    22   6 C    3.921 --    21 C    1.437    23 C    1.395    49 H    0.971
    23   6 C    3.964 --    24 C    1.470    22 C    1.395    50 H    0.970
    24   6 C    3.922 --    23 C    1.470    25 C    1.337    51 H    0.966
    25   6 C    3.946 --    24 C    1.337    20 C    1.290    26 C    1.071
    26   6 C    3.874 --    27 O    1.651    25 C    1.071    17 N    1.069
    27   8 O    1.939 --    26 C    1.651    17 N    0.121
    28   8 O    1.965 --    18 C    1.625    19 N    0.138    17 N    0.126
    29   8 O    1.995 --     8 C    1.625
    30   1 H    0.991 --     3 C    0.960
    31   1 H    0.997 --     4 C    0.965
    32   1 H    0.997 --     6 C    0.959
    33   1 H    0.996 --     7 C    0.967
    34   1 H    0.994 --     9 C    0.948
    35   1 H    0.996 --    10 C    0.973
    36   1 H    0.995 --    10 C    0.973
    37   1 H    0.995 --    11 C    0.969
    38   1 H    0.991 --    11 C    0.952
    39   1 H    0.995 --    13 C    0.969
    40   1 H    0.991 --    13 C    0.949
    41   1 H    0.995 --    14 C    0.973
    42   1 H    0.996 --    14 C    0.970
    43   1 H    0.992 --    15 C    0.965
    44   1 H    0.993 --    15 C    0.966
    45   1 H    0.993 --    16 C    0.965
    46   1 H    0.992 --    16 C    0.963
    47   1 H    0.959 --    19 N    0.927
    48   1 H    0.998 --    21 C    0.967
    49   1 H    0.997 --    22 C    0.971
    50   1 H    0.998 --    23 C    0.970
    51   1 H    0.996 --    24 C    0.966
 ---------------------------------------------------------------------------

Topologies differ in total number of bonds
Writing topology from bond orders to xtbtopo.mol

molecular dipole:
                 x           y           z       tot (Debye)
 q only:       -2.354       0.425      -0.188
   full:       -2.741       0.598       0.238       7.156
molecular quadrupole (traceless):
                xx          xy          yy          xz          yz          zz
 q only:      -15.594      -9.751       8.913      -6.219      -7.041       6.681
  q+dip:      -14.975     -13.566       8.410      -6.444      -7.357       6.565
   full:      -16.218     -14.023       9.139      -6.490      -9.308       7.078


           -------------------------------------------------
          | TOTAL ENERGY              -84.002137458172 Eh   |
          | GRADIENT NORM               0.100338822258 Eh/α |
          | HOMO-LUMO GAP               0.061108423998 eV   |
           -------------------------------------------------

------------------------------------------------------------------------
 * finished run on 2025/05/15 at 16:32:24.192     
------------------------------------------------------------------------
 total:
 * wall-time:     0 d,  0 h,  0 min,  0.277 sec
 *  cpu-time:     0 d,  0 h,  0 min,  0.147 sec
 * ratio c/w:     0.531 speedup
 SCF:
 * wall-time:     0 d,  0 h,  0 min,  0.262 sec
 *  cpu-time:     0 d,  0 h,  0 min,  0.133 sec
 * ratio c/w:     0.508 speedup


