54
 energy: -87.154338503435 gnorm: 0.000582394703 xtb: 6.7.1 (edcfbbe)
O            4.47591865244108       -2.66230379172908       -1.21552121450168
C            3.60540135625783       -2.24037220109538       -0.45682410668751
C            3.11239036646672       -0.88941946293962       -0.62693401315514
C            1.96227947540534       -0.24690369607920       -0.28528337906647
C            1.84351286842317        1.19177054910147       -0.76768566969511
N            0.74209947172084        1.34585407394349       -1.69842359262582
C            0.89036602901589        1.94842023463766       -2.90156518807198
C           -0.38584751777622        1.95839736350304       -3.71912638817823
O            1.93822278240154        2.42290117643010       -3.28122006751464
C            1.77919810439024        2.21028765245449        0.38950925378499
C            0.92115728064034        1.76189251678778        1.57725390654018
C            3.10444761400956       -3.06805588292198        0.65465605313328
O            3.84312097231003       -4.07385797826900        1.16361407033602
C            5.20405523680500       -4.25110391682382        0.81858181490288
C            1.84364614609100       -2.99035745841934        1.19000768937849
C            0.82015880374079       -2.05588531978908        0.99611451300078
C            0.84564658475381       -0.82371920677499        0.39239736587780
C           -0.40441023582096       -0.03494506306569        0.49845651112791
C           -1.61519500410009       -0.55810492213500        0.02677139189186
O           -1.62335667287973       -1.82887888649735       -0.49807535624971
C           -1.91888167389715       -1.92841129737116       -1.87818607498042
C           -2.79439711691219        0.19187535049449        0.11038774347568
O           -3.93384218806729       -0.36008955187743       -0.42723805163263
C           -5.07183003441983       -0.43491243467052        0.40910498513033
C           -0.39061724521401        1.22385124524275        1.09544943395961
C           -1.55561248825991        1.96564537343740        1.17797714949806
C           -2.75682879518020        1.47847271423019        0.67768501266188
O           -3.92758084784150        2.17955195972915        0.69281801197052
C           -3.93381171730950        3.47455882363550        1.24373765150540
H            3.80810934645741       -0.32749778999743       -1.24179555274869
H            2.72655796024474        1.44631159047020       -1.36525316663717
H           -0.15877202068928        0.98515939409799       -1.42891344195519
H           -0.60615837140115        0.94840333834967       -4.05823795719080
H           -1.22222475045697        2.31676966980646       -3.12424704028350
H           -0.25195890738260        2.59811036935592       -4.58592267513021
H            1.38628569534326        3.14247560566325       -0.02066242065262
H            2.79409047290860        2.40112707758863        0.74152047494776
H            0.76759960591663        2.60801213190420        2.24822645424834
H            1.45042848007473        0.98051322893516        2.12745060462284
H            5.77978519388708       -3.33738492174770        0.98176750135005
H            5.56172246974728       -5.03526744574489        1.48525774549485
H            5.31906688781081       -4.55806334494087       -0.22144156335828
H            1.61349493880183       -3.79825143535914        1.87487073280237
H           -0.11838200435202       -2.31665806573977        1.46729052644545
H           -1.11315996879609       -1.48579712356550       -2.47635069496234
H           -2.86719919473053       -1.44738193594458       -2.12449303277558
H           -1.97917189198657       -2.99376153400897       -2.09097193385432
H           -5.46700721124362        0.55391217551680        0.64640194836835
H           -4.83813908782202       -0.96756140549747        1.33614116471266
H           -5.81001890390521       -0.99947999461778       -0.15764551557998
H           -1.51321144319544        2.94129446099576        1.63445821227940
H           -3.66959704094699        3.46160715909810        2.30575553525599
H           -3.25602769290019        4.14372483498408        0.70501156457585
H           -4.95572276857617        3.83352599723527        1.13174307419764
