31
 energy: -58.959832536786 gnorm: 0.000932473165 xtb: 6.7.1 (edcfbbe)
N            4.33949126058800        0.37793063650545        1.60035665066236
C            3.42666540589201       -0.04975237367128        0.71867697142390
N            3.64232348552925       -1.20834689552992        0.08829937274794
C            2.74093682312628       -1.64044252177540       -0.77063420767377
Cl           3.10507800862736       -3.13075549444482       -1.51899794071332
N            1.60176946496567       -1.09093027998536       -1.13195893603995
C            1.37190898074120        0.07125095672664       -0.51054197333617
C            2.24234315812624        0.65209598233949        0.43075354968331
N            1.71428176707083        1.83588286086420        0.87668589445955
C            0.59546774407265        1.96246197544471        0.23483868451434
N            0.31914653232292        0.92879692067660       -0.62318508111589
C           -0.88980241396424        0.85136424811864       -1.44069377651254
C           -1.21037361173791       -0.58459085402495       -1.83425626353978
C           -1.92943687079563       -1.08622961134361       -0.57228136210632
C           -2.56362600046494        0.19930827335090        0.00138374726731
O           -1.98455237071244        1.29547932801161       -0.70033415230453
C           -2.36546965154267        0.32368001030655        1.51363743884648
O           -3.18404174029896        1.36089055942431        1.98974477099601
O           -2.93660678515760       -2.02907375967319       -0.81192469170156
H            5.18454069437009       -0.15156742816197        1.72003757887299
H            4.21455945230046        1.27128085919788        2.04076151428394
H           -0.08526514072665        2.78228053553428        0.34986168712967
H           -0.76786252924382        1.53098548731986       -2.29421946783441
H           -0.32156378102916       -1.15834307258919       -2.08311649809624
H           -1.91260249305693       -0.57960402478416       -2.66847318175181
H           -1.19041061003748       -1.48721382100040        0.14037820323659
H           -3.63895772026066        0.20853491226577       -0.20389003206744
H           -1.30613188027834        0.52705402406731        1.72864919445201
H           -2.64494378157413       -0.63591957105969        1.97291500694046
H           -3.02904555045831        1.48109179719257        2.93245056004398
H           -2.53771984638557       -2.82749965931049       -1.17472326075304
