29
 energy: -55.281117205010 gnorm: 0.000581637600 xtb: 6.7.1 (edcfbbe)
O           -0.67538576245260        0.06628716047345        1.97336208958266
C           -2.04235586317145        0.21132180420971        1.66677117288218
C           -2.24543683570709        0.02422276879713        0.15895633593857
C           -1.54811671791082       -1.24335835889021       -0.39478183664898
C           -0.86353522662924       -0.73947959532510       -1.68146784749306
C           -0.62400911715257        0.73137920282434       -1.32725715199716
N            0.59880348630229        0.87169112352304       -0.56030851714589
C            1.00668359708556        1.94977246975901        0.13789982085109
N            2.11998266706156        1.68408867105753        0.76794134833136
C            2.37499009954030        0.39020822129023        0.43026635768129
C            3.56453776580777       -0.33735176473986        0.93400377536195
N            4.33754134721019        0.45661988296577        1.70878770634383
O            3.81532551261558       -1.49611414810288        0.69076657043499
N            1.46413478293977       -0.12109577996663       -0.36928883389147
O           -1.71964912912413        1.13428848945067       -0.56032342743406
O           -1.70462786560220       -0.81808011596304       -2.79442872746595
O           -2.44655823077965       -2.27435765146533       -0.72087226804554
H           -0.52778439097460        0.29337805287888        2.89705061377829
H           -2.64268477896931       -0.53846732213459        2.20332076263659
H           -2.40194193864969        1.21209014002402        1.93532667361793
H           -3.32207434225271       -0.01774708310625       -0.04976851064722
H           -0.77860079775245       -1.57885263440525        0.30759889325971
H            0.08293393840454       -1.26231441429546       -1.86401794280153
H           -0.58280890532460        1.37101022811281       -2.21598234697043
H            0.47212164642424        2.87639638670293        0.15671248198145
H            4.06197332408576        1.41154189763823        1.86430988375832
H            5.18231035591082        0.09064965997921        2.11269947918002
H           -2.28735175746402       -1.57772883112696       -2.65451304812282
H           -2.66821686346967       -2.76999846016816        0.07193649305188
