----- Optimization -----
      -----------------------------------------------------------      
     |                   =====================                   |     
     |                           x T B                           |     
     |                   =====================                   |     
     |                         S. Grimme                         |     
     |          Mulliken Center for Theoretical Chemistry        |     
     |                    University of Bonn                     |     
      -----------------------------------------------------------      

   * xtb version 6.7.1 (edcfbbe) compiled by 'conda@3ef47c1a292c' on 2024-11-25

   xtb is free software: you can redistribute it and/or modify it under
   the terms of the GNU Lesser General Public License as published by
   the Free Software Foundation, either version 3 of the License, or
   (at your option) any later version.
   
   xtb is distributed in the hope that it will be useful,
   but WITHOUT ANY WARRANTY; without even the implied warranty of
   MERCHANTABILITY or FITNESS FOR A PARTICULAR PURPOSE.  See the
   GNU Lesser General Public License for more details.
   
   Cite this work as:
   * C. Bannwarth, E. Caldeweyher, S. Ehlert, A. Hansen, P. Pracht,
     J. Seibert, S. Spicher, S. Grimme, WIREs Comput. Mol. Sci., 2020, 11,
     e01493. DOI: 10.1002/wcms.1493
   
   for GFN2-xTB:
   * C. Bannwarth, S. Ehlert and S. Grimme., J. Chem. Theory Comput., 2019,
     15, 1652-1671. DOI: 10.1021/acs.jctc.8b01176
   for GFN1-xTB:
   * S. Grimme, C. Bannwarth, P. Shushkov, J. Chem. Theory Comput., 2017,
     13, 1989-2009. DOI: 10.1021/acs.jctc.7b00118
   for GFN0-xTB:
   * P. Pracht, E. Caldeweyher, S. Ehlert, S. Grimme, ChemRxiv, 2019, preprint.
     DOI: 10.26434/chemrxiv.8326202.v1
   for GFN-FF:
   * S. Spicher and S. Grimme, Angew. Chem. Int. Ed., 2020, 59, 15665-15673.
     DOI: 10.1002/anie.202004239
   
   for ALPB and GBSA implicit solvation:
   * S. Ehlert, M. Stahn, S. Spicher, S. Grimme, J. Chem. Theory Comput.,
     2021, 17, 4250-4261. DOI: 10.1021/acs.jctc.1c00471
   
   for ddCOSMO and CPCM-X implicit solvation:
   * M. Stahn, S. Ehlert, S. Grimme, J. Phys. Chem. A,
     2023, XX, XXXX-XXXX. DOI: 10.1021/acs.jpca.3c04382
   
   for DFT-D4:
   * E. Caldeweyher, C. Bannwarth and S. Grimme, J. Chem. Phys., 2017,
     147, 034112. DOI: 10.1063/1.4993215
   * E. Caldeweyher, S. Ehlert, A. Hansen, H. Neugebauer, S. Spicher,
     C. Bannwarth and S. Grimme, J. Chem. Phys., 2019, 150, 154122.
     DOI: 10.1063/1.5090222
   * E. Caldeweyher, J.-M. Mewes, S. Ehlert and S. Grimme, Phys. Chem. Chem. Phys.
     2020, 22, 8499-8512. DOI: 10.1039/D0CP00502A
   
   for sTDA-xTB:
   * S. Grimme and C. Bannwarth, J. Chem. Phys., 2016, 145, 054103.
     DOI: 10.1063/1.4959605
   
   in the mass-spec context:
   * V. Asgeirsson, C. Bauer and S. Grimme, Chem. Sci., 2017, 8, 4879.
     DOI: 10.1039/c7sc00601b
   * J. Koopman and S. Grimme, ACS Omega 2019, 4, 12, 15120-15133.
     DOI: 10.1021/acsomega.9b02011
   
   for metadynamics refer to:
   * S. Grimme, J. Chem. Theory Comput., 2019, 155, 2847-2862
     DOI: 10.1021/acs.jctc.9b00143
   
   for SPH calculations refer to:
   * S. Spicher and S. Grimme, J. Chem. Theory Comput., 2021, 17, 1701-1714
     DOI: 10.1021/acs.jctc.0c01306
   
   for ONIOM refer to:
   * C. Plett, A. Katbashev, S. Ehlert, S. Grimme, M. Bursch,
     Phys. Chem. Chem. Phys., 2023, 25, 17860-17868. DOI: 10.1039/D3CP02178E
   
   for DIPRO refer to:
   * J. Kohn, N. Gildemeister, S. Grimme, D. Fazzi, A. Hansen,
     J. Chem. Phys., 2023, just accepted.
   
   for PTB refer to:
   * S. Grimme, M. Mueller, A. Hansen, J. Chem. Phys., 2023, 158, 124111.
     DOI: 10.1063/5.0137838
   
   with help from (in alphabetical order)
   P. Atkinson, C. Bannwarth, F. Bohle, G. Brandenburg, E. Caldeweyher
   M. Checinski, S. Dohm, S. Ehlert, S. Ehrlich, I. Gerasimov, C. Hölzer
   A. Katbashev, J. Kohn, J. Koopman, C. Lavigne, S. Lehtola, F. März, M. Müller,
   F. Musil, H. Neugebauer, J. Pisarek, C. Plett, P. Pracht, F. Pultar,
   J. Seibert, P. Shushkov, S. Spicher, M. Stahn, M. Steiner, T. Strunk,
   J. Stückrath, T. Rose, and J. Unsleber
   
 * started run on 2025/05/15 at 16:16:38.843     
   ID    Z sym.   atoms
    1    8 O      1, 13, 15-17
    2    6 C      2-6, 8, 10, 11
    3    7 N      7, 9, 12, 14
    4    1 H      18-29

           -------------------------------------------------
          |                Calculation Setup                |
           -------------------------------------------------

          program call               : xtb /rds/general/user/hgt20/home/callum/QDESCP/Ribavirin_rdkit_conf_23/Ribavirin_rdkit_conf_23.xyz --opt normal --acc 1 --gfn 2 --chrg 0 --uhf 0 -P 1
          hostname                   : login-c
          coordinate file            : /rds/general/user/hgt20/home/callum/QDESCP/Ribavirin_rdkit_conf_23/Ribavirin_rdkit_conf_23.xyz
          omp threads                :                     1


           -------------------------------------------------
          |                 G F N 2 - x T B                 |
           -------------------------------------------------

        Reference                      10.1021/acs.jctc.8b01176
      * Hamiltonian:
        H0-scaling (s, p, d)           1.850000    2.230000    2.230000
        zeta-weighting                 0.500000
      * Dispersion:
        s8                             2.700000
        a1                             0.520000
        a2                             5.000000
        s9                             5.000000
      * Repulsion:
        kExp                           1.500000    1.000000
        rExp                           1.000000
      * Coulomb:
        alpha                          2.000000
        third order                    shell-resolved
        anisotropic                    true
        a3                             3.000000
        a5                             4.000000
        cn-shift                       1.200000
        cn-exp                         4.000000
        max-rad                        5.000000


          ...................................................
          :                      SETUP                      :
          :.................................................:
          :  # basis functions                  80          :
          :  # atomic orbitals                  80          :
          :  # shells                           46          :
          :  # electrons                        94          :
          :  max. iterations                   250          :
          :  Hamiltonian                  GFN2-xTB          :
          :  restarted?                      false          :
          :  GBSA solvation                  false          :
          :  PC potential                    false          :
          :  electronic temp.          300.0000000     K    :
          :  accuracy                    1.0000000          :
          :  -> integral cutoff          0.2500000E+02      :
          :  -> integral neglect         0.1000000E-07      :
          :  -> SCF convergence          0.1000000E-05 Eh   :
          :  -> wf. convergence          0.1000000E-03 e    :
          :  Broyden damping             0.4000000          :
          :  net charge                          0          :
          :  unpaired electrons                  0          :
          ...................................................

 iter      E             dE          RMSdq      gap      omega  full diag
   1    -55.5522002 -0.555522E+02  0.472E+00    3.47       0.0  T
   2    -55.6997931 -0.147593E+00  0.286E+00    3.32       1.0  T
   3    -55.7241204 -0.243273E-01  0.152E+00    3.45       1.0  T
   4    -55.7304275 -0.630708E-02  0.527E-01    3.41       1.0  T
   5    -55.7350030 -0.457547E-02  0.110E-01    3.37       1.0  T
   6    -55.7350391 -0.361653E-04  0.468E-02    3.40       1.0  T
   7    -55.7350457 -0.659231E-05  0.220E-02    3.40       1.0  T
   8    -55.7350476 -0.187836E-05  0.671E-03    3.40       2.8  T
   9    -55.7350479 -0.315032E-06  0.266E-03    3.40       7.0  T
  10    -55.7350480 -0.409874E-07  0.123E-03    3.40      15.0  T
  11    -55.7350480 -0.115431E-07  0.424E-04    3.40      43.7  T
  12    -55.7350480 -0.127312E-08  0.139E-04    3.40     133.4  T

   *** convergence criteria satisfied after 12 iterations ***

         #    Occupation            Energy/Eh            Energy/eV
      -------------------------------------------------------------
         1        2.0000           -0.7345477             -19.9881
       ...           ...                  ...                  ...
        41        2.0000           -0.4390754             -11.9478
        42        2.0000           -0.4340873             -11.8121
        43        2.0000           -0.4262085             -11.5977
        44        2.0000           -0.4238199             -11.5327
        45        2.0000           -0.4105376             -11.1713
        46        2.0000           -0.4054996             -11.0342
        47        2.0000           -0.3919226             -10.6648 (HOMO)
        48                         -0.2670269              -7.2662 (LUMO)
        49                         -0.2308390              -6.2814
        50                         -0.1457831              -3.9670
        51                         -0.0769835              -2.0948
        52                         -0.0513022              -1.3960
       ...                                ...                  ...
        80                          0.6334776              17.2378
      -------------------------------------------------------------
                  HL-Gap            0.1248957 Eh            3.3986 eV
             Fermi-level           -0.3294748 Eh           -8.9655 eV

 SCC (total)                   0 d,  0 h,  0 min,  0.032 sec
 SCC setup                      ...        0 min,  0.000 sec (  0.788%)
 Dispersion                     ...        0 min,  0.000 sec (  0.703%)
 classical contributions        ...        0 min,  0.000 sec (  0.255%)
 integral evaluation            ...        0 min,  0.005 sec ( 14.341%)
 iterations                     ...        0 min,  0.014 sec ( 45.789%)
 molecular gradient             ...        0 min,  0.012 sec ( 37.769%)
 printout                       ...        0 min,  0.000 sec (  0.334%)

         :::::::::::::::::::::::::::::::::::::::::::::::::::::
         ::                     SUMMARY                     ::
         :::::::::::::::::::::::::::::::::::::::::::::::::::::
         :: total energy             -55.267167763240 Eh    ::
         :: gradient norm              0.094983107745 Eh/a0 ::
         :: HOMO-LUMO gap              3.398583742157 eV    ::
         ::.................................................::
         :: SCC energy               -55.734888345851 Eh    ::
         :: -> isotropic ES            0.148112357183 Eh    ::
         :: -> anisotropic ES          0.003469305957 Eh    ::
         :: -> anisotropic XC          0.010931532405 Eh    ::
         :: -> dispersion             -0.026924811318 Eh    ::
         :: repulsion energy           0.467720582612 Eh    ::
         :: add. restraining           0.000000000000 Eh    ::
         :: total charge              -0.000000000000 e     ::
         :::::::::::::::::::::::::::::::::::::::::::::::::::::

      ----------------------------------------------------------- 
     |                   =====================                   |
     |                        A N C O P T                        |
     |                   =====================                   |
     |               Approximate Normal Coordinate               |
     |                Rational Function Optimizer                |
      ----------------------------------------------------------- 
      ----------------------------------------------------------- 
     |                   =====================                   |
     |                        A N C O P T                        |
     |                   =====================                   |
     |               Approximate Normal Coordinate               |
     |                Rational Function Optimizer                |
      ----------------------------------------------------------- 

          ...................................................
          :                      SETUP                      :
          :.................................................:
          :   optimization level            normal          :
          :   max. optcycles                   200          :
          :   ANC micro-cycles                  20          :
          :   degrees of freedom                81          :
          :.................................................:
          :   RF solver                   davidson          :
          :   write xtbopt.log                true          :
          :   linear?                        false          :
          :   energy convergence         0.5000000E-05 Eh   :
          :   grad. convergence          0.1000000E-02 Eh/α :
          :   maxmium RF displ.          1.0000000          :
          :   Hlow (freq-cutoff)         0.1000000E-01      :
          :   Hmax (freq-cutoff)         5.0000000          :
          :   S6 in model hess.         20.0000000          :
          ...................................................

generating ANC from exact Hessian ...
Using Lindh-Hessian (1995)
 Shifting diagonal of input Hessian by    9.2962382947153373E-003
 Lowest  eigenvalues of input Hessian
    0.000000    0.000000    0.000000    0.000000    0.000000    0.000000
    0.010000    0.010623    0.011401    0.013073    0.013913    0.015142
    0.018394    0.018777    0.019583    0.023336    0.024464    0.028960
 Highest eigenvalues
    1.715294    1.761607    1.942503    2.046030    2.094035    2.325341


........................................................................
.............................. CYCLE    1 ..............................
........................................................................

 iter      E             dE          RMSdq      gap      omega  full diag
   1    -55.7350480 -0.557350E+02  0.619E-05    3.40       0.0  T
   2    -55.7350480 -0.185310E-10  0.345E-05    3.40     538.2  T
   3    -55.7350480 -0.235190E-11  0.209E-05    3.40     887.6  T
     SCC iter.                  ...        0 min,  0.004 sec
     gradient                   ...        0 min,  0.012 sec
 * total energy  :   -55.2671678 Eh     change       -0.1231868E-09 Eh
   gradient norm :     0.0949833 Eh/α   predicted     0.0000000E+00 (-100.00%)
   displ. norm   :     0.2604991 α      lambda       -0.1232551E-01
   maximum displ.:     0.1023250 α      in ANC's #13, #18, #12, ...

........................................................................
.............................. CYCLE    2 ..............................
........................................................................

 iter      E             dE          RMSdq      gap      omega  full diag
   1    -55.7667536 -0.557668E+02  0.222E-01    3.56       0.0  T
   2    -55.7668391 -0.854414E-04  0.129E-01    3.57       1.0  T
   3    -55.7668285  0.105548E-04  0.464E-02    3.59       1.0  T
   4    -55.7668515 -0.230316E-04  0.110E-02    3.58       1.7  T
   5    -55.7668535 -0.190661E-05  0.445E-03    3.58       4.2  T
   6    -55.7668536 -0.138151E-06  0.206E-03    3.58       9.0  T
   7    -55.7668536 -0.143222E-07  0.664E-04    3.58      28.0  T
   8    -55.7668536 -0.296254E-08  0.303E-04    3.58      61.4  T
     SCC iter.                  ...        0 min,  0.009 sec
     gradient                   ...        0 min,  0.012 sec
 * total energy  :   -55.2755811 Eh     change       -0.8413311E-02 Eh
   gradient norm :     0.0432096 Eh/α   predicted    -0.6582885E-02 ( -21.76%)
   displ. norm   :     0.2404653 α      lambda       -0.3848091E-02
   maximum displ.:     0.1025420 α      in ANC's #6, #13, #12, ...

........................................................................
.............................. CYCLE    3 ..............................
........................................................................

 iter      E             dE          RMSdq      gap      omega  full diag
   1    -55.7824490 -0.557824E+02  0.137E-01    3.68       0.0  T
   2    -55.7824858 -0.367580E-04  0.807E-02    3.68       1.0  T
   3    -55.7824836  0.222264E-05  0.260E-02    3.69       1.0  T
   4    -55.7824896 -0.604367E-05  0.623E-03    3.69       3.0  T
   5    -55.7824902 -0.590391E-06  0.260E-03    3.69       7.1  T
   6    -55.7824903 -0.768530E-07  0.119E-03    3.69      15.7  T
   7    -55.7824903 -0.303544E-08  0.406E-04    3.69      45.7  T
   8    -55.7824903 -0.956788E-09  0.163E-04    3.69     114.2  T
     SCC iter.                  ...        0 min,  0.009 sec
     gradient                   ...        0 min,  0.012 sec
 * total energy  :   -55.2778168 Eh     change       -0.2235696E-02 Eh
   gradient norm :     0.0130954 Eh/α   predicted    -0.2036658E-02 (  -8.90%)
   displ. norm   :     0.1495995 α      lambda       -0.5539969E-03
   maximum displ.:     0.0803830 α      in ANC's #6, #5, #12, ...

........................................................................
.............................. CYCLE    4 ..............................
........................................................................

 iter      E             dE          RMSdq      gap      omega  full diag
   1    -55.7823059 -0.557823E+02  0.508E-02    3.69       0.0  T
   2    -55.7823088 -0.289985E-05  0.305E-02    3.69       1.0  T
   3    -55.7823073  0.146736E-05  0.111E-02    3.69       1.7  T
   4    -55.7823095 -0.218073E-05  0.214E-03    3.69       8.7  T
   5    -55.7823095 -0.417863E-07  0.875E-04    3.69      21.2  T
   6    -55.7823095 -0.308891E-08  0.382E-04    3.69      48.6  T
     SCC iter.                  ...        0 min,  0.007 sec
     gradient                   ...        0 min,  0.012 sec
 * total energy  :   -55.2782132 Eh     change       -0.3964093E-03 Eh
   gradient norm :     0.0058142 Eh/α   predicted    -0.2832101E-03 ( -28.56%)
   displ. norm   :     0.1909545 α      lambda       -0.3530386E-03
   maximum displ.:     0.1041631 α      in ANC's #6, #5, #1, ...

........................................................................
.............................. CYCLE    5 ..............................
........................................................................

 iter      E             dE          RMSdq      gap      omega  full diag
   1    -55.7803749 -0.557804E+02  0.579E-02    3.68       0.0  T
   2    -55.7803772 -0.228003E-05  0.348E-02    3.68       1.0  T
   3    -55.7803751  0.209870E-05  0.119E-02    3.68       1.6  T
   4    -55.7803780 -0.293508E-05  0.214E-03    3.68       8.7  T
   5    -55.7803781 -0.251413E-07  0.101E-03    3.68      18.4  T
   6    -55.7803781 -0.374997E-08  0.323E-04    3.68      57.6  T
   7    -55.7803781 -0.443308E-09  0.100E-04    3.68     185.4  T
     SCC iter.                  ...        0 min,  0.008 sec
     gradient                   ...        0 min,  0.012 sec
 * total energy  :   -55.2784468 Eh     change       -0.2336675E-03 Eh
   gradient norm :     0.0054444 Eh/α   predicted    -0.1830526E-03 ( -21.66%)
   displ. norm   :     0.1630496 α      lambda       -0.1619782E-03
   maximum displ.:     0.0840652 α      in ANC's #6, #5, #1, ...

........................................................................
.............................. CYCLE    6 ..............................
........................................................................

 iter      E             dE          RMSdq      gap      omega  full diag
   1    -55.7796161 -0.557796E+02  0.455E-02    3.68       0.0  T
   2    -55.7796169 -0.881488E-06  0.274E-02    3.68       1.0  T
   3    -55.7796165  0.455842E-06  0.571E-03    3.68       3.3  T
   4    -55.7796172 -0.732652E-06  0.156E-03    3.68      11.9  T
   5    -55.7796172 -0.129834E-07  0.779E-04    3.68      23.8  T
   6    -55.7796172 -0.274353E-08  0.218E-04    3.68      85.1  T
     SCC iter.                  ...        0 min,  0.007 sec
     gradient                   ...        0 min,  0.012 sec
 * total energy  :   -55.2785688 Eh     change       -0.1219331E-03 Eh
   gradient norm :     0.0057940 Eh/α   predicted    -0.8319148E-04 ( -31.77%)
   displ. norm   :     0.2112062 α      lambda       -0.1681707E-03
   maximum displ.:     0.1080204 α      in ANC's #1, #6, #5, ...

........................................................................
.............................. CYCLE    7 ..............................
........................................................................

 iter      E             dE          RMSdq      gap      omega  full diag
   1    -55.7797897 -0.557798E+02  0.577E-02    3.68       0.0  T
   2    -55.7797910 -0.136064E-05  0.345E-02    3.68       1.0  T
   3    -55.7797911 -0.114605E-06  0.435E-03    3.68       4.3  T
   4    -55.7797914 -0.249494E-06  0.186E-03    3.68      10.0  T
   5    -55.7797914 -0.978772E-08  0.924E-04    3.68      20.1  T
   6    -55.7797914 -0.791577E-08  0.317E-04    3.68      58.6  T
     SCC iter.                  ...        0 min,  0.007 sec
     gradient                   ...        0 min,  0.012 sec
 * total energy  :   -55.2786878 Eh     change       -0.1189850E-03 Eh
   gradient norm :     0.0039732 Eh/α   predicted    -0.8783872E-04 ( -26.18%)
   displ. norm   :     0.1711609 α      lambda       -0.1006652E-03
   maximum displ.:     0.0990993 α      in ANC's #1, #2, #5, ...

........................................................................
.............................. CYCLE    8 ..............................
........................................................................

 iter      E             dE          RMSdq      gap      omega  full diag
   1    -55.7808122 -0.557808E+02  0.438E-02    3.68       0.0  T
   2    -55.7808130 -0.812310E-06  0.263E-02    3.68       1.0  T
   3    -55.7808130 -0.590821E-07  0.347E-03    3.68       5.3  T
   4    -55.7808132 -0.148459E-06  0.143E-03    3.68      13.0  T
   5    -55.7808132 -0.748989E-08  0.700E-04    3.68      26.5  T
   6    -55.7808132 -0.400236E-08  0.267E-04    3.68      69.6  T
     SCC iter.                  ...        0 min,  0.007 sec
     gradient                   ...        0 min,  0.012 sec
 * total energy  :   -55.2787599 Eh     change       -0.7214126E-04 Eh
   gradient norm :     0.0024893 Eh/α   predicted    -0.5180754E-04 ( -28.19%)
   displ. norm   :     0.1345402 α      lambda       -0.6258379E-04
   maximum displ.:     0.0849557 α      in ANC's #1, #2, #5, ...

........................................................................
.............................. CYCLE    9 ..............................
........................................................................

 iter      E             dE          RMSdq      gap      omega  full diag
   1    -55.7817530 -0.557818E+02  0.317E-02    3.69       0.0  T
   2    -55.7817535 -0.425400E-06  0.190E-02    3.69       1.0  T
   3    -55.7817535 -0.248673E-08  0.268E-03    3.69       6.9  T
   4    -55.7817536 -0.109315E-06  0.102E-03    3.69      18.1  T
   5    -55.7817536 -0.323825E-08  0.528E-04    3.69      35.2  T
   6    -55.7817536 -0.238619E-08  0.187E-04    3.69      99.3  T
     SCC iter.                  ...        0 min,  0.007 sec
     gradient                   ...        0 min,  0.012 sec
 * total energy  :   -55.2788084 Eh     change       -0.4853018E-04 Eh
   gradient norm :     0.0026516 Eh/α   predicted    -0.3185925E-04 ( -34.35%)
   displ. norm   :     0.1300700 α      lambda       -0.5455970E-04
   maximum displ.:     0.0851627 α      in ANC's #1, #2, #5, ...

........................................................................
.............................. CYCLE   10 ..............................
........................................................................

 iter      E             dE          RMSdq      gap      omega  full diag
   1    -55.7821801 -0.557822E+02  0.287E-02    3.69       0.0  T
   2    -55.7821804 -0.322440E-06  0.172E-02    3.69       1.1  T
   3    -55.7821804 -0.558114E-08  0.223E-03    3.69       8.3  T
   4    -55.7821805 -0.799031E-07  0.863E-04    3.69      21.5  T
   5    -55.7821805 -0.166821E-08  0.428E-04    3.69      43.4  T
     SCC iter.                  ...        0 min,  0.006 sec
     gradient                   ...        0 min,  0.012 sec
 * total energy  :   -55.2788531 Eh     change       -0.4469722E-04 Eh
   gradient norm :     0.0026416 Eh/α   predicted    -0.2774225E-04 ( -37.93%)
   displ. norm   :     0.1384074 α      lambda       -0.5309191E-04
   maximum displ.:     0.0943574 α      in ANC's #2, #1, #9, ...

........................................................................
.............................. CYCLE   11 ..............................
........................................................................

 iter      E             dE          RMSdq      gap      omega  full diag
   1    -55.7820630 -0.557821E+02  0.291E-02    3.69       0.0  T
   2    -55.7820633 -0.290818E-06  0.173E-02    3.69       1.1  T
   3    -55.7820633  0.214807E-07  0.255E-03    3.69       7.3  T
   4    -55.7820634 -0.113958E-06  0.101E-03    3.69      18.3  T
   5    -55.7820634 -0.443892E-08  0.470E-04    3.69      39.5  T
   6    -55.7820634 -0.122760E-08  0.144E-04    3.69     129.3  T
     SCC iter.                  ...        0 min,  0.007 sec
     gradient                   ...        0 min,  0.012 sec
 * total energy  :   -55.2788973 Eh     change       -0.4414554E-04 Eh
   gradient norm :     0.0019671 Eh/α   predicted    -0.2705562E-04 ( -38.71%)
   displ. norm   :     0.2164140 α      lambda       -0.4835056E-04
   maximum displ.:     0.1505781 α      in ANC's #2, #1, #10, ...

........................................................................
.............................. CYCLE   12 ..............................
........................................................................

 iter      E             dE          RMSdq      gap      omega  full diag
   1    -55.7814058 -0.557814E+02  0.450E-02    3.69       0.0  T
   2    -55.7814064 -0.641242E-06  0.267E-02    3.69       1.0  T
   3    -55.7814063  0.595609E-07  0.400E-03    3.69       4.6  T
   4    -55.7814066 -0.281738E-06  0.163E-03    3.69      11.4  T
   5    -55.7814066 -0.121215E-07  0.688E-04    3.69      27.0  T
   6    -55.7814066 -0.234973E-08  0.196E-04    3.69      94.9  T
     SCC iter.                  ...        0 min,  0.007 sec
     gradient                   ...        0 min,  0.012 sec
 * total energy  :   -55.2789527 Eh     change       -0.5538594E-04 Eh
   gradient norm :     0.0018417 Eh/α   predicted    -0.2468059E-04 ( -55.44%)
   displ. norm   :     0.1795724 α      lambda       -0.3564270E-04
   maximum displ.:     0.1252008 α      in ANC's #1, #2, #16, ...

........................................................................
.............................. CYCLE   13 ..............................
........................................................................

 iter      E             dE          RMSdq      gap      omega  full diag
   1    -55.7811328 -0.557811E+02  0.381E-02    3.69       0.0  T
   2    -55.7811333 -0.411910E-06  0.226E-02    3.69       1.0  T
   3    -55.7811333 -0.148541E-07  0.284E-03    3.69       6.5  T
   4    -55.7811334 -0.133713E-06  0.134E-03    3.69      13.9  T
   5    -55.7811334 -0.625430E-08  0.551E-04    3.69      33.7  T
   6    -55.7811334 -0.285075E-08  0.146E-04    3.69     127.1  T
     SCC iter.                  ...        0 min,  0.007 sec
     gradient                   ...        0 min,  0.012 sec
 * total energy  :   -55.2789994 Eh     change       -0.4670975E-04 Eh
   gradient norm :     0.0020084 Eh/α   predicted    -0.1807760E-04 ( -61.30%)
   displ. norm   :     0.1940056 α      lambda       -0.5915899E-04
   maximum displ.:     0.1344446 α      in ANC's #1, #2, #3, ...

........................................................................
.............................. CYCLE   14 ..............................
........................................................................

 iter      E             dE          RMSdq      gap      omega  full diag
   1    -55.7809474 -0.557809E+02  0.447E-02    3.69       0.0  T
   2    -55.7809480 -0.556981E-06  0.264E-02    3.69       1.0  T
   3    -55.7809481 -0.104577E-06  0.281E-03    3.69       6.6  T
   4    -55.7809481 -0.863410E-07  0.144E-03    3.69      12.9  T
   5    -55.7809482 -0.519378E-08  0.537E-04    3.69      34.6  T
   6    -55.7809482 -0.342665E-08  0.156E-04    3.69     118.8  T
     SCC iter.                  ...        0 min,  0.007 sec
     gradient                   ...        0 min,  0.012 sec
 * total energy  :   -55.2790517 Eh     change       -0.5235834E-04 Eh
   gradient norm :     0.0019795 Eh/α   predicted    -0.3069670E-04 ( -41.37%)
   displ. norm   :     0.5508998 α      lambda       -0.9965073E-04
   maximum displ.:     0.3820349 α      in ANC's #1, #2, #3, ...

........................................................................
.............................. CYCLE   15 ..............................
........................................................................

 iter      E             dE          RMSdq      gap      omega  full diag
   1    -55.7793516 -0.557794E+02  0.130E-01    3.68       0.0  T
   2    -55.7793568 -0.513723E-05  0.767E-02    3.68       1.0  T
   3    -55.7793573 -0.494423E-06  0.924E-03    3.68       2.0  T
   4    -55.7793585 -0.120838E-05  0.438E-03    3.68       4.2  T
   5    -55.7793585 -0.612878E-07  0.176E-03    3.68      10.6  T
   6    -55.7793586 -0.289484E-07  0.457E-04    3.68      40.7  T
   7    -55.7793586 -0.892150E-09  0.230E-04    3.68      80.6  T
     SCC iter.                  ...        0 min,  0.008 sec
     gradient                   ...        0 min,  0.012 sec
 * total energy  :   -55.2791510 Eh     change       -0.9929102E-04 Eh
   gradient norm :     0.0037781 Eh/α   predicted    -0.5654907E-04 ( -43.05%)
   displ. norm   :     0.1877346 α      lambda       -0.5062646E-04
   maximum displ.:     0.1353813 α      in ANC's #1, #2, #3, ...

........................................................................
.............................. CYCLE   16 ..............................
........................................................................

 iter      E             dE          RMSdq      gap      omega  full diag
   1    -55.7800573 -0.557801E+02  0.470E-02    3.68       0.0  T
   2    -55.7800579 -0.569548E-06  0.275E-02    3.68       1.0  T
   3    -55.7800580 -0.507052E-07  0.328E-03    3.68       5.7  T
   4    -55.7800581 -0.159802E-06  0.151E-03    3.68      12.3  T
   5    -55.7800581 -0.474346E-08  0.513E-04    3.68      36.2  T
   6    -55.7800581 -0.267411E-08  0.152E-04    3.68     122.4  T
     SCC iter.                  ...        0 min,  0.007 sec
     gradient                   ...        0 min,  0.012 sec
 * total energy  :   -55.2791956 Eh     change       -0.4458123E-04 Eh
   gradient norm :     0.0030522 Eh/α   predicted    -0.2620642E-04 ( -41.22%)
   displ. norm   :     0.4159939 α      lambda       -0.1234553E-03
   maximum displ.:     0.3059409 α      in ANC's #1, #2, #3, ...

........................................................................
.............................. CYCLE   17 ..............................
........................................................................

 iter      E             dE          RMSdq      gap      omega  full diag
   1    -55.7807320 -0.557807E+02  0.108E-01    3.69       0.0  T
   2    -55.7807351 -0.309908E-05  0.630E-02    3.68       1.0  T
   3    -55.7807356 -0.463488E-06  0.698E-03    3.69       2.7  T
   4    -55.7807362 -0.612231E-06  0.337E-03    3.68       5.5  T
   5    -55.7807362 -0.273955E-07  0.130E-03    3.68      14.3  T
   6    -55.7807363 -0.156866E-07  0.365E-04    3.68      50.9  T
   7    -55.7807363 -0.477137E-09  0.170E-04    3.68     109.1  T
     SCC iter.                  ...        0 min,  0.008 sec
     gradient                   ...        0 min,  0.012 sec
 * total energy  :   -55.2793024 Eh     change       -0.1068421E-03 Eh
   gradient norm :     0.0030937 Eh/α   predicted    -0.7241113E-04 ( -32.23%)
   displ. norm   :     0.4433003 α      lambda       -0.1511475E-03
   maximum displ.:     0.3313592 α      in ANC's #1, #2, #3, ...

........................................................................
.............................. CYCLE   18 ..............................
........................................................................

 iter      E             dE          RMSdq      gap      omega  full diag
   1    -55.7811990 -0.557812E+02  0.124E-01    3.69       0.0  T
   2    -55.7812028 -0.378081E-05  0.721E-02    3.69       1.0  T
   3    -55.7812038 -0.969356E-06  0.685E-03    3.69       2.7  T
   4    -55.7812042 -0.406469E-06  0.364E-03    3.69       5.1  T
   5    -55.7812042 -0.316448E-07  0.122E-03    3.69      15.2  T
   6    -55.7812042 -0.173997E-07  0.414E-04    3.69      44.8  T
   7    -55.7812042 -0.716632E-09  0.177E-04    3.69     105.0  T
     SCC iter.                  ...        0 min,  0.008 sec
     gradient                   ...        0 min,  0.012 sec
 * total energy  :   -55.2794366 Eh     change       -0.1341478E-03 Eh
   gradient norm :     0.0042836 Eh/α   predicted    -0.9042773E-04 ( -32.59%)
   displ. norm   :     0.5453157 α      lambda       -0.2007296E-03
   maximum displ.:     0.4108863 α      in ANC's #1, #3, #2, ...

........................................................................
.............................. CYCLE   19 ..............................
........................................................................

 iter      E             dE          RMSdq      gap      omega  full diag
   1    -55.7806335 -0.557806E+02  0.156E-01    3.69       0.0  T
   2    -55.7806391 -0.561475E-05  0.910E-02    3.69       1.0  T
   3    -55.7806410 -0.189640E-05  0.753E-03    3.69       2.5  T
   4    -55.7806413 -0.244393E-06  0.412E-03    3.69       4.5  T
   5    -55.7806413 -0.326191E-07  0.117E-03    3.69      15.8  T
   6    -55.7806413 -0.185098E-07  0.511E-04    3.69      36.4  T
   7    -55.7806413 -0.157480E-08  0.230E-04    3.69      80.9  T
     SCC iter.                  ...        0 min,  0.008 sec
     gradient                   ...        0 min,  0.012 sec
 * total energy  :   -55.2796076 Eh     change       -0.1709696E-03 Eh
   gradient norm :     0.0067241 Eh/α   predicted    -0.1302120E-03 ( -23.84%)
   displ. norm   :     0.5367373 α      lambda       -0.2352975E-03
   maximum displ.:     0.4077588 α      in ANC's #1, #3, #5, ...

........................................................................
.............................. CYCLE   20 ..............................
........................................................................

 iter      E             dE          RMSdq      gap      omega  full diag
   1    -55.7810666 -0.557811E+02  0.158E-01    3.69       0.0  T
   2    -55.7810720 -0.544011E-05  0.917E-02    3.69       1.0  T
   3    -55.7810736 -0.152273E-05  0.822E-03    3.69       2.3  T
   4    -55.7810742 -0.591504E-06  0.461E-03    3.69       4.0  T
   5    -55.7810743 -0.927362E-07  0.141E-03    3.69      13.2  T
   6    -55.7810743 -0.195656E-07  0.524E-04    3.69      35.4  T
   7    -55.7810743 -0.919663E-09  0.215E-04    3.69      86.4  T
     SCC iter.                  ...        0 min,  0.008 sec
     gradient                   ...        0 min,  0.012 sec
 * total energy  :   -55.2797941 Eh     change       -0.1865291E-03 Eh
   gradient norm :     0.0069028 Eh/α   predicted    -0.1515450E-03 ( -18.76%)
   displ. norm   :     0.5221653 α      lambda       -0.2247656E-03
   maximum displ.:     0.4089065 α      in ANC's #1, #3, #5, ...
 * RMSD in coord.:     0.8619909 α      energy gain  -0.1262633E-01 Eh

generating ANC from exact Hessian ...
Using Lindh-Hessian (1995)
 Shifting diagonal of input Hessian by    9.1939063274389284E-003
 Lowest  eigenvalues of input Hessian
    0.000000    0.000000    0.000000    0.000000    0.000000    0.000000
    0.010000    0.010602    0.011774    0.013095    0.014003    0.014784
    0.018496    0.018954    0.020354    0.022358    0.029424    0.029855
 Highest eigenvalues
    1.803528    1.874206    2.015715    2.156581    2.193071    2.449953


........................................................................
.............................. CYCLE   21 ..............................
........................................................................

 iter      E             dE          RMSdq      gap      omega  full diag
   1    -55.7797621 -0.557798E+02  0.151E-01    3.70       0.0  T
   2    -55.7797677 -0.558332E-05  0.880E-02    3.69       1.0  T
   3    -55.7797681 -0.475983E-06  0.101E-02    3.69       1.8  T
   4    -55.7797698 -0.168340E-05  0.481E-03    3.69       3.9  T
   5    -55.7797699 -0.775001E-07  0.152E-03    3.69      12.2  T
   6    -55.7797699 -0.177489E-07  0.549E-04    3.69      33.8  T
   7    -55.7797699 -0.115123E-08  0.252E-04    3.69      73.6  T
     SCC iter.                  ...        0 min,  0.008 sec
     gradient                   ...        0 min,  0.012 sec
 * total energy  :   -55.2799722 Eh     change       -0.1780768E-03 Eh
   gradient norm :     0.0068184 Eh/α   predicted     0.0000000E+00 (-100.00%)
   displ. norm   :     0.0473426 α      lambda       -0.8992738E-04
   maximum displ.:     0.0304002 α      in ANC's #1, #3, #12, ...

........................................................................
.............................. CYCLE   22 ..............................
........................................................................

 iter      E             dE          RMSdq      gap      omega  full diag
   1    -55.7818113 -0.557818E+02  0.231E-02    3.70       0.0  T
   2    -55.7818127 -0.137477E-05  0.132E-02    3.70       1.4  T
   3    -55.7818127  0.868877E-08  0.516E-03    3.70       3.6  T
   4    -55.7818128 -0.132490E-06  0.109E-03    3.70      17.1  T
   5    -55.7818128 -0.225043E-07  0.448E-04    3.70      41.5  T
   6    -55.7818128 -0.674156E-09  0.175E-04    3.70     106.0  T
     SCC iter.                  ...        0 min,  0.007 sec
     gradient                   ...        0 min,  0.012 sec
 * total energy  :   -55.2800492 Eh     change       -0.7698772E-04 Eh
   gradient norm :     0.0033294 Eh/α   predicted    -0.5157529E-04 ( -33.01%)
   displ. norm   :     0.0903441 α      lambda       -0.8739911E-04
   maximum displ.:     0.0635092 α      in ANC's #1, #3, #4, ...

........................................................................
.............................. CYCLE   23 ..............................
........................................................................

 iter      E             dE          RMSdq      gap      omega  full diag
   1    -55.7833359 -0.557833E+02  0.357E-02    3.70       0.0  T
   2    -55.7833378 -0.186091E-05  0.205E-02    3.70       1.0  T
   3    -55.7833375  0.234864E-06  0.695E-03    3.70       2.7  T
   4    -55.7833380 -0.487335E-06  0.162E-03    3.70      11.4  T
   5    -55.7833381 -0.415573E-07  0.659E-04    3.70      28.2  T
   6    -55.7833381 -0.970729E-09  0.247E-04    3.70      75.2  T
     SCC iter.                  ...        0 min,  0.007 sec
     gradient                   ...        0 min,  0.012 sec
 * total energy  :   -55.2801080 Eh     change       -0.5879542E-04 Eh
   gradient norm :     0.0020863 Eh/α   predicted    -0.4405783E-04 ( -25.07%)
   displ. norm   :     0.0918829 α      lambda       -0.4329849E-04
   maximum displ.:     0.0660828 α      in ANC's #1, #3, #4, ...

........................................................................
.............................. CYCLE   24 ..............................
........................................................................

 iter      E             dE          RMSdq      gap      omega  full diag
   1    -55.7833801 -0.557834E+02  0.346E-02    3.70       0.0  T
   2    -55.7833807 -0.618532E-06  0.201E-02    3.70       1.0  T
   3    -55.7833805  0.183461E-06  0.431E-03    3.70       4.3  T
   4    -55.7833809 -0.342062E-06  0.121E-03    3.70      15.3  T
   5    -55.7833809 -0.103015E-07  0.557E-04    3.70      33.3  T
   6    -55.7833809 -0.999442E-09  0.174E-04    3.70     106.6  T
     SCC iter.                  ...        0 min,  0.007 sec
     gradient                   ...        0 min,  0.013 sec
 * total energy  :   -55.2801438 Eh     change       -0.3582300E-04 Eh
   gradient norm :     0.0025511 Eh/α   predicted    -0.2204397E-04 ( -38.46%)
   displ. norm   :     0.1449453 α      lambda       -0.5949205E-04
   maximum displ.:     0.0987784 α      in ANC's #1, #3, #4, ...

........................................................................
.............................. CYCLE   25 ..............................
........................................................................

 iter      E             dE          RMSdq      gap      omega  full diag
   1    -55.7826531 -0.557827E+02  0.554E-02    3.70       0.0  T
   2    -55.7826540 -0.941739E-06  0.324E-02    3.70       1.0  T
   3    -55.7826540  0.250417E-07  0.435E-03    3.70       4.3  T
   4    -55.7826543 -0.326333E-06  0.174E-03    3.69      10.6  T
   5    -55.7826544 -0.113790E-07  0.721E-04    3.70      25.7  T
   6    -55.7826544 -0.358989E-08  0.219E-04    3.70      84.6  T
     SCC iter.                  ...        0 min,  0.007 sec
     gradient                   ...        0 min,  0.012 sec
 * total energy  :   -55.2801934 Eh     change       -0.4966068E-04 Eh
   gradient norm :     0.0030220 Eh/α   predicted    -0.3037176E-04 ( -38.84%)
   displ. norm   :     0.1708822 α      lambda       -0.6273633E-04
   maximum displ.:     0.1160586 α      in ANC's #1, #3, #4, ...

........................................................................
.............................. CYCLE   26 ..............................
........................................................................

 iter      E             dE          RMSdq      gap      omega  full diag
   1    -55.7816734 -0.557817E+02  0.642E-02    3.69       0.0  T
   2    -55.7816745 -0.113150E-05  0.376E-02    3.69       1.0  T
   3    -55.7816747 -0.226622E-06  0.352E-03    3.69       5.3  T
   4    -55.7816748 -0.126480E-06  0.178E-03    3.69      10.4  T
   5    -55.7816748 -0.685007E-08  0.774E-04    3.69      24.0  T
   6    -55.7816749 -0.560996E-08  0.232E-04    3.69      79.9  T
     SCC iter.                  ...        0 min,  0.007 sec
     gradient                   ...        0 min,  0.012 sec
 * total energy  :   -55.2802458 Eh     change       -0.5237720E-04 Eh
   gradient norm :     0.0036803 Eh/α   predicted    -0.3228501E-04 ( -38.36%)
   displ. norm   :     0.1738813 α      lambda       -0.6208660E-04
   maximum displ.:     0.1200633 α      in ANC's #1, #3, #4, ...

........................................................................
.............................. CYCLE   27 ..............................
........................................................................

 iter      E             dE          RMSdq      gap      omega  full diag
   1    -55.7810605 -0.557811E+02  0.630E-02    3.69       0.0  T
   2    -55.7810616 -0.104687E-05  0.369E-02    3.69       1.0  T
   3    -55.7810617 -0.849140E-07  0.407E-03    3.69       4.6  T
   4    -55.7810619 -0.250013E-06  0.188E-03    3.69       9.9  T
   5    -55.7810619 -0.195069E-07  0.970E-04    3.69      19.1  T
   6    -55.7810620 -0.494097E-08  0.223E-04    3.69      83.4  T
     SCC iter.                  ...        0 min,  0.007 sec
     gradient                   ...        0 min,  0.012 sec
 * total energy  :   -55.2802982 Eh     change       -0.5235047E-04 Eh
   gradient norm :     0.0039706 Eh/α   predicted    -0.3198713E-04 ( -38.90%)
   displ. norm   :     0.2013951 α      lambda       -0.7312245E-04
   maximum displ.:     0.1419886 α      in ANC's #1, #3, #4, ...

........................................................................
.............................. CYCLE   28 ..............................
........................................................................

 iter      E             dE          RMSdq      gap      omega  full diag
   1    -55.7808940 -0.557809E+02  0.706E-02    3.69       0.0  T
   2    -55.7808952 -0.122039E-05  0.414E-02    3.69       1.0  T
   3    -55.7808950  0.176007E-06  0.564E-03    3.69       3.3  T
   4    -55.7808957 -0.633053E-06  0.212E-03    3.69       8.8  T
   5    -55.7808957 -0.176166E-07  0.102E-03    3.69      18.3  T
   6    -55.7808957 -0.388678E-08  0.243E-04    3.69      76.4  T
   7    -55.7808957 -0.327418E-09  0.126E-04    3.69     147.3  T
     SCC iter.                  ...        0 min,  0.008 sec
     gradient                   ...        0 min,  0.012 sec
 * total energy  :   -55.2803585 Eh     change       -0.6029550E-04 Eh
   gradient norm :     0.0040254 Eh/α   predicted    -0.3804473E-04 ( -36.90%)
   displ. norm   :     0.2217329 α      lambda       -0.7884584E-04
   maximum displ.:     0.1621314 α      in ANC's #1, #3, #4, ...

........................................................................
.............................. CYCLE   29 ..............................
........................................................................

 iter      E             dE          RMSdq      gap      omega  full diag
   1    -55.7812498 -0.557812E+02  0.745E-02    3.69       0.0  T
   2    -55.7812509 -0.112324E-05  0.437E-02    3.69       1.0  T
   3    -55.7812507  0.191547E-06  0.584E-03    3.70       3.2  T
   4    -55.7812514 -0.692318E-06  0.216E-03    3.70       8.6  T
   5    -55.7812514 -0.960790E-08  0.770E-04    3.70      24.1  T
   6    -55.7812514 -0.365031E-08  0.244E-04    3.70      76.0  T
     SCC iter.                  ...        0 min,  0.007 sec
     gradient                   ...        0 min,  0.012 sec
 * total energy  :   -55.2804231 Eh     change       -0.6459093E-04 Eh
   gradient norm :     0.0040043 Eh/α   predicted    -0.4136457E-04 ( -35.96%)
   displ. norm   :     0.2424996 α      lambda       -0.8217912E-04
   maximum displ.:     0.1841603 α      in ANC's #1, #3, #4, ...

........................................................................
.............................. CYCLE   30 ..............................
........................................................................

 iter      E             dE          RMSdq      gap      omega  full diag
   1    -55.7818812 -0.557819E+02  0.785E-02    3.70       0.0  T
   2    -55.7818822 -0.106837E-05  0.460E-02    3.70       1.0  T
   3    -55.7818824 -0.153626E-06  0.463E-03    3.70       4.0  T
   4    -55.7818827 -0.332772E-06  0.218E-03    3.70       8.5  T
   5    -55.7818827 -0.147702E-07  0.562E-04    3.70      33.0  T
   6    -55.7818827 -0.225325E-08  0.241E-04    3.70      77.2  T
     SCC iter.                  ...        0 min,  0.007 sec
     gradient                   ...        0 min,  0.012 sec
 * total energy  :   -55.2804915 Eh     change       -0.6846043E-04 Eh
   gradient norm :     0.0040081 Eh/α   predicted    -0.4350803E-04 ( -36.45%)
   displ. norm   :     0.2810802 α      lambda       -0.8907530E-04
   maximum displ.:     0.2199149 α      in ANC's #1, #3, #4, ...

........................................................................
.............................. CYCLE   31 ..............................
........................................................................

 iter      E             dE          RMSdq      gap      omega  full diag
   1    -55.7823782 -0.557824E+02  0.885E-02    3.70       0.0  T
   2    -55.7823795 -0.136368E-05  0.517E-02    3.70       1.0  T
   3    -55.7823801 -0.510829E-06  0.369E-03    3.70       5.0  T
   4    -55.7823801 -0.559669E-07  0.207E-03    3.70       9.0  T
   5    -55.7823801 -0.177921E-07  0.729E-04    3.70      25.5  T
   6    -55.7823801 -0.812769E-08  0.266E-04    3.70      69.8  T
     SCC iter.                  ...        0 min,  0.007 sec
     gradient                   ...        0 min,  0.012 sec
 * total energy  :   -55.2805664 Eh     change       -0.7493490E-04 Eh
   gradient norm :     0.0037343 Eh/α   predicted    -0.4805733E-04 ( -35.87%)
   displ. norm   :     0.3199630 α      lambda       -0.9284912E-04
   maximum displ.:     0.2584911 α      in ANC's #1, #3, #4, ...

........................................................................
.............................. CYCLE   32 ..............................
........................................................................

 iter      E             dE          RMSdq      gap      omega  full diag
   1    -55.7826046 -0.557826E+02  0.976E-02    3.70       0.0  T
   2    -55.7826065 -0.187728E-05  0.570E-02    3.70       1.0  T
   3    -55.7826069 -0.398098E-06  0.516E-03    3.70       3.6  T
   4    -55.7826072 -0.348262E-06  0.268E-03    3.70       6.9  T
   5    -55.7826073 -0.281422E-07  0.939E-04    3.70      19.8  T
   6    -55.7826073 -0.633330E-08  0.305E-04    3.70      60.8  T
     SCC iter.                  ...        0 min,  0.007 sec
     gradient                   ...        0 min,  0.012 sec
 * total energy  :   -55.2806440 Eh     change       -0.7760034E-04 Eh
   gradient norm :     0.0029597 Eh/α   predicted    -0.5118156E-04 ( -34.04%)
   displ. norm   :     0.3412818 α      lambda       -0.8627889E-04
   maximum displ.:     0.2839024 α      in ANC's #1, #3, #4, ...

........................................................................
.............................. CYCLE   33 ..............................
........................................................................

 iter      E             dE          RMSdq      gap      omega  full diag
   1    -55.7825763 -0.557826E+02  0.101E-01    3.70       0.0  T
   2    -55.7825785 -0.219114E-05  0.587E-02    3.70       1.0  T
   3    -55.7825786 -0.760967E-07  0.672E-03    3.70       2.8  T
   4    -55.7825794 -0.814750E-06  0.294E-03    3.70       6.3  T
   5    -55.7825795 -0.284507E-07  0.977E-04    3.70      19.0  T
   6    -55.7825795 -0.610337E-08  0.335E-04    3.70      55.5  T
     SCC iter.                  ...        0 min,  0.007 sec
     gradient                   ...        0 min,  0.012 sec
 * total energy  :   -55.2807156 Eh     change       -0.7153261E-04 Eh
   gradient norm :     0.0023899 Eh/α   predicted    -0.4816454E-04 ( -32.67%)
   displ. norm   :     0.3443770 α      lambda       -0.8010559E-04
   maximum displ.:     0.2966362 α      in ANC's #1, #3, #4, ...

........................................................................
.............................. CYCLE   34 ..............................
........................................................................

 iter      E             dE          RMSdq      gap      omega  full diag
   1    -55.7830640 -0.557831E+02  0.953E-02    3.71       0.0  T
   2    -55.7830663 -0.227461E-05  0.556E-02    3.71       1.0  T
   3    -55.7830660  0.250821E-06  0.759E-03    3.71       2.4  T
   4    -55.7830672 -0.116802E-05  0.291E-03    3.71       6.4  T
   5    -55.7830672 -0.250421E-07  0.996E-04    3.71      18.6  T
   6    -55.7830672 -0.607982E-08  0.329E-04    3.71      56.4  T
     SCC iter.                  ...        0 min,  0.007 sec
     gradient                   ...        0 min,  0.012 sec
 * total energy  :   -55.2807808 Eh     change       -0.6518745E-04 Eh
   gradient norm :     0.0023637 Eh/α   predicted    -0.4480420E-04 ( -31.27%)
   displ. norm   :     0.5388047 α      lambda       -0.1000006E-03
   maximum displ.:     0.4505575 α      in ANC's #1, #3, #4, ...

........................................................................
.............................. CYCLE   35 ..............................
........................................................................

 iter      E             dE          RMSdq      gap      omega  full diag
   1    -55.7784068 -0.557784E+02  0.162E-01    3.70       0.0  T
   2    -55.7784183 -0.114586E-04  0.956E-02    3.69       1.0  T
   3    -55.7784191 -0.763349E-06  0.114E-02    3.68       1.6  T
   4    -55.7784209 -0.181631E-05  0.459E-03    3.68       4.0  T
   5    -55.7784209 -0.508322E-07  0.220E-03    3.68       8.5  T
   6    -55.7784210 -0.252107E-07  0.695E-04    3.68      26.7  T
   7    -55.7784210 -0.407194E-08  0.312E-04    3.68      59.5  T
     SCC iter.                  ...        0 min,  0.008 sec
     gradient                   ...        0 min,  0.012 sec
 * total energy  :   -55.2807774 Eh     change        0.3415479E-05 Eh
   gradient norm :     0.0114613 Eh/α   predicted    -0.6452234E-04 (*******%)
   displ. norm   :     0.0859441 α      lambda       -0.2059598E-03
   maximum displ.:     0.0663582 α      in ANC's #1, #2, #3, ...

........................................................................
.............................. CYCLE   36 ..............................
........................................................................

 iter      E             dE          RMSdq      gap      omega  full diag
   1    -55.7834661 -0.557835E+02  0.349E-02    3.70       0.0  T
   2    -55.7834726 -0.649787E-05  0.210E-02    3.71       1.0  T
   3    -55.7834729 -0.362483E-06  0.102E-02    3.71       1.8  T
   4    -55.7834732 -0.264255E-06  0.183E-03    3.71      10.1  T
   5    -55.7834733 -0.582406E-07  0.870E-04    3.71      21.3  T
   6    -55.7834733 -0.435098E-08  0.388E-04    3.71      47.9  T
     SCC iter.                  ...        0 min,  0.007 sec
     gradient                   ...        0 min,  0.012 sec
 * total energy  :   -55.2808840 Eh     change       -0.1066553E-03 Eh
   gradient norm :     0.0030006 Eh/α   predicted    -0.1037429E-03 (  -2.73%)
   displ. norm   :     0.3421095 α      lambda       -0.5508602E-04
   maximum displ.:     0.2999786 α      in ANC's #1, #3, #4, ...

........................................................................
.............................. CYCLE   37 ..............................
........................................................................

 iter      E             dE          RMSdq      gap      omega  full diag
   1    -55.7828062 -0.557828E+02  0.884E-02    3.71       0.0  T
   2    -55.7828086 -0.234958E-05  0.518E-02    3.71       1.0  T
   3    -55.7828087 -0.888295E-07  0.618E-03    3.71       3.0  T
   4    -55.7828094 -0.710787E-06  0.284E-03    3.71       6.5  T
   5    -55.7828094 -0.435778E-07  0.121E-03    3.71      15.4  T
   6    -55.7828094 -0.631820E-08  0.322E-04    3.71      57.7  T
   7    -55.7828094 -0.407525E-09  0.157E-04    3.71     118.1  T
     SCC iter.                  ...        0 min,  0.008 sec
     gradient                   ...        0 min,  0.012 sec
 * total energy  :   -55.2809302 Eh     change       -0.4614345E-04 Eh
   gradient norm :     0.0030476 Eh/α   predicted    -0.3076675E-04 ( -33.32%)
   displ. norm   :     0.4900737 α      lambda       -0.7925105E-04
   maximum displ.:     0.4264760 α      in ANC's #1, #3, #2, ...

........................................................................
.............................. CYCLE   38 ..............................
........................................................................

 iter      E             dE          RMSdq      gap      omega  full diag
   1    -55.7815375 -0.557815E+02  0.126E-01    3.71       0.0  T
   2    -55.7815442 -0.677491E-05  0.738E-02    3.70       1.0  T
   3    -55.7815446 -0.390435E-06  0.917E-03    3.70       2.0  T
   4    -55.7815459 -0.126041E-05  0.401E-03    3.70       4.6  T
   5    -55.7815460 -0.911344E-07  0.202E-03    3.70       9.2  T
   6    -55.7815460 -0.240021E-07  0.559E-04    3.70      33.2  T
   7    -55.7815460 -0.205316E-08  0.242E-04    3.70      76.8  T
     SCC iter.                  ...        0 min,  0.008 sec
     gradient                   ...        0 min,  0.012 sec
 * total energy  :   -55.2809722 Eh     change       -0.4205338E-04 Eh
   gradient norm :     0.0053649 Eh/α   predicted    -0.4914198E-04 (  16.86%)
   displ. norm   :     0.0823850 α      lambda       -0.5193280E-04
   maximum displ.:     0.0522203 α      in ANC's #2, #1, #5, ...

........................................................................
.............................. CYCLE   39 ..............................
........................................................................

 iter      E             dE          RMSdq      gap      omega  full diag
   1    -55.7837489 -0.557837E+02  0.231E-02    3.71       0.0  T
   2    -55.7837499 -0.100227E-05  0.138E-02    3.71       1.3  T
   3    -55.7837499  0.546354E-07  0.441E-03    3.71       4.2  T
   4    -55.7837500 -0.187609E-06  0.894E-04    3.71      20.8  T
   5    -55.7837500 -0.927264E-08  0.484E-04    3.71      38.4  T
     SCC iter.                  ...        0 min,  0.006 sec
     gradient                   ...        0 min,  0.012 sec
 * total energy  :   -55.2810036 Eh     change       -0.3135228E-04 Eh
   gradient norm :     0.0019459 Eh/α   predicted    -0.2614703E-04 ( -16.60%)
   displ. norm   :     0.3918809 α      lambda       -0.3149450E-04
   maximum displ.:     0.3329509 α      in ANC's #1, #2, #3, ...

........................................................................
.............................. CYCLE   40 ..............................
........................................................................

 iter      E             dE          RMSdq      gap      omega  full diag
   1    -55.7825002 -0.557825E+02  0.983E-02    3.71       0.0  T
   2    -55.7825059 -0.568207E-05  0.572E-02    3.71       1.0  T
   3    -55.7825061 -0.177932E-06  0.914E-03    3.71       2.0  T
   4    -55.7825071 -0.105835E-05  0.346E-03    3.71       5.4  T
   5    -55.7825072 -0.501929E-07  0.175E-03    3.71      10.6  T
   6    -55.7825072 -0.166936E-07  0.440E-04    3.71      42.2  T
   7    -55.7825072 -0.115977E-08  0.202E-04    3.71      92.0  T
     SCC iter.                  ...        0 min,  0.008 sec
     gradient                   ...        0 min,  0.012 sec
 * total energy  :   -55.2810131 Eh     change       -0.9530583E-05 Eh
   gradient norm :     0.0054985 Eh/α   predicted    -0.1682510E-04 (  76.54%)
   displ. norm   :     0.0964580 α      lambda       -0.4734891E-04
   maximum displ.:     0.0695113 α      in ANC's #1, #2, #10, ...

........................................................................
.............................. CYCLE   41 ..............................
........................................................................

 iter      E             dE          RMSdq      gap      omega  full diag
   1    -55.7836387 -0.557836E+02  0.284E-02    3.72       0.0  T
   2    -55.7836409 -0.214026E-05  0.163E-02    3.71       1.1  T
   3    -55.7836409 -0.188087E-07  0.645E-03    3.71       2.9  T
   4    -55.7836410 -0.142199E-06  0.121E-03    3.71      15.4  T
   5    -55.7836411 -0.260924E-07  0.511E-04    3.71      36.3  T
   6    -55.7836411 -0.100940E-08  0.188E-04    3.71      98.9  T
     SCC iter.                  ...        0 min,  0.007 sec
     gradient                   ...        0 min,  0.012 sec
 * total energy  :   -55.2810370 Eh     change       -0.2390020E-04 Eh
   gradient norm :     0.0031749 Eh/α   predicted    -0.2389828E-04 (  -0.01%)
   displ. norm   :     0.0454114 α      lambda       -0.2857544E-04
   maximum displ.:     0.0297048 α      in ANC's #1, #2, #4, ...

........................................................................
.............................. CYCLE   42 ..............................
........................................................................

 iter      E             dE          RMSdq      gap      omega  full diag
   1    -55.7844862 -0.557845E+02  0.150E-02    3.71       0.0  T
   2    -55.7844864 -0.184626E-06  0.882E-03    3.71       2.1  T
   3    -55.7844863  0.739570E-08  0.200E-03    3.71       9.3  T
   4    -55.7844864 -0.518153E-07  0.599E-04    3.71      31.0  T
   5    -55.7844864 -0.946024E-09  0.312E-04    3.71      59.6  T
     SCC iter.                  ...        0 min,  0.006 sec
     gradient                   ...        0 min,  0.012 sec
 * total energy  :   -55.2810520 Eh     change       -0.1499428E-04 Eh
   gradient norm :     0.0027015 Eh/α   predicted    -0.1431791E-04 (  -4.51%)
   displ. norm   :     0.0739210 α      lambda       -0.1659232E-04
   maximum displ.:     0.0530077 α      in ANC's #1, #2, #3, ...
 * RMSD in coord.:     0.8354670 α      energy gain  -0.1257887E-02 Eh

generating ANC from exact Hessian ...
Using Lindh-Hessian (1995)
 Shifting diagonal of input Hessian by    9.1556779087185614E-003
 Lowest  eigenvalues of input Hessian
    0.000000    0.000000    0.000000    0.000000    0.000000    0.000000
    0.010000    0.010536    0.011895    0.013182    0.013810    0.015136
    0.018771    0.019422    0.020548    0.021573    0.028780    0.029628
 Highest eigenvalues
    1.810017    1.877838    2.018394    2.164080    2.199937    2.454455


........................................................................
.............................. CYCLE   43 ..............................
........................................................................

 iter      E             dE          RMSdq      gap      omega  full diag
   1    -55.7839659 -0.557840E+02  0.208E-02    3.71       0.0  T
   2    -55.7839662 -0.218252E-06  0.120E-02    3.71       1.5  T
   3    -55.7839661  0.463588E-07  0.233E-03    3.71       8.0  T
   4    -55.7839662 -0.116846E-06  0.740E-04    3.71      25.1  T
   5    -55.7839662 -0.180134E-08  0.332E-04    3.71      55.9  T
     SCC iter.                  ...        0 min,  0.006 sec
     gradient                   ...        0 min,  0.012 sec
 * total energy  :   -55.2810630 Eh     change       -0.1103652E-04 Eh
   gradient norm :     0.0020527 Eh/α   predicted     0.0000000E+00 (-100.00%)
   displ. norm   :     0.0196493 α      lambda       -0.9890304E-05
   maximum displ.:     0.0111140 α      in ANC's #3, #9, #2, ...

........................................................................
.............................. CYCLE   44 ..............................
........................................................................

 iter      E             dE          RMSdq      gap      omega  full diag
   1    -55.7839009 -0.557839E+02  0.910E-03    3.71       0.0  T
   2    -55.7839009 -0.535138E-07  0.522E-03    3.71       3.6  T
   3    -55.7839009  0.156032E-07  0.117E-03    3.71      15.9  T
   4    -55.7839010 -0.319004E-07  0.309E-04    3.71      60.1  T
   5    -55.7839010 -0.448559E-09  0.144E-04    3.71     128.9  T
     SCC iter.                  ...        0 min,  0.006 sec
     gradient                   ...        0 min,  0.014 sec
 * total energy  :   -55.2810718 Eh     change       -0.8805629E-05 Eh
   gradient norm :     0.0007907 Eh/α   predicted    -0.5565114E-05 ( -36.80%)
   displ. norm   :     0.0886325 α      lambda       -0.1908798E-04
   maximum displ.:     0.0508782 α      in ANC's #3, #9, #2, ...

........................................................................
.............................. CYCLE   45 ..............................
........................................................................

 iter      E             dE          RMSdq      gap      omega  full diag
   1    -55.7836407 -0.557836E+02  0.365E-02    3.71       0.0  T
   2    -55.7836414 -0.751156E-06  0.208E-02    3.71       1.0  T
   3    -55.7836411  0.329437E-06  0.504E-03    3.71       3.7  T
   4    -55.7836417 -0.606631E-06  0.115E-03    3.71      16.2  T
   5    -55.7836417 -0.318170E-08  0.454E-04    3.71      40.9  T
   6    -55.7836417 -0.112644E-08  0.114E-04    3.71     163.2  T
     SCC iter.                  ...        0 min,  0.007 sec
     gradient                   ...        0 min,  0.012 sec
 * total energy  :   -55.2810873 Eh     change       -0.1547828E-04 Eh
   gradient norm :     0.0026570 Eh/α   predicted    -0.9578039E-05 ( -38.12%)
   displ. norm   :     0.0376607 α      lambda       -0.9113393E-05
   maximum displ.:     0.0237907 α      in ANC's #3, #2, #9, ...

........................................................................
.............................. CYCLE   46 ..............................
........................................................................

 iter      E             dE          RMSdq      gap      omega  full diag
   1    -55.7836641 -0.557837E+02  0.146E-02    3.71       0.0  T
   2    -55.7836642 -0.902579E-07  0.833E-03    3.71       2.2  T
   3    -55.7836642  0.218524E-07  0.158E-03    3.71      11.8  T
   4    -55.7836642 -0.573754E-07  0.445E-04    3.71      41.7  T
   5    -55.7836642 -0.424876E-09  0.111E-04    3.71     167.5  T
     SCC iter.                  ...        0 min,  0.006 sec
     gradient                   ...        0 min,  0.012 sec
 * total energy  :   -55.2810954 Eh     change       -0.8094648E-05 Eh
   gradient norm :     0.0021054 Eh/α   predicted    -0.4564106E-05 ( -43.62%)
   displ. norm   :     0.0982296 α      lambda       -0.2130293E-04
   maximum displ.:     0.0624169 α      in ANC's #3, #2, #9, ...

........................................................................
.............................. CYCLE   47 ..............................
........................................................................

 iter      E             dE          RMSdq      gap      omega  full diag
   1    -55.7837482 -0.557837E+02  0.381E-02    3.71       0.0  T
   2    -55.7837488 -0.631407E-06  0.218E-02    3.71       1.0  T
   3    -55.7837488  0.645563E-07  0.367E-03    3.71       5.1  T
   4    -55.7837491 -0.295908E-06  0.121E-03    3.71      15.4  T
   5    -55.7837491 -0.448914E-08  0.395E-04    3.71      47.0  T
   6    -55.7837491 -0.673921E-09  0.100E-04    3.71     185.0  T
     SCC iter.                  ...        0 min,  0.007 sec
     gradient                   ...        0 min,  0.012 sec
 * total energy  :   -55.2811096 Eh     change       -0.1419258E-04 Eh
   gradient norm :     0.0007577 Eh/α   predicted    -0.1075873E-04 ( -24.19%)
   displ. norm   :     0.0833519 α      lambda       -0.5579837E-05
   maximum displ.:     0.0578764 α      in ANC's #3, #2, #6, ...

........................................................................
.............................. CYCLE   48 ..............................
........................................................................

 iter      E             dE          RMSdq      gap      omega  full diag
   1    -55.7838076 -0.557838E+02  0.309E-02    3.71       0.0  T
   2    -55.7838080 -0.408709E-06  0.176E-02    3.71       1.1  T
   3    -55.7838080 -0.105370E-07  0.256E-03    3.71       7.2  T
   4    -55.7838082 -0.137564E-06  0.101E-03    3.71      18.5  T
   5    -55.7838082 -0.343221E-08  0.330E-04    3.71      56.3  T
   6    -55.7838082 -0.521091E-09  0.857E-05    3.71     216.6  T
     SCC iter.                  ...        0 min,  0.007 sec
     gradient                   ...        0 min,  0.012 sec
 * total energy  :   -55.2811145 Eh     change       -0.4878506E-05 Eh
   gradient norm :     0.0011595 Eh/α   predicted    -0.2800510E-05 ( -42.59%)
   displ. norm   :     0.0223597 α      lambda       -0.2329834E-05
   maximum displ.:     0.0182095 α      in ANC's #3, #6, #2, ...

........................................................................
.............................. CYCLE   49 ..............................
........................................................................

 iter      E             dE          RMSdq      gap      omega  full diag
   1    -55.7839400 -0.557839E+02  0.833E-03    3.71       0.0  T
   2    -55.7839401 -0.343867E-07  0.480E-03    3.71       3.9  T
   3    -55.7839401 -0.781853E-09  0.799E-04    3.71      23.2  T
   4    -55.7839401 -0.946257E-08  0.306E-04    3.71      60.7  T
     SCC iter.                  ...        0 min,  0.005 sec
     gradient                   ...        0 min,  0.012 sec
 * total energy  :   -55.2811172 Eh     change       -0.2736034E-05 Eh
   gradient norm :     0.0005822 Eh/α   predicted    -0.1165640E-05 ( -57.40%)
   displ. norm   :     0.0310658 α      lambda       -0.2330084E-05
   maximum displ.:     0.0247786 α      in ANC's #3, #1, #6, ...

   *** GEOMETRY OPTIMIZATION CONVERGED AFTER 49 ITERATIONS ***

------------------------------------------------------------------------
 total energy gain   :        -0.0139494 Eh       -8.7534 kcal/mol
 total RMSD          :         1.6123903 a0        0.8532 Å
 total power (kW/mol):        -0.7474337 (step)  -29.9444 (real)
------------------------------------------------------------------------

 ANCopt (total)                0 d,  0 h,  0 min,  1.223 sec
 optimizer setup                ...        0 min,  0.000 sec (  0.006%)
 model hessian                  ...        0 min,  0.036 sec (  2.934%)
 ANC generation                 ...        0 min,  0.002 sec (  0.185%)
 coordinate transformation      ...        0 min,  0.000 sec (  0.017%)
 single point calculation       ...        0 min,  1.173 sec ( 95.890%)
 optimization log               ...        0 min,  0.005 sec (  0.445%)
 hessian update                 ...        0 min,  0.000 sec (  0.033%)
 rational function              ...        0 min,  0.003 sec (  0.207%)

================
 final structure:
================
29
 xtb: 6.7.1 (edcfbbe)
O           -0.67538576245260        0.06628716047345        1.97336208958266
C           -2.04235586317145        0.21132180420971        1.66677117288218
C           -2.24543683570709        0.02422276879713        0.15895633593857
C           -1.54811671791082       -1.24335835889021       -0.39478183664898
C           -0.86353522662924       -0.73947959532510       -1.68146784749306
C           -0.62400911715257        0.73137920282434       -1.32725715199716
N            0.59880348630229        0.87169112352304       -0.56030851714589
C            1.00668359708556        1.94977246975901        0.13789982085109
N            2.11998266706156        1.68408867105753        0.76794134833136
C            2.37499009954030        0.39020822129023        0.43026635768129
C            3.56453776580777       -0.33735176473986        0.93400377536195
N            4.33754134721019        0.45661988296577        1.70878770634383
O            3.81532551261558       -1.49611414810288        0.69076657043499
N            1.46413478293977       -0.12109577996663       -0.36928883389147
O           -1.71964912912413        1.13428848945067       -0.56032342743406
O           -1.70462786560220       -0.81808011596304       -2.79442872746595
O           -2.44655823077965       -2.27435765146533       -0.72087226804554
H           -0.52778439097460        0.29337805287888        2.89705061377829
H           -2.64268477896931       -0.53846732213459        2.20332076263659
H           -2.40194193864969        1.21209014002402        1.93532667361793
H           -3.32207434225271       -0.01774708310625       -0.04976851064722
H           -0.77860079775245       -1.57885263440525        0.30759889325971
H            0.08293393840454       -1.26231441429546       -1.86401794280153
H           -0.58280890532460        1.37101022811281       -2.21598234697043
H            0.47212164642424        2.87639638670293        0.15671248198145
H            4.06197332408576        1.41154189763823        1.86430988375832
H            5.18231035591082        0.09064965997921        2.11269947918002
H           -2.28735175746402       -1.57772883112696       -2.65451304812282
H           -2.66821686346967       -2.76999846016816        0.07193649305188

 Bond Distances (Angstroems)
 ---------------------------
O1-C2=1.4084         O1-H18=0.9626        C2-O1=1.4084         C2-C3=1.5329         C2-H19=1.1002        C2-H20=1.0968        
C3-C2=1.5329         C3-C4=1.5491         C3-O15=1.4234        C3-H21=1.0975        C4-C3=1.5491         C4-C5=1.5421         
C4-O17=1.4059        C4-H22=1.0946        C5-C4=1.5421         C5-C6=1.5318         C5-O16=1.3972        C5-H23=1.0966        
C6-C5=1.5318         C6-N7=1.4502         C6-O15=1.3968        C6-H24=1.0957        N7-C6=1.4502         N7-C8=1.3476         
N7-N14=1.3308        C8-N7=1.3476         C8-N9=1.3065         C8-H25=1.0699        N9-C8=1.3065         N9-C10=1.3613        
C10-N9=1.3613        C10-C11=1.4826       C10-N14=1.3154       C11-C10=1.4826       C11-N12=1.3521       C11-O13=1.2103       
N12-C11=1.3521       N12-H26=1.0060       N12-H27=1.0053       O13-C11=1.2103       N14-N7=1.3308        N14-C10=1.3154       
O15-C3=1.4234        O15-C6=1.3968        O16-C5=1.3972        O16-H28=0.9676       O17-C4=1.4059        O17-H29=0.9609       
H18-O1=0.9626        H19-C2=1.1002        H20-C2=1.0968        H21-C3=1.0975        H22-C4=1.0946        H23-C5=1.0966        
H24-C6=1.0957        H25-C8=1.0699        H26-N12=1.0060       H27-N12=1.0053       H28-O16=0.9676       H29-O17=0.9609       
 C  H  Rav=1.0930 sigma=0.0096  Rmin=1.0699  Rmax=1.1002     7
 C  C  Rav=1.5277 sigma=0.0234  Rmin=1.4826  Rmax=1.5491     5
 N  H  Rav=1.0057 sigma=0.0003  Rmin=1.0053  Rmax=1.0060     2
 N  C  Rav=1.3555 sigma=0.0467  Rmin=1.3065  Rmax=1.4502     6
 N  N  Rav=1.3308 sigma=0.0000  Rmin=1.3308  Rmax=1.3308     1
 O  H  Rav=0.9637 sigma=0.0028  Rmin=0.9609  Rmax=0.9676     3
 O  C  Rav=1.3737 sigma=0.0736  Rmin=1.2103  Rmax=1.4234     6

 selected bond angles (degree)
 --------------------
H18-O1-C2=109.48               C3-C2-O1=109.28                H19-C2-O1=110.69               H19-C2-C3=108.92               
H20-C2-O1=111.03               H20-C2-C3=107.99               H20-C2-H19=108.88              C4-C3-C2=113.07                
O15-C3-C2=110.67               O15-C3-C4=106.93               H21-C3-C2=108.77               H21-C3-C4=110.02               
H21-C3-O15=107.22              C5-C4-C3=103.34                O17-C4-C3=113.29               O17-C4-C5=109.26               
H22-C4-C3=109.75               H22-C4-C5=108.87               H22-C4-O17=111.92              C6-C5-C4=100.97                
O16-C5-C4=112.27               O16-C5-C6=109.41               H23-C5-C4=111.49               H23-C5-C6=111.18               
H23-C5-O16=111.11              N7-C6-C5=110.31                O15-C6-C5=106.34               O15-C6-N7=110.07               
H24-C6-C5=112.26               H24-C6-N7=109.92               H24-C6-O15=107.85              C8-N7-C6=127.34                
N14-N7-C6=123.51               N14-N7-C8=109.00               N9-C8-N7=110.19                H25-C8-N7=123.42               
H25-C8-N9=126.40               C10-N9-C8=103.49               C11-C10-N9=122.17              N14-C10-N9=112.99              
N14-C10-C11=124.84             

 selected dihedral angles (degree)
 ---------------------------------
C3-C2-O1-H18=172.82           H19-C2-O1-H18=292.77          H20-C2-O1-H18= 53.81          C4-C3-C2-O1= 48.74            
C4-C3-C2-H19=287.71           C4-C3-C2-H20=169.62           O15-C3-C2-O1=288.81           O15-C3-C2-H19=167.78          
O15-C3-C2-H20= 49.69          H21-C3-C2-O1=171.27           H21-C3-C2-H19= 50.24          H21-C3-C2-H20=292.15          
C5-C4-C3-C2=225.13            C5-C4-C3-O15=347.18           C5-C4-C3-H21=103.30           O17-C4-C3-C2=107.02           
O17-C4-C3-O15=229.07          O17-C4-C3-H21=345.20          H22-C4-C3-C2=341.12           H22-C4-C3-O15=103.17          
H22-C4-C3-H21=219.30          C6-C5-C4-C3= 28.19            C6-C5-C4-O17=149.07           C6-C5-C4-H22=271.58           
O16-C5-C4-C3=271.76           O16-C5-C4-O17= 32.64          O16-C5-C4-H22=155.14          H23-C5-C4-C3=146.35           
H23-C5-C4-O17=267.23          H23-C5-C4-H22= 29.73          N7-C6-C5-C4= 83.68            N7-C6-C5-O16=202.21           
N7-C6-C5-H23=325.31           O15-C6-C5-C4=324.36           O15-C6-C5-O16= 82.89          O15-C6-C5-H23=205.98          
H24-C6-C5-C4=206.64           H24-C6-C5-O16=325.17          H24-C6-C5-H23= 88.27          C8-N7-C6-C5=193.57            
C8-N7-C6-O15=310.60           C8-N7-C6-H24= 69.25           N14-N7-C6-C5=  8.67           N14-N7-C6-O15=125.70          
N14-N7-C6-H24=244.35          N9-C8-N7-C6=176.18            N9-C8-N7-N14=  0.50           H25-C8-N7-C6=356.37           
H25-C8-N7-N14=180.69          C10-N9-C8-N7=359.72           C10-N9-C8-H25=179.53          C11-C10-N9-C8=180.14          
N14-C10-N9-C8=359.97          
           -------------------------------------------------
          |                Final Singlepoint                |
           -------------------------------------------------

          ...................................................
          :                      SETUP                      :
          :.................................................:
          :  # basis functions                  80          :
          :  # atomic orbitals                  80          :
          :  # shells                           46          :
          :  # electrons                        94          :
          :  max. iterations                   250          :
          :  Hamiltonian                  GFN2-xTB          :
          :  restarted?                      false          :
          :  GBSA solvation                  false          :
          :  PC potential                    false          :
          :  electronic temp.          300.0000000     K    :
          :  accuracy                    1.0000000          :
          :  -> integral cutoff          0.2500000E+02      :
          :  -> integral neglect         0.1000000E-07      :
          :  -> SCF convergence          0.1000000E-05 Eh   :
          :  -> wf. convergence          0.1000000E-03 e    :
          :  Broyden damping             0.4000000          :
          :  net charge                          0          :
          :  unpaired electrons                  0          :
          ...................................................

 iter      E             dE          RMSdq      gap      omega  full diag
   1    -55.7839401 -0.557839E+02  0.144E-04    3.71       0.0  T
   2    -55.7839401 -0.989218E-10  0.871E-05    3.71     213.1  T
   3    -55.7839401 -0.342979E-10  0.520E-05    3.71     357.4  T

   *** convergence criteria satisfied after 3 iterations ***

         #    Occupation            Energy/Eh            Energy/eV
      -------------------------------------------------------------
         1        2.0000           -0.7361221             -20.0309
       ...           ...                  ...                  ...
        41        2.0000           -0.4343275             -11.8187
        42        2.0000           -0.4285542             -11.6616
        43        2.0000           -0.4233920             -11.5211
        44        2.0000           -0.4148125             -11.2876
        45        2.0000           -0.4137994             -11.2601
        46        2.0000           -0.3985579             -10.8453
        47        2.0000           -0.3909091             -10.6372 (HOMO)
[...]
     |          Mulliken Center for Theoretical Chemistry        |     
     |                    University of Bonn                     |     
      -----------------------------------------------------------      

   * xtb version 6.7.1 (edcfbbe) compiled by 'conda@3ef47c1a292c' on 2024-11-25

   xtb is free software: you can redistribute it and/or modify it under
   the terms of the GNU Lesser General Public License as published by
   the Free Software Foundation, either version 3 of the License, or
   (at your option) any later version.
   
   xtb is distributed in the hope that it will be useful,
   but WITHOUT ANY WARRANTY; without even the implied warranty of
   MERCHANTABILITY or FITNESS FOR A PARTICULAR PURPOSE.  See the
   GNU Lesser General Public License for more details.
   
   Cite this work as:
   * C. Bannwarth, E. Caldeweyher, S. Ehlert, A. Hansen, P. Pracht,
     J. Seibert, S. Spicher, S. Grimme, WIREs Comput. Mol. Sci., 2020, 11,
     e01493. DOI: 10.1002/wcms.1493
   
   for GFN2-xTB:
   * C. Bannwarth, S. Ehlert and S. Grimme., J. Chem. Theory Comput., 2019,
     15, 1652-1671. DOI: 10.1021/acs.jctc.8b01176
   for GFN1-xTB:
   * S. Grimme, C. Bannwarth, P. Shushkov, J. Chem. Theory Comput., 2017,
     13, 1989-2009. DOI: 10.1021/acs.jctc.7b00118
   for GFN0-xTB:
   * P. Pracht, E. Caldeweyher, S. Ehlert, S. Grimme, ChemRxiv, 2019, preprint.
     DOI: 10.26434/chemrxiv.8326202.v1
   for GFN-FF:
   * S. Spicher and S. Grimme, Angew. Chem. Int. Ed., 2020, 59, 15665-15673.
     DOI: 10.1002/anie.202004239
   
   for ALPB and GBSA implicit solvation:
   * S. Ehlert, M. Stahn, S. Spicher, S. Grimme, J. Chem. Theory Comput.,
     2021, 17, 4250-4261. DOI: 10.1021/acs.jctc.1c00471
   
   for ddCOSMO and CPCM-X implicit solvation:
   * M. Stahn, S. Ehlert, S. Grimme, J. Phys. Chem. A,
     2023, XX, XXXX-XXXX. DOI: 10.1021/acs.jpca.3c04382
   
   for DFT-D4:
   * E. Caldeweyher, C. Bannwarth and S. Grimme, J. Chem. Phys., 2017,
     147, 034112. DOI: 10.1063/1.4993215
   * E. Caldeweyher, S. Ehlert, A. Hansen, H. Neugebauer, S. Spicher,
     C. Bannwarth and S. Grimme, J. Chem. Phys., 2019, 150, 154122.
     DOI: 10.1063/1.5090222
   * E. Caldeweyher, J.-M. Mewes, S. Ehlert and S. Grimme, Phys. Chem. Chem. Phys.
     2020, 22, 8499-8512. DOI: 10.1039/D0CP00502A
   
   for sTDA-xTB:
   * S. Grimme and C. Bannwarth, J. Chem. Phys., 2016, 145, 054103.
     DOI: 10.1063/1.4959605
   
   in the mass-spec context:
   * V. Asgeirsson, C. Bauer and S. Grimme, Chem. Sci., 2017, 8, 4879.
     DOI: 10.1039/c7sc00601b
   * J. Koopman and S. Grimme, ACS Omega 2019, 4, 12, 15120-15133.
     DOI: 10.1021/acsomega.9b02011
   
   for metadynamics refer to:
   * S. Grimme, J. Chem. Theory Comput., 2019, 155, 2847-2862
     DOI: 10.1021/acs.jctc.9b00143
   
   for SPH calculations refer to:
   * S. Spicher and S. Grimme, J. Chem. Theory Comput., 2021, 17, 1701-1714
     DOI: 10.1021/acs.jctc.0c01306
   
   for ONIOM refer to:
   * C. Plett, A. Katbashev, S. Ehlert, S. Grimme, M. Bursch,
     Phys. Chem. Chem. Phys., 2023, 25, 17860-17868. DOI: 10.1039/D3CP02178E
   
   for DIPRO refer to:
   * J. Kohn, N. Gildemeister, S. Grimme, D. Fazzi, A. Hansen,
     J. Chem. Phys., 2023, just accepted.
   
   for PTB refer to:
   * S. Grimme, M. Mueller, A. Hansen, J. Chem. Phys., 2023, 158, 124111.
     DOI: 10.1063/5.0137838
   
   with help from (in alphabetical order)
   P. Atkinson, C. Bannwarth, F. Bohle, G. Brandenburg, E. Caldeweyher
   M. Checinski, S. Dohm, S. Ehlert, S. Ehrlich, I. Gerasimov, C. Hölzer
   A. Katbashev, J. Kohn, J. Koopman, C. Lavigne, S. Lehtola, F. März, M. Müller,
   F. Musil, H. Neugebauer, J. Pisarek, C. Plett, P. Pracht, F. Pultar,
   J. Seibert, P. Shushkov, S. Spicher, M. Stahn, M. Steiner, T. Strunk,
   J. Stückrath, T. Rose, and J. Unsleber
   
 * started run on 2025/05/15 at 16:16:41.204     
   ID    Z sym.   atoms
    1    8 O      1, 13, 15-17
    2    6 C      2-6, 8, 10, 11
    3    7 N      7, 9, 12, 14
    4    1 H      18-29

           -------------------------------------------------
          |                Calculation Setup                |
           -------------------------------------------------

          program call               : xtb /rds/general/user/hgt20/home/callum/QDESCP/Ribavirin_rdkit_conf_23/Ribavirin_rdkit_conf_23.xyz --acc 1 --gfn 2 --chrg 0 --uhf 2 --etemp 300 --input /rds/general/user/hgt20/home/callum/QDESCP/Ribavirin_rdkit_conf_23/Ribavirin_rdkit_conf_23_xtb.inp -P 1
          hostname                   : login-c
          coordinate file            : /rds/general/user/hgt20/home/callum/QDESCP/Ribavirin_rdkit_conf_23/Ribavirin_rdkit_conf_23.xyz
          omp threads                :                     1


           -------------------------------------------------
          |                 G F N 2 - x T B                 |
           -------------------------------------------------

        Reference                      10.1021/acs.jctc.8b01176
      * Hamiltonian:
        H0-scaling (s, p, d)           1.850000    2.230000    2.230000
        zeta-weighting                 0.500000
      * Dispersion:
        s8                             2.700000
        a1                             0.520000
        a2                             5.000000
        s9                             5.000000
      * Repulsion:
        kExp                           1.500000    1.000000
        rExp                           1.000000
      * Coulomb:
        alpha                          2.000000
        third order                    shell-resolved
        anisotropic                    true
        a3                             3.000000
        a5                             4.000000
        cn-shift                       1.200000
        cn-exp                         4.000000
        max-rad                        5.000000


          ...................................................
          :                      SETUP                      :
          :.................................................:
          :  # basis functions                  80          :
          :  # atomic orbitals                  80          :
          :  # shells                           46          :
          :  # electrons                        94          :
          :  max. iterations                   250          :
          :  Hamiltonian                  GFN2-xTB          :
          :  restarted?                      false          :
          :  GBSA solvation                  false          :
          :  PC potential                    false          :
          :  electronic temp.          300.0000000     K    :
          :  accuracy                    1.0000000          :
          :  -> integral cutoff          0.2500000E+02      :
          :  -> integral neglect         0.1000000E-07      :
          :  -> SCF convergence          0.1000000E-05 Eh   :
          :  -> wf. convergence          0.1000000E-03 e    :
          :  Broyden damping             0.4000000          :
          :  net charge                          0          :
          :  unpaired electrons                  2          :
          ...................................................

 iter      E             dE          RMSdq      gap      omega  full diag
   1    -55.3260892 -0.553261E+02  0.491E+00    1.02       0.0  T
   2    -55.4602408 -0.134152E+00  0.326E+00    0.94       1.0  T
   3    -55.4236636  0.365772E-01  0.284E+00    0.77       1.0  T
   4    -55.5490227 -0.125359E+00  0.183E+00    1.24       1.0  T
   5    -55.5215335  0.274892E-01  0.170E+00    0.26       1.0  T
   6    -55.5945335 -0.730000E-01  0.116E+00    0.55       1.0  T
   7    -55.6247741 -0.302406E-01  0.624E-01    0.56       1.0  T
   8    -55.6259966 -0.122246E-02  0.483E-01    0.69       1.0  T
   9    -55.6028367  0.231599E-01  0.958E-01    0.66       1.0  T
  10    -55.6201624 -0.173256E-01  0.667E-01    0.64       1.0  T
  11    -55.6362815 -0.161191E-01  0.148E-01    0.65       1.0  T
  12    -55.6368067 -0.525228E-03  0.473E-02    0.65       1.0  T
  13    -55.6368537 -0.470124E-04  0.397E-02    0.65       1.0  T
  14    -55.6368575 -0.377753E-05  0.264E-02    0.65       1.0  T
  15    -55.6368177  0.397862E-04  0.420E-02    0.64       1.0  T
  16    -55.6368698 -0.520340E-04  0.176E-02    0.64       1.1  T
  17    -55.6368787 -0.891014E-05  0.681E-03    0.64       2.7  T
  18    -55.6368806 -0.192010E-05  0.167E-03    0.64      11.1  T
  19    -55.6368807 -0.121137E-06  0.378E-04    0.64      49.1  T
  20    -55.6368807  0.278845E-08  0.447E-04    0.64      41.6  T

   *** convergence criteria satisfied after 20 iterations ***

         #    Occupation            Energy/Eh            Energy/eV
      -------------------------------------------------------------
         1        2.0000           -0.7327608             -19.9394
       ...           ...                  ...                  ...
        42        2.0000           -0.4285648             -11.6618
        43        2.0000           -0.4182759             -11.3819
        44        2.0000           -0.4166080             -11.3365
        45        1.9998           -0.4088279             -11.1248
        46        1.7973           -0.4020495             -10.9403
        47        1.2029           -0.3994484             -10.8695
        48        1.0000           -0.2435097              -6.6262 (HOMO)
        49        0.0000           -0.2199462              -5.9850 (LUMO)
        50                         -0.1236619              -3.3650
        51                         -0.0355822              -0.9682
        52                         -0.0187818              -0.5111
        53                          0.0025772               0.0701
       ...                                ...                  ...
        80                          0.7044463              19.1690
      -------------------------------------------------------------
                  HL-Gap            0.0235634 Eh            0.6412 eV
             Fermi-level           -0.3162382 Eh           -8.6053 eV

 transition dipole moment (au) for excitation:          47          48
     X       Y       Z   
   0.0108   0.0170  -0.0264  total (au/Debye):    0.033   0.084
 dE (eV)             :    4.243
 oscillator strength :  0.16159E-03

 SCC (total)                   0 d,  0 h,  0 min,  0.045 sec
 SCC setup                      ...        0 min,  0.000 sec (  0.474%)
 Dispersion                     ...        0 min,  0.000 sec (  0.486%)
 classical contributions        ...        0 min,  0.000 sec (  0.164%)
 integral evaluation            ...        0 min,  0.005 sec ( 10.446%)
 iterations                     ...        0 min,  0.023 sec ( 51.186%)
 molecular gradient             ...        0 min,  0.012 sec ( 27.297%)
 printout                       ...        0 min,  0.004 sec (  9.931%)

         :::::::::::::::::::::::::::::::::::::::::::::::::::::
         ::                     SUMMARY                     ::
         :::::::::::::::::::::::::::::::::::::::::::::::::::::
         :: total energy             -55.134057826222 Eh    ::
         :: gradient norm              0.156118490744 Eh/a0 ::
         :: HOMO-LUMO gap              0.641193701034 eV    ::
         ::.................................................::
         :: SCC energy               -55.636552114806 Eh    ::
         :: -> isotropic ES            0.132887601819 Eh    ::
         :: -> anisotropic ES          0.000754568349 Eh    ::
         :: -> anisotropic XC          0.003553328975 Eh    ::
         :: -> dispersion             -0.028740838675 Eh    ::
         :: repulsion energy           0.502494288584 Eh    ::
         :: add. restraining           0.000000000000 Eh    ::
         :: total charge               0.000000000039 e     ::
         :::::::::::::::::::::::::::::::::::::::::::::::::::::

           -------------------------------------------------
          |                Property Printout                |
           -------------------------------------------------

    * Orbital Energies and Occupations

         #    Occupation            Energy/Eh            Energy/eV
      -------------------------------------------------------------
         1        2.0000           -0.7327608             -19.9394
       ...           ...                  ...                  ...
        36        2.0000           -0.4845386             -13.1850
        37        2.0000           -0.4646775             -12.6445
        38        2.0000           -0.4496322             -12.2351
        39        2.0000           -0.4432820             -12.0623
        40        2.0000           -0.4387707             -11.9396
        41        2.0000           -0.4323877             -11.7659
        42        2.0000           -0.4285648             -11.6618
        43        2.0000           -0.4182759             -11.3819
        44        2.0000           -0.4166080             -11.3365
        45        1.9998           -0.4088279             -11.1248
        46        1.7973           -0.4020495             -10.9403
        47        1.2029           -0.3994484             -10.8695
        48        1.0000           -0.2435097              -6.6262 (HOMO)
        49        0.0000           -0.2199462              -5.9850 (LUMO)
        50                         -0.1236619              -3.3650
        51                         -0.0355822              -0.9682
        52                         -0.0187818              -0.5111
        53                          0.0025772               0.0701
        54                          0.0063804               0.1736
        55                          0.0295944               0.8053
        56                          0.0389104               1.0588
        57                          0.0566668               1.5420
        58                          0.0695897               1.8936
        59                          0.0967031               2.6314
       ...                                ...                  ...
        80                          0.7044463              19.1690
      -------------------------------------------------------------
                  HL-Gap            0.0235634 Eh            0.6412 eV
             Fermi-level           -0.3162382 Eh           -8.6053 eV

     #   Z          covCN         q      C6AA      α(0)
     1   8 O        1.656    -0.439    21.612     6.276
     2   6 C        3.673     0.075    19.554     6.337
     3   6 C        3.781     0.094    19.056     6.219
     4   6 C        3.746     0.096    19.066     6.228
     5   6 C        3.740     0.107    18.901     6.203
     6   6 C        3.737     0.161    18.088     6.069
     7   7 N        3.054     0.030    20.709     6.759
     8   6 C        3.143     0.100    25.560     8.272
     9   7 N        1.905    -0.243    27.181     7.730
    10   6 C        3.312     0.102    23.919     7.805
    11   6 C        2.746     0.235    23.073     7.865
    12   7 N        2.647    -0.270    26.992     7.716
    13   8 O        0.858    -0.348    20.673     6.096
    14   7 N        2.015    -0.220    26.577     7.646
    15   8 O        1.703    -0.304    19.067     5.896
    16   8 O        1.656    -0.427    21.377     6.241
    17   8 O        1.656    -0.439    21.629     6.278
    18   1 H        0.805     0.300     0.721     1.333
    19   1 H        0.923     0.024     2.673     2.557
    20   1 H        0.924     0.042     2.421     2.433
    21   1 H        0.924     0.056     2.241     2.341
    22   1 H        0.924     0.057     2.240     2.340
    23   1 H        0.924     0.063     2.167     2.302
    24   1 H        0.924     0.074     2.044     2.236
    25   1 H        0.927     0.057     2.233     2.337
    26   1 H        0.860     0.196     1.128     1.664
    27   1 H        0.860     0.189     1.164     1.690
    28   1 H        0.805     0.330     0.638     1.254
    29   1 H        0.805     0.304     0.708     1.322

 Mol. C6AA /au·bohr⁶  :       8919.642738
 Mol. C8AA /au·bohr⁸  :     198296.156064
 Mol. α(0) /au        :        139.446313


Wiberg/Mayer (AO) data.
largest (>0.10) Wiberg bond orders for each atom

 ---------------------------------------------------------------------------
     #   Z sym  total        # sym  WBO       # sym  WBO       # sym  WBO
 ---------------------------------------------------------------------------
     1   8 O    1.956 --     2 C    1.003    18 H    0.895
     2   6 C    3.961 --     1 O    1.003     3 C    0.986    20 H    0.969
                            19 H    0.968
     3   6 C    3.949 --     2 C    0.986    15 O    0.965     4 C    0.960
                            21 H    0.959
     4   6 C    3.952 --    17 O    0.999     5 C    0.963    22 H    0.961
                             3 C    0.960
     5   6 C    3.958 --    16 O    1.016     6 C    0.965     4 C    0.963
                            23 H    0.942
     6   6 C    3.943 --    15 O    0.992     5 C    0.965     7 N    0.956
                            24 H    0.944
     7   7 N    3.608 --     8 C    1.272    14 N    1.113     6 C    0.956
                             9 N    0.122
     8   6 C    3.948 --     9 N    1.512     7 N    1.272    25 H    0.960
     9   7 N    3.075 --     8 C    1.512    10 C    1.216     7 N    0.122
    10   6 C    3.829 --    14 N    1.271     9 N    1.216    11 C    1.080
    11   6 C    3.889 --    13 O    1.487    12 N    1.154    10 C    1.080
    12   7 N    3.264 --    11 C    1.154    27 H    0.943    26 H    0.938
                            13 O    0.118
    13   8 O    1.891 --    11 C    1.487    12 N    0.118
    14   7 N    2.834 --    10 C    1.271     7 N    1.113
    15   8 O    2.099 --     6 C    0.992     3 C    0.965
    16   8 O    1.963 --     5 C    1.016    28 H    0.864
    17   8 O    1.974 --     4 C    0.999    29 H    0.891
    18   1 H    0.910 --     1 O    0.895
    19   1 H    0.999 --     2 C    0.968
    20   1 H    0.998 --     2 C    0.969
    21   1 H    0.996 --     3 C    0.959
    22   1 H    0.997 --     4 C    0.961
    23   1 H    0.993 --     5 C    0.942
    24   1 H    0.992 --     6 C    0.944
    25   1 H    0.995 --     8 C    0.960
    26   1 H    0.961 --    12 N    0.938
    27   1 H    0.961 --    12 N    0.943
    28   1 H    0.891 --    16 O    0.864
    29   1 H    0.907 --    17 O    0.891
 ---------------------------------------------------------------------------

Topologies differ in total number of bonds
Writing topology from bond orders to xtbtopo.mol

molecular dipole:
                 x           y           z       tot (Debye)
 q only:       -1.091       0.494       1.199
   full:       -1.368       0.656       1.746       5.879
molecular quadrupole (traceless):
                xx          xy          yy          xz          yz          zz
 q only:        0.945      15.871      -3.225       0.119       2.087       2.280
  q+dip:        0.027      17.365      -2.608      -2.973       0.427       2.581
   full:        0.333      18.289      -3.334      -3.216       0.296       3.000


           -------------------------------------------------
          | TOTAL ENERGY              -55.134057826222 Eh   |
          | GRADIENT NORM               0.156118490744 Eh/α |
          | HOMO-LUMO GAP               0.641193701034 eV   |
           -------------------------------------------------

------------------------------------------------------------------------
 * finished run on 2025/05/15 at 16:16:41.259     
------------------------------------------------------------------------
 total:
 * wall-time:     0 d,  0 h,  0 min,  0.055 sec
 *  cpu-time:     0 d,  0 h,  0 min,  0.054 sec
 * ratio c/w:     0.974 speedup
 SCF:
 * wall-time:     0 d,  0 h,  0 min,  0.045 sec
 *  cpu-time:     0 d,  0 h,  0 min,  0.045 sec
 * ratio c/w:     0.994 speedup


