----- Optimization -----
      -----------------------------------------------------------      
     |                   =====================                   |     
     |                           x T B                           |     
     |                   =====================                   |     
     |                         S. Grimme                         |     
     |          Mulliken Center for Theoretical Chemistry        |     
     |                    University of Bonn                     |     
      -----------------------------------------------------------      

   * xtb version 6.7.1 (edcfbbe) compiled by 'conda@3ef47c1a292c' on 2024-11-25

   xtb is free software: you can redistribute it and/or modify it under
   the terms of the GNU Lesser General Public License as published by
   the Free Software Foundation, either version 3 of the License, or
   (at your option) any later version.
   
   xtb is distributed in the hope that it will be useful,
   but WITHOUT ANY WARRANTY; without even the implied warranty of
   MERCHANTABILITY or FITNESS FOR A PARTICULAR PURPOSE.  See the
   GNU Lesser General Public License for more details.
   
   Cite this work as:
   * C. Bannwarth, E. Caldeweyher, S. Ehlert, A. Hansen, P. Pracht,
     J. Seibert, S. Spicher, S. Grimme, WIREs Comput. Mol. Sci., 2020, 11,
     e01493. DOI: 10.1002/wcms.1493
   
   for GFN2-xTB:
   * C. Bannwarth, S. Ehlert and S. Grimme., J. Chem. Theory Comput., 2019,
     15, 1652-1671. DOI: 10.1021/acs.jctc.8b01176
   for GFN1-xTB:
   * S. Grimme, C. Bannwarth, P. Shushkov, J. Chem. Theory Comput., 2017,
     13, 1989-2009. DOI: 10.1021/acs.jctc.7b00118
   for GFN0-xTB:
   * P. Pracht, E. Caldeweyher, S. Ehlert, S. Grimme, ChemRxiv, 2019, preprint.
     DOI: 10.26434/chemrxiv.8326202.v1
   for GFN-FF:
   * S. Spicher and S. Grimme, Angew. Chem. Int. Ed., 2020, 59, 15665-15673.
     DOI: 10.1002/anie.202004239
   
   for ALPB and GBSA implicit solvation:
   * S. Ehlert, M. Stahn, S. Spicher, S. Grimme, J. Chem. Theory Comput.,
     2021, 17, 4250-4261. DOI: 10.1021/acs.jctc.1c00471
   
   for ddCOSMO and CPCM-X implicit solvation:
   * M. Stahn, S. Ehlert, S. Grimme, J. Phys. Chem. A,
     2023, XX, XXXX-XXXX. DOI: 10.1021/acs.jpca.3c04382
   
   for DFT-D4:
   * E. Caldeweyher, C. Bannwarth and S. Grimme, J. Chem. Phys., 2017,
     147, 034112. DOI: 10.1063/1.4993215
   * E. Caldeweyher, S. Ehlert, A. Hansen, H. Neugebauer, S. Spicher,
     C. Bannwarth and S. Grimme, J. Chem. Phys., 2019, 150, 154122.
     DOI: 10.1063/1.5090222
   * E. Caldeweyher, J.-M. Mewes, S. Ehlert and S. Grimme, Phys. Chem. Chem. Phys.
     2020, 22, 8499-8512. DOI: 10.1039/D0CP00502A
   
   for sTDA-xTB:
   * S. Grimme and C. Bannwarth, J. Chem. Phys., 2016, 145, 054103.
     DOI: 10.1063/1.4959605
   
   in the mass-spec context:
   * V. Asgeirsson, C. Bauer and S. Grimme, Chem. Sci., 2017, 8, 4879.
     DOI: 10.1039/c7sc00601b
   * J. Koopman and S. Grimme, ACS Omega 2019, 4, 12, 15120-15133.
     DOI: 10.1021/acsomega.9b02011
   
   for metadynamics refer to:
   * S. Grimme, J. Chem. Theory Comput., 2019, 155, 2847-2862
     DOI: 10.1021/acs.jctc.9b00143
   
   for SPH calculations refer to:
   * S. Spicher and S. Grimme, J. Chem. Theory Comput., 2021, 17, 1701-1714
     DOI: 10.1021/acs.jctc.0c01306
   
   for ONIOM refer to:
   * C. Plett, A. Katbashev, S. Ehlert, S. Grimme, M. Bursch,
     Phys. Chem. Chem. Phys., 2023, 25, 17860-17868. DOI: 10.1039/D3CP02178E
   
   for DIPRO refer to:
   * J. Kohn, N. Gildemeister, S. Grimme, D. Fazzi, A. Hansen,
     J. Chem. Phys., 2023, just accepted.
   
   for PTB refer to:
   * S. Grimme, M. Mueller, A. Hansen, J. Chem. Phys., 2023, 158, 124111.
     DOI: 10.1063/5.0137838
   
   with help from (in alphabetical order)
   P. Atkinson, C. Bannwarth, F. Bohle, G. Brandenburg, E. Caldeweyher
   M. Checinski, S. Dohm, S. Ehlert, S. Ehrlich, I. Gerasimov, C. Hölzer
   A. Katbashev, J. Kohn, J. Koopman, C. Lavigne, S. Lehtola, F. März, M. Müller,
   F. Musil, H. Neugebauer, J. Pisarek, C. Plett, P. Pracht, F. Pultar,
   J. Seibert, P. Shushkov, S. Spicher, M. Stahn, M. Steiner, T. Strunk,
   J. Stückrath, T. Rose, and J. Unsleber
   
 * started run on 2025/05/15 at 16:09:38.137     
   ID    Z sym.   atoms
    1    6 C      1-8, 10, 11, 13-16
    2    7 N      9, 12
    3    8 O      17
    4    1 H      18-39

           -------------------------------------------------
          |                Calculation Setup                |
           -------------------------------------------------

          program call               : xtb /rds/general/user/hgt20/home/callum/QDESCP/Lidocaine_rdkit_conf_4/Lidocaine_rdkit_conf_4.xyz --opt normal --acc 1 --gfn 2 --chrg 0 --uhf 0 -P 1
          hostname                   : login-c
          coordinate file            : /rds/general/user/hgt20/home/callum/QDESCP/Lidocaine_rdkit_conf_4/Lidocaine_rdkit_conf_4.xyz
          omp threads                :                     1


           -------------------------------------------------
          |                 G F N 2 - x T B                 |
           -------------------------------------------------

        Reference                      10.1021/acs.jctc.8b01176
      * Hamiltonian:
        H0-scaling (s, p, d)           1.850000    2.230000    2.230000
        zeta-weighting                 0.500000
      * Dispersion:
        s8                             2.700000
        a1                             0.520000
        a2                             5.000000
        s9                             5.000000
      * Repulsion:
        kExp                           1.500000    1.000000
        rExp                           1.000000
      * Coulomb:
        alpha                          2.000000
        third order                    shell-resolved
        anisotropic                    true
        a3                             3.000000
        a5                             4.000000
        cn-shift                       1.200000
        cn-exp                         4.000000
        max-rad                        5.000000


          ...................................................
          :                      SETUP                      :
          :.................................................:
          :  # basis functions                  90          :
          :  # atomic orbitals                  90          :
          :  # shells                           56          :
          :  # electrons                        94          :
          :  max. iterations                   250          :
          :  Hamiltonian                  GFN2-xTB          :
          :  restarted?                      false          :
          :  GBSA solvation                  false          :
          :  PC potential                    false          :
          :  electronic temp.          300.0000000     K    :
          :  accuracy                    1.0000000          :
          :  -> integral cutoff          0.2500000E+02      :
          :  -> integral neglect         0.1000000E-07      :
          :  -> SCF convergence          0.1000000E-05 Eh   :
          :  -> wf. convergence          0.1000000E-03 e    :
          :  Broyden damping             0.4000000          :
          :  net charge                          0          :
          :  unpaired electrons                  0          :
          ...................................................

 iter      E             dE          RMSdq      gap      omega  full diag
   1    -51.7399389 -0.517399E+02  0.329E+00    3.55       0.0  T
   2    -51.8260753 -0.861364E-01  0.185E+00    3.75       1.0  T
   3    -51.8289329 -0.285759E-02  0.937E-01    3.77       1.0  T
   4    -51.8310028 -0.206992E-02  0.224E-01    3.66       1.0  T
   5    -51.8324615 -0.145863E-02  0.876E-02    3.72       1.0  T
   6    -51.8326199 -0.158468E-03  0.423E-02    3.72       1.0  T
   7    -51.8326375 -0.175544E-04  0.196E-02    3.71       1.0  T
   8    -51.8326425 -0.503626E-05  0.486E-03    3.72       3.3  T
   9    -51.8326426 -0.103707E-06  0.203E-03    3.72       7.9  T
  10    -51.8326427 -0.630894E-07  0.105E-03    3.72      15.2  T
  11    -51.8326427 -0.688847E-08  0.400E-04    3.72      40.0  T
  12    -51.8326427 -0.841503E-09  0.875E-05    3.72     183.0  T

   *** convergence criteria satisfied after 12 iterations ***

         #    Occupation            Energy/Eh            Energy/eV
      -------------------------------------------------------------
         1        2.0000           -0.6889125             -18.7463
       ...           ...                  ...                  ...
        41        2.0000           -0.4307481             -11.7213
        42        2.0000           -0.4184248             -11.3859
        43        2.0000           -0.4174471             -11.3593
        44        2.0000           -0.3924744             -10.6798
        45        2.0000           -0.3800237             -10.3410
        46        2.0000           -0.3692781             -10.0486
        47        2.0000           -0.3661345              -9.9630 (HOMO)
        48                         -0.2295227              -6.2456 (LUMO)
        49                         -0.2153159              -5.8590
        50                         -0.1905107              -5.1841
        51                         -0.0912260              -2.4824
        52                         -0.0179966              -0.4897
       ...                                ...                  ...
        90                          0.6420143              17.4701
      -------------------------------------------------------------
                  HL-Gap            0.1366118 Eh            3.7174 eV
             Fermi-level           -0.2978286 Eh           -8.1043 eV

 SCC (total)                   0 d,  0 h,  0 min,  0.073 sec
 SCC setup                      ...        0 min,  0.000 sec (  0.410%)
 Dispersion                     ...        0 min,  0.000 sec (  0.524%)
 classical contributions        ...        0 min,  0.000 sec (  0.169%)
 integral evaluation            ...        0 min,  0.006 sec (  8.051%)
 iterations                     ...        0 min,  0.047 sec ( 64.862%)
 molecular gradient             ...        0 min,  0.019 sec ( 25.792%)
 printout                       ...        0 min,  0.000 sec (  0.185%)

         :::::::::::::::::::::::::::::::::::::::::::::::::::::
         ::                     SUMMARY                     ::
         :::::::::::::::::::::::::::::::::::::::::::::::::::::
         :: total energy             -51.122526626638 Eh    ::
         :: gradient norm              0.059513529043 Eh/a0 ::
         :: HOMO-LUMO gap              3.717395890264 eV    ::
         ::.................................................::
         :: SCC energy               -51.832002296046 Eh    ::
         :: -> isotropic ES            0.046449843265 Eh    ::
         :: -> anisotropic ES          0.008620916525 Eh    ::
         :: -> anisotropic XC          0.029283715882 Eh    ::
         :: -> dispersion             -0.036934429340 Eh    ::
         :: repulsion energy           0.709475669408 Eh    ::
         :: add. restraining           0.000000000000 Eh    ::
         :: total charge              -0.000000000000 e     ::
         :::::::::::::::::::::::::::::::::::::::::::::::::::::

      ----------------------------------------------------------- 
     |                   =====================                   |
     |                        A N C O P T                        |
     |                   =====================                   |
     |               Approximate Normal Coordinate               |
     |                Rational Function Optimizer                |
      ----------------------------------------------------------- 
      ----------------------------------------------------------- 
     |                   =====================                   |
     |                        A N C O P T                        |
     |                   =====================                   |
     |               Approximate Normal Coordinate               |
     |                Rational Function Optimizer                |
      ----------------------------------------------------------- 

          ...................................................
          :                      SETUP                      :
          :.................................................:
          :   optimization level            normal          :
          :   max. optcycles                   200          :
          :   ANC micro-cycles                  20          :
          :   degrees of freedom               111          :
          :.................................................:
          :   RF solver                   davidson          :
          :   write xtbopt.log                true          :
          :   linear?                        false          :
          :   energy convergence         0.5000000E-05 Eh   :
          :   grad. convergence          0.1000000E-02 Eh/α :
          :   maxmium RF displ.          1.0000000          :
          :   Hlow (freq-cutoff)         0.1000000E-01      :
          :   Hmax (freq-cutoff)         5.0000000          :
          :   S6 in model hess.         20.0000000          :
          ...................................................

generating ANC from exact Hessian ...
Using Lindh-Hessian (1995)
 Shifting diagonal of input Hessian by    9.7348225692231137E-003
 Lowest  eigenvalues of input Hessian
    0.000000    0.000000    0.000000    0.000000    0.000000    0.000000
    0.010000    0.010226    0.010747    0.011092    0.011756    0.012411
    0.013436    0.014677    0.015237    0.016307    0.016706    0.017508
 Highest eigenvalues
    1.553784    1.799200    1.822656    1.933147    2.008499    2.252750


........................................................................
.............................. CYCLE    1 ..............................
........................................................................

 iter      E             dE          RMSdq      gap      omega  full diag
   1    -51.8326427 -0.518326E+02  0.458E-05    3.72       0.0  T
   2    -51.8326427 -0.114895E-10  0.264E-05    3.72     606.1  T
   3    -51.8326427 -0.614619E-11  0.174E-05    3.72     921.3  T
     SCC iter.                  ...        0 min,  0.043 sec
     gradient                   ...        0 min,  0.019 sec
 * total energy  :   -51.1225266 Eh     change       -0.1116334E-09 Eh
   gradient norm :     0.0595136 Eh/α   predicted     0.0000000E+00 (-100.00%)
   displ. norm   :     0.2979485 α      lambda       -0.9316162E-02
   maximum displ.:     0.1390110 α      in ANC's #35, #11, #22, ...

........................................................................
.............................. CYCLE    2 ..............................
........................................................................

 iter      E             dE          RMSdq      gap      omega  full diag
   1    -51.8716077 -0.518716E+02  0.176E-01    3.79       0.0  T
   2    -51.8716512 -0.435363E-04  0.106E-01    3.77       1.0  T
   3    -51.8716390  0.122656E-04  0.288E-02    3.77       1.0  T
   4    -51.8716585 -0.195037E-04  0.506E-03    3.77       3.2  T
   5    -51.8716589 -0.427713E-06  0.279E-03    3.77       5.7  T
   6    -51.8716590 -0.897544E-07  0.129E-03    3.77      12.4  T
   7    -51.8716590 -0.317824E-07  0.429E-04    3.77      37.3  T
   8    -51.8716590 -0.102667E-08  0.157E-04    3.77     102.2  T
     SCC iter.                  ...        0 min,  0.011 sec
     gradient                   ...        0 min,  0.019 sec
 * total energy  :   -51.1287668 Eh     change       -0.6240156E-02 Eh
   gradient norm :     0.0207520 Eh/α   predicted    -0.5087648E-02 ( -18.47%)
   displ. norm   :     0.2930413 α      lambda       -0.2510829E-02
   maximum displ.:     0.1320082 α      in ANC's #11, #6, #15, ...

........................................................................
.............................. CYCLE    3 ..............................
........................................................................

 iter      E             dE          RMSdq      gap      omega  full diag
   1    -51.8883783 -0.518884E+02  0.997E-02    3.75       0.0  T
   2    -51.8884084 -0.301549E-04  0.586E-02    3.76       1.0  T
   3    -51.8884059  0.247012E-05  0.211E-02    3.76       1.0  T
   4    -51.8884107 -0.478172E-05  0.498E-03    3.76       3.2  T
   5    -51.8884117 -0.972932E-06  0.171E-03    3.76       9.4  T
   6    -51.8884117 -0.304043E-07  0.842E-04    3.76      19.0  T
   7    -51.8884117 -0.738075E-08  0.239E-04    3.76      67.1  T
     SCC iter.                  ...        0 min,  0.035 sec
     gradient                   ...        0 min,  0.019 sec
 * total energy  :   -51.1303970 Eh     change       -0.1630202E-02 Eh
   gradient norm :     0.0094491 Eh/α   predicted    -0.1363995E-02 ( -16.33%)
   displ. norm   :     0.2919331 α      lambda       -0.9719351E-03
   maximum displ.:     0.1411266 α      in ANC's #11, #6, #3, ...

........................................................................
.............................. CYCLE    4 ..............................
........................................................................

 iter      E             dE          RMSdq      gap      omega  full diag
   1    -51.8910989 -0.518911E+02  0.733E-02    3.73       0.0  T
   2    -51.8911131 -0.142472E-04  0.418E-02    3.73       1.0  T
   3    -51.8911118  0.135648E-05  0.152E-02    3.73       1.1  T
   4    -51.8911142 -0.247057E-05  0.407E-03    3.73       3.9  T
   5    -51.8911148 -0.553164E-06  0.122E-03    3.73      13.1  T
   6    -51.8911148 -0.514585E-08  0.494E-04    3.73      32.4  T
   7    -51.8911148 -0.197459E-08  0.177E-04    3.73      90.7  T
     SCC iter.                  ...        0 min,  0.011 sec
     gradient                   ...        0 min,  0.019 sec
 * total energy  :   -51.1311464 Eh     change       -0.7493719E-03 Eh
   gradient norm :     0.0101704 Eh/α   predicted    -0.5273855E-03 ( -29.62%)
   displ. norm   :     0.4176494 α      lambda       -0.1004860E-02
   maximum displ.:     0.1906027 α      in ANC's #6, #11, #3, ...

........................................................................
.............................. CYCLE    5 ..............................
........................................................................

 iter      E             dE          RMSdq      gap      omega  full diag
   1    -51.8888795 -0.518889E+02  0.100E-01    3.70       0.0  T
   2    -51.8888917 -0.121231E-04  0.579E-02    3.70       1.0  T
   3    -51.8888864  0.529839E-05  0.186E-02    3.69       1.0  T
   4    -51.8888938 -0.744110E-05  0.418E-03    3.69       3.8  T
   5    -51.8888942 -0.443625E-06  0.157E-03    3.69      10.2  T
   6    -51.8888942 -0.658857E-08  0.569E-04    3.69      28.1  T
   7    -51.8888943 -0.224760E-08  0.232E-04    3.69      69.1  T
     SCC iter.                  ...        0 min,  0.011 sec
     gradient                   ...        0 min,  0.019 sec
 * total energy  :   -51.1318382 Eh     change       -0.6918251E-03 Eh
   gradient norm :     0.0121646 Eh/α   predicted    -0.5900719E-03 ( -14.71%)
   displ. norm   :     0.2841894 α      lambda       -0.4766991E-03
   maximum displ.:     0.1341697 α      in ANC's #6, #3, #11, ...

........................................................................
.............................. CYCLE    6 ..............................
........................................................................

 iter      E             dE          RMSdq      gap      omega  full diag
   1    -51.8877652 -0.518878E+02  0.635E-02    3.70       0.0  T
   2    -51.8877680 -0.279515E-05  0.371E-02    3.69       1.0  T
   3    -51.8877649  0.317269E-05  0.120E-02    3.69       1.3  T
   4    -51.8877690 -0.411602E-05  0.185E-03    3.69       8.7  T
   5    -51.8877690 -0.519308E-07  0.864E-04    3.69      18.5  T
   6    -51.8877690 -0.285782E-08  0.383E-04    3.69      41.8  T
     SCC iter.                  ...        0 min,  0.009 sec
     gradient                   ...        0 min,  0.058 sec
 * total energy  :   -51.1321672 Eh     change       -0.3290089E-03 Eh
   gradient norm :     0.0087185 Eh/α   predicted    -0.2576010E-03 ( -21.70%)
   displ. norm   :     0.2012076 α      lambda       -0.2599439E-03
   maximum displ.:     0.0938082 α      in ANC's #8, #3, #6, ...

........................................................................
.............................. CYCLE    7 ..............................
........................................................................

 iter      E             dE          RMSdq      gap      omega  full diag
   1    -51.8884650 -0.518885E+02  0.450E-02    3.70       0.0  T
   2    -51.8884687 -0.376645E-05  0.265E-02    3.70       1.0  T
   3    -51.8884679  0.856173E-06  0.864E-03    3.70       1.9  T
   4    -51.8884691 -0.124124E-05  0.213E-03    3.70       7.5  T
   5    -51.8884692 -0.129042E-06  0.606E-04    3.70      26.4  T
   6    -51.8884692 -0.131802E-08  0.306E-04    3.70      52.4  T
     SCC iter.                  ...        0 min,  0.009 sec
     gradient                   ...        0 min,  0.019 sec
 * total energy  :   -51.1323492 Eh     change       -0.1819692E-03 Eh
   gradient norm :     0.0043913 Eh/α   predicted    -0.1352340E-03 ( -25.68%)
   displ. norm   :     0.1764278 α      lambda       -0.1496190E-03
   maximum displ.:     0.0968891 α      in ANC's #8, #1, #3, ...

........................................................................
.............................. CYCLE    8 ..............................
........................................................................

 iter      E             dE          RMSdq      gap      omega  full diag
   1    -51.8894601 -0.518895E+02  0.379E-02    3.71       0.0  T
   2    -51.8894622 -0.208270E-05  0.224E-02    3.70       1.0  T
   3    -51.8894618  0.396616E-06  0.583E-03    3.71       2.7  T
   4    -51.8894623 -0.554468E-06  0.154E-03    3.71      10.4  T
   5    -51.8894624 -0.734368E-07  0.484E-04    3.71      33.1  T
   6    -51.8894624 -0.735064E-09  0.191E-04    3.71      84.0  T
     SCC iter.                  ...        0 min,  0.009 sec
     gradient                   ...        0 min,  0.052 sec
 * total energy  :   -51.1324568 Eh     change       -0.1076200E-03 Eh
   gradient norm :     0.0036112 Eh/α   predicted    -0.7713917E-04 ( -28.32%)
   displ. norm   :     0.1696222 α      lambda       -0.1109510E-03
   maximum displ.:     0.0930710 α      in ANC's #8, #1, #5, ...

........................................................................
.............................. CYCLE    9 ..............................
........................................................................

 iter      E             dE          RMSdq      gap      omega  full diag
   1    -51.8905925 -0.518906E+02  0.331E-02    3.71       0.0  T
   2    -51.8905933 -0.815546E-06  0.196E-02    3.71       1.0  T
   3    -51.8905931  0.173750E-06  0.323E-03    3.71       5.0  T
   4    -51.8905934 -0.236188E-06  0.992E-04    3.71      16.1  T
   5    -51.8905934 -0.349830E-07  0.414E-04    3.71      38.7  T
     SCC iter.                  ...        0 min,  0.008 sec
     gradient                   ...        0 min,  0.019 sec
 * total energy  :   -51.1325381 Eh     change       -0.8131614E-04 Eh
   gradient norm :     0.0042570 Eh/α   predicted    -0.5707368E-04 ( -29.81%)
   displ. norm   :     0.1914898 α      lambda       -0.9577758E-04
   maximum displ.:     0.0967458 α      in ANC's #8, #1, #13, ...

........................................................................
.............................. CYCLE   10 ..............................
........................................................................

 iter      E             dE          RMSdq      gap      omega  full diag
   1    -51.8907861 -0.518908E+02  0.339E-02    3.71       0.0  T
   2    -51.8907864 -0.341542E-06  0.201E-02    3.71       1.0  T
   3    -51.8907861  0.294803E-06  0.296E-03    3.71       5.4  T
   4    -51.8907865 -0.371443E-06  0.784E-04    3.71      20.4  T
   5    -51.8907865 -0.143753E-07  0.377E-04    3.71      42.5  T
     SCC iter.                  ...        0 min,  0.008 sec
     gradient                   ...        0 min,  0.046 sec
 * total energy  :   -51.1326091 Eh     change       -0.7097761E-04 Eh
   gradient norm :     0.0042641 Eh/α   predicted    -0.4965153E-04 ( -30.05%)
   displ. norm   :     0.1995239 α      lambda       -0.9419001E-04
   maximum displ.:     0.0989384 α      in ANC's #1, #8, #5, ...

........................................................................
.............................. CYCLE   11 ..............................
........................................................................

 iter      E             dE          RMSdq      gap      omega  full diag
   1    -51.8915964 -0.518916E+02  0.328E-02    3.71       0.0  T
   2    -51.8915969 -0.492491E-06  0.193E-02    3.71       1.0  T
   3    -51.8915967  0.158232E-06  0.270E-03    3.71       5.9  T
   4    -51.8915970 -0.226512E-06  0.876E-04    3.71      18.3  T
   5    -51.8915970 -0.184724E-07  0.409E-04    3.71      39.2  T
     SCC iter.                  ...        0 min,  0.007 sec
     gradient                   ...        0 min,  0.019 sec
 * total energy  :   -51.1326725 Eh     change       -0.6344066E-04 Eh
   gradient norm :     0.0039399 Eh/α   predicted    -0.4897164E-04 ( -22.81%)
   displ. norm   :     0.2110761 α      lambda       -0.7118575E-04
   maximum displ.:     0.1033762 α      in ANC's #1, #13, #8, ...

........................................................................
.............................. CYCLE   12 ..............................
........................................................................

 iter      E             dE          RMSdq      gap      omega  full diag
   1    -51.8897015 -0.518897E+02  0.357E-02    3.70       0.0  T
   2    -51.8897026 -0.114654E-05  0.211E-02    3.70       1.0  T
   3    -51.8897020  0.582373E-06  0.551E-03    3.70       2.9  T
   4    -51.8897028 -0.756945E-06  0.117E-03    3.70      13.6  T
   5    -51.8897028 -0.362751E-07  0.496E-04    3.70      32.3  T
   6    -51.8897028 -0.141151E-08  0.193E-04    3.70      82.8  T
     SCC iter.                  ...        0 min,  0.009 sec
     gradient                   ...        0 min,  0.049 sec
 * total energy  :   -51.1327069 Eh     change       -0.3442743E-04 Eh
   gradient norm :     0.0034301 Eh/α   predicted    -0.3718124E-04 (   8.00%)
   displ. norm   :     0.0781009 α      lambda       -0.5018204E-04
   maximum displ.:     0.0405394 α      in ANC's #1, #2, #3, ...

........................................................................
.............................. CYCLE   13 ..............................
........................................................................

 iter      E             dE          RMSdq      gap      omega  full diag
   1    -51.8909586 -0.518910E+02  0.199E-02    3.69       0.0  T
   2    -51.8909590 -0.438844E-06  0.114E-02    3.70       1.4  T
   3    -51.8909589  0.854064E-07  0.249E-03    3.70       6.4  T
   4    -51.8909591 -0.126102E-06  0.828E-04    3.70      19.3  T
   5    -51.8909591 -0.232297E-07  0.332E-04    3.70      48.2  T
     SCC iter.                  ...        0 min,  0.008 sec
     gradient                   ...        0 min,  0.019 sec
 * total energy  :   -51.1327348 Eh     change       -0.2788997E-04 Eh
   gradient norm :     0.0019750 Eh/α   predicted    -0.2524484E-04 (  -9.48%)
   displ. norm   :     0.0779632 α      lambda       -0.1696642E-04
   maximum displ.:     0.0433500 α      in ANC's #1, #13, #2, ...

........................................................................
.............................. CYCLE   14 ..............................
........................................................................

 iter      E             dE          RMSdq      gap      omega  full diag
   1    -51.8909397 -0.518909E+02  0.166E-02    3.70       0.0  T
   2    -51.8909398 -0.122440E-06  0.980E-03    3.70       1.6  T
   3    -51.8909396  0.207259E-06  0.254E-03    3.70       6.3  T
   4    -51.8909398 -0.257508E-06  0.417E-04    3.70      38.4  T
   5    -51.8909399 -0.191073E-08  0.213E-04    3.70      75.1  T
     SCC iter.                  ...        0 min,  0.007 sec
     gradient                   ...        0 min,  0.058 sec
 * total energy  :   -51.1327499 Eh     change       -0.1502052E-04 Eh
   gradient norm :     0.0016239 Eh/α   predicted    -0.8506833E-05 ( -43.37%)
   displ. norm   :     0.0739785 α      lambda       -0.1523193E-04
   maximum displ.:     0.0399572 α      in ANC's #1, #2, #6, ...

........................................................................
.............................. CYCLE   15 ..............................
........................................................................

 iter      E             dE          RMSdq      gap      omega  full diag
   1    -51.8905282 -0.518905E+02  0.195E-02    3.69       0.0  T
   2    -51.8905288 -0.559527E-06  0.113E-02    3.69       1.4  T
   3    -51.8905288  0.320944E-07  0.266E-03    3.69       6.0  T
   4    -51.8905288 -0.744206E-07  0.722E-04    3.69      22.2  T
   5    -51.8905289 -0.108156E-07  0.285E-04    3.69      56.2  T
     SCC iter.                  ...        0 min,  0.008 sec
     gradient                   ...        0 min,  0.019 sec
 * total energy  :   -51.1327601 Eh     change       -0.1024200E-04 Eh
   gradient norm :     0.0021649 Eh/α   predicted    -0.7641758E-05 ( -25.39%)
   displ. norm   :     0.0309464 α      lambda       -0.8811206E-05
   maximum displ.:     0.0171253 α      in ANC's #1, #2, #15, ...

........................................................................
.............................. CYCLE   16 ..............................
........................................................................

 iter      E             dE          RMSdq      gap      omega  full diag
   1    -51.8907071 -0.518907E+02  0.736E-03    3.69       0.0  T
   2    -51.8907072 -0.571624E-07  0.438E-03    3.69       3.7  T
   3    -51.8907072  0.260821E-07  0.123E-03    3.69      13.0  T
   4    -51.8907072 -0.339357E-07  0.293E-04    3.69      54.7  T
   5    -51.8907072 -0.199121E-08  0.974E-05    3.69     164.3  T
     SCC iter.                  ...        0 min,  0.008 sec
     gradient                   ...        0 min,  0.052 sec
 * total energy  :   -51.1327672 Eh     change       -0.7065874E-05 Eh
   gradient norm :     0.0013433 Eh/α   predicted    -0.4412586E-05 ( -37.55%)
   displ. norm   :     0.1146785 α      lambda       -0.1526453E-04
   maximum displ.:     0.0676279 α      in ANC's #1, #2, #15, ...

........................................................................
.............................. CYCLE   17 ..............................
........................................................................

 iter      E             dE          RMSdq      gap      omega  full diag
   1    -51.8910463 -0.518910E+02  0.244E-02    3.70       0.0  T
   2    -51.8910466 -0.274667E-06  0.144E-02    3.70       1.1  T
   3    -51.8910461  0.550021E-06  0.452E-03    3.70       3.5  T
   4    -51.8910468 -0.679159E-06  0.589E-04    3.70      27.2  T
   5    -51.8910468 -0.220756E-08  0.261E-04    3.70      61.5  T
     SCC iter.                  ...        0 min,  0.008 sec
     gradient                   ...        0 min,  0.019 sec
 * total energy  :   -51.1327786 Eh     change       -0.1146554E-04 Eh
   gradient norm :     0.0016623 Eh/α   predicted    -0.7679056E-05 ( -33.02%)
   displ. norm   :     0.0475319 α      lambda       -0.5109729E-05
   maximum displ.:     0.0320843 α      in ANC's #1, #2, #4, ...

........................................................................
.............................. CYCLE   18 ..............................
........................................................................

 iter      E             dE          RMSdq      gap      omega  full diag
   1    -51.8910454 -0.518910E+02  0.974E-03    3.70       0.0  T
   2    -51.8910455 -0.584204E-07  0.572E-03    3.70       2.8  T
   3    -51.8910454  0.181626E-07  0.102E-03    3.70      15.8  T
   4    -51.8910455 -0.265904E-07  0.228E-04    3.70      70.4  T
   5    -51.8910455 -0.974872E-09  0.109E-04    3.70     147.2  T
     SCC iter.                  ...        0 min,  0.008 sec
     gradient                   ...        0 min,  0.053 sec
 * total energy  :   -51.1327844 Eh     change       -0.5775317E-05 Eh
   gradient norm :     0.0010715 Eh/α   predicted    -0.2561953E-05 ( -55.64%)
   displ. norm   :     0.0582478 α      lambda       -0.5849582E-05
   maximum displ.:     0.0376341 α      in ANC's #1, #2, #4, ...

........................................................................
.............................. CYCLE   19 ..............................
........................................................................

 iter      E             dE          RMSdq      gap      omega  full diag
   1    -51.8908782 -0.518909E+02  0.120E-02    3.69       0.0  T
   2    -51.8908784 -0.216042E-06  0.704E-03    3.69       2.3  T
   3    -51.8908784  0.378715E-07  0.181E-03    3.69       8.8  T
   4    -51.8908784 -0.585352E-07  0.376E-04    3.69      42.6  T
   5    -51.8908784 -0.494642E-08  0.157E-04    3.69     102.0  T
     SCC iter.                  ...        0 min,  0.007 sec
     gradient                   ...        0 min,  0.019 sec
 * total energy  :   -51.1327902 Eh     change       -0.5794420E-05 Eh
   gradient norm :     0.0009777 Eh/α   predicted    -0.2932799E-05 ( -49.39%)
   displ. norm   :     0.0569596 α      lambda       -0.3862314E-05
   maximum displ.:     0.0352426 α      in ANC's #1, #4, #2, ...

........................................................................
.............................. CYCLE   20 ..............................
........................................................................

 iter      E             dE          RMSdq      gap      omega  full diag
   1    -51.8908456 -0.518908E+02  0.113E-02    3.69       0.0  T
   2    -51.8908456 -0.164934E-07  0.665E-03    3.69       2.4  T
   3    -51.8908456  0.239048E-08  0.466E-04    3.69      34.3  T
   4    -51.8908456 -0.706075E-08  0.186E-04    3.69      86.2  T
     SCC iter.                  ...        0 min,  0.006 sec
     gradient                   ...        0 min,  0.019 sec
 * total energy  :   -51.1327949 Eh     change       -0.4676189E-05 Eh
   gradient norm :     0.0009828 Eh/α   predicted    -0.1935723E-05 ( -58.60%)
   displ. norm   :     0.0867998 α      lambda       -0.5870303E-05
   maximum displ.:     0.0536699 α      in ANC's #1, #4, #2, ...

   *** GEOMETRY OPTIMIZATION CONVERGED AFTER 20 ITERATIONS ***

------------------------------------------------------------------------
 total energy gain   :        -0.0102682 Eh       -6.4434 kcal/mol
 total RMSD          :         0.3680826 a0        0.1948 Å
 total power (kW/mol):        -1.3479636 (step)  -25.9883 (real)
------------------------------------------------------------------------

 ANCopt (total)                0 d,  0 h,  0 min,  1.037 sec
 optimizer setup                ...        0 min,  0.000 sec (  0.008%)
 model hessian                  ...        0 min,  0.017 sec (  1.626%)
 ANC generation                 ...        0 min,  0.001 sec (  0.129%)
 coordinate transformation      ...        0 min,  0.000 sec (  0.017%)
 single point calculation       ...        0 min,  1.012 sec ( 97.510%)
 optimization log               ...        0 min,  0.003 sec (  0.301%)
 hessian update                 ...        0 min,  0.000 sec (  0.025%)
 rational function              ...        0 min,  0.002 sec (  0.208%)

================
 final structure:
================
39
 xtb: 6.7.1 (edcfbbe)
C           -2.97259128683894        1.06745948076666       -1.50953730030967
C           -2.89331582455128       -0.05209614909013       -0.52197556354380
C           -4.04183656315847       -0.75814235831519       -0.18514611464238
C           -4.02099800870192       -1.74518692849824        0.77996878678454
C           -2.84192060266176       -2.02565159553243        1.44683509603606
C           -1.67220037985890       -1.35534286821395        1.12837413911583
C           -0.40413279416897       -1.65486643615713        1.87454187502372
C           -1.69411597862611       -0.38858599659843        0.11384192976631
N           -0.49034048235774        0.27161375844995       -0.19725122814398
C            0.06936496444551        0.48087164802415       -1.41160823704511
C            1.41952851236641        1.19182769413111       -1.27331972950861
N            2.19387930346026        0.65269618005182       -0.16358957085188
C            3.10747447834458       -0.39252048502714       -0.60497171794636
C            2.38636701589568       -1.57616438569201       -1.23706221957557
C            2.86444904521998        1.68366438489255        0.61765810007209
C            1.89124789067402        2.39620489692523        1.55245588739197
O           -0.41056454922809        0.18880872507656       -2.48574457189223
H           -2.46554966587701        1.95157006549863       -1.12403450874153
H           -2.47947548711184        0.78931558456369       -2.43985422434830
H           -4.00898821112955        1.31697932109677       -1.72018910306090
H           -4.96887390010903       -0.51478211795628       -0.68362634935674
H           -4.92390659782318       -2.28375705922928        1.02621410564418
H           -2.82617283455146       -2.77897609596720        2.22135033099442
H           -0.11008600837833       -0.80430155658707        2.49194580837544
H            0.41400643885818       -1.87490802221659        1.19136919717376
H           -0.54526232502956       -2.51103850410509        2.52887447291314
H            0.17173728899602        0.38285230933412        0.56381593653712
H            1.95331398214870        1.12554446621151       -2.23098669521768
H            1.19809169898145        2.24771586340858       -1.09464378970067
H            3.65315405797032       -0.74326992319992        0.27602714314069
H            3.84621825473681        0.00475541479066       -1.32409232147189
H            1.85468830073454       -1.28807423477965       -2.13899558559793
H            3.11302155110272       -2.34193485505927       -1.49770249196507
H            1.66956311646232       -2.00473367641827       -0.54162002425606
H            3.63221549161509        1.19902877887124        1.22574571002365
H            3.36990080082289        2.42058456361648       -0.02774392468789
H            1.45132143859023        1.68590366955720        2.24849193865871
H            1.08985984894732        2.88280161249301        1.00206199879782
H            2.42112801978879        3.15423483088421        2.12382281541730

 Bond Distances (Angstroems)
 ---------------------------
C1-C2=1.4950         C1-H18=1.0897        C1-H19=1.0890        C1-H20=1.0866        C2-C1=1.4950         C2-C3=1.3896         
C2-C8=1.3984         C3-C2=1.3896         C3-C4=1.3806         C3-H21=1.0803        C4-C3=1.3806         C4-C5=1.3833         
C4-H22=1.0798        C5-C4=1.3833         C5-C6=1.3853         C5-H23=1.0806        C6-C5=1.3853         C6-C7=1.5015         
C6-C8=1.4016         C7-C6=1.5015         C7-H24=1.0914        C7-H25=1.0883        C7-H26=1.0868        C8-C2=1.3984         
C8-C6=1.4016         C8-N9=1.4077         N9-C8=1.4077         N9-C10=1.3534        N9-H27=1.0149        C10-N9=1.3534        
C10-C11=1.5322       C10-O17=1.2122       C11-C10=1.5322       C11-N12=1.4566       C11-H28=1.0984       C11-H29=1.0936       
N12-C11=1.4566       N12-C13=1.4567       N12-C15=1.4570       C13-N12=1.4567       C13-C14=1.5233       C13-H30=1.0941       
C13-H31=1.1049       C14-C13=1.5233       C14-H32=1.0859       C14-H33=1.0874       C14-H34=1.0868       C15-N12=1.4570       
C15-C16=1.5260       C15-H35=1.0928       C15-H36=1.1023       C16-C15=1.5260       C16-H37=1.0874       C16-H38=1.0872       
C16-H39=1.0871       O17-C10=1.2122       H18-C1=1.0897        H19-C1=1.0890        H20-C1=1.0866        H21-C3=1.0803        
H22-C4=1.0798        H23-C5=1.0806        H24-C7=1.0914        H25-C7=1.0883        H26-C7=1.0868        H27-N9=1.0149        
H28-C11=1.0984       H29-C11=1.0936       H30-C13=1.0941       H31-C13=1.1049       H32-C14=1.0859       H33-C14=1.0874       
H34-C14=1.0868       H35-C15=1.0928       H36-C15=1.1023       H37-C16=1.0874       H38-C16=1.0872       H39-C16=1.0871       
 C  H  Rav=1.0895 sigma=0.0063  Rmin=1.0798  Rmax=1.1049    21
 C  C  Rav=1.4470 sigma=0.0637  Rmin=1.3806  Rmax=1.5322    11
 N  H  Rav=1.0149 sigma=0.0000  Rmin=1.0149  Rmax=1.0149     1
 N  C  Rav=1.4263 sigma=0.0411  Rmin=1.3534  Rmax=1.4570     5
 O  C  Rav=1.2122 sigma=0.0000  Rmin=1.2122  Rmax=1.2122     1

 selected bond angles (degree)
 --------------------
H18-C1-C2=110.44               H19-C1-C2=110.43               H19-C1-H18=107.38              H20-C1-C2=110.52               
H20-C1-H18=109.03              H20-C1-H19=108.96              C3-C2-C1=119.79                C8-C2-C1=121.74                
C8-C2-C3=118.44                C4-C3-C2=121.35                H21-C3-C2=118.88               H21-C3-C4=119.77               
C5-C4-C3=119.66                H22-C4-C3=120.22               H22-C4-C5=120.11               C6-C5-C4=120.72                
H23-C5-C4=119.95               H23-C5-C6=119.33               C7-C6-C5=120.16                C8-C6-C5=119.14                
C8-C6-C7=120.70                H24-C7-C6=110.68               H25-C7-C6=111.30               H25-C7-H24=108.07              
H26-C7-C6=110.28               H26-C7-H24=107.96              H26-C7-H25=108.44              C6-C8-C2=120.56                
N9-C8-C2=121.33                N9-C8-C6=118.04                C10-N9-C8=128.64               H27-N9-C8=116.33               
H27-N9-C10=112.71              C11-C10-N9=110.80              O17-C10-N9=126.45              O17-C10-C11=122.73             

 selected dihedral angles (degree)
 ---------------------------------
C3-C2-C1-H18=131.38           C3-C2-C1-H19=250.00           C3-C2-C1-H20= 10.64           C8-C2-C1-H18=313.48           
C8-C2-C1-H19= 72.10           C8-C2-C1-H20=192.74           C4-C3-C2-C1=183.84            C4-C3-C2-C8=  1.81            
H21-C3-C2-C1=  3.01           H21-C3-C2-C8=180.98           C5-C4-C3-C2=  1.21            C5-C4-C3-H21=182.05           
H22-C4-C3-C2=180.11           H22-C4-C3-H21=  0.95          C6-C5-C4-C3=358.01            C6-C5-C4-H22=179.11           
H23-C5-C4-C3=178.38           H23-C5-C4-H22=359.48          C7-C6-C5-C4=179.07            C7-C6-C5-H23=358.70           
C8-C6-C5-C4=359.72            C8-C6-C5-H23=179.36           H24-C7-C6-C5=248.45           H24-C7-C6-C8= 67.78           
H25-C7-C6-C5=128.25           H25-C7-C6-C8=307.58           H26-C7-C6-C5=  7.85           H26-C7-C6-C8=187.18           
C6-C8-C2-C1=173.83            C6-C8-C2-C3=355.91            N9-C8-C2-C1=356.85            N9-C8-C2-C3=178.92            
C2-C8-C6-C5=  3.36            C2-C8-C6-C7=184.02            N9-C8-C6-C5=180.44            N9-C8-C6-C7=  1.10            
C10-N9-C8-C2=308.49           C10-N9-C8-C6=131.43           H27-N9-C8-C2=147.19           H27-N9-C8-C6=330.13           
C11-C10-N9-C8=182.56          C11-C10-N9-H27=344.41         O17-C10-N9-C8=  4.10          O17-C10-N9-H27=165.95         
           -------------------------------------------------
          |                Final Singlepoint                |
           -------------------------------------------------

          ...................................................
          :                      SETUP                      :
          :.................................................:
          :  # basis functions                  90          :
          :  # atomic orbitals                  90          :
          :  # shells                           56          :
          :  # electrons                        94          :
          :  max. iterations                   250          :
          :  Hamiltonian                  GFN2-xTB          :
          :  restarted?                      false          :
          :  GBSA solvation                  false          :
          :  PC potential                    false          :
          :  electronic temp.          300.0000000     K    :
          :  accuracy                    1.0000000          :
          :  -> integral cutoff          0.2500000E+02      :
          :  -> integral neglect         0.1000000E-07      :
          :  -> SCF convergence          0.1000000E-05 Eh   :
          :  -> wf. convergence          0.1000000E-03 e    :
          :  Broyden damping             0.4000000          :
          :  net charge                          0          :
          :  unpaired electrons                  0          :
          ...................................................

 iter      E             dE          RMSdq      gap      omega  full diag
   1    -51.8908456 -0.518908E+02  0.915E-05    3.69       0.0  T
   2    -51.8908456 -0.500577E-10  0.548E-05    3.69     292.4  T
   3    -51.8908456 -0.239666E-10  0.338E-05    3.69     474.0  T

   *** convergence criteria satisfied after 3 iterations ***

         #    Occupation            Energy/Eh            Energy/eV
      -------------------------------------------------------------
         1        2.0000           -0.6925583             -18.8455
       ...           ...                  ...                  ...
        41        2.0000           -0.4314435             -11.7402
        42        2.0000           -0.4212405             -11.4625
        43        2.0000           -0.4153781             -11.3030
        44        2.0000           -0.3942189             -10.7272
        45        2.0000           -0.3845584             -10.4644
        46        2.0000           -0.3731447             -10.1538
        47        2.0000           -0.3600477              -9.7974 (HOMO)
        48                         -0.2243729              -6.1055 (LUMO)
        49                         -0.2119696              -5.7680
        50                         -0.1897843              -5.1643
        51                         -0.0862125              -2.3460
        52                          0.0036661               0.0998
       ...                                ...                  ...
        90                          0.6837087              18.6047
      -------------------------------------------------------------
                  HL-Gap            0.1356748 Eh            3.6919 eV
             Fermi-level           -0.2922103 Eh           -7.9514 eV

 SCC (total)                   0 d,  0 h,  0 min,  0.051 sec
 SCC setup                      ...        0 min,  0.000 sec (  0.471%)
 Dispersion                     ...        0 min,  0.000 sec (  0.617%)
 classical contributions        ...        0 min,  0.000 sec (  0.231%)
 integral evaluation            ...        0 min,  0.026 sec ( 51.204%)
 iterations                     ...        0 min,  0.005 sec (  9.658%)
 molecular gradient             ...        0 min,  0.019 sec ( 37.537%)
 printout                       ...        0 min,  0.000 sec (  0.256%)

         :::::::::::::::::::::::::::::::::::::::::::::::::::::
         ::                     SUMMARY                     ::
         :::::::::::::::::::::::::::::::::::::::::::::::::::::
         :: total energy             -51.132794871849 Eh    ::
         :: gradient norm              0.000982667592 Eh/a0 ::
         :: HOMO-LUMO gap              3.691899184391 eV    ::
         ::.................................................::
         :: SCC energy               -51.890161113047 Eh    ::
         :: -> isotropic ES            0.047322903025 Eh    ::
         :: -> anisotropic ES          0.007023147046 Eh    ::
         :: -> anisotropic XC          0.027666088755 Eh    ::
         :: -> dispersion             -0.037906321871 Eh    ::
         :: repulsion energy           0.757366241198 Eh    ::
         :: add. restraining           0.000000000000 Eh    ::
         :: total charge              -0.000000000000 e     ::
         :::::::::::::::::::::::::::::::::::::::::::::::::::::

           -------------------------------------------------
          |                Property Printout                |
           -------------------------------------------------

    * Orbital Energies and Occupations

         #    Occupation            Energy/Eh            Energy/eV
      -------------------------------------------------------------
         1        2.0000           -0.6925583             -18.8455
       ...           ...                  ...                  ...
        35        2.0000           -0.4604096             -12.5284
        36        2.0000           -0.4566072             -12.4249
        37        2.0000           -0.4497143             -12.2373
        38        2.0000           -0.4476420             -12.1810
        39        2.0000           -0.4448305             -12.1045
        40        2.0000           -0.4426799             -12.0459
        41        2.0000           -0.4314435             -11.7402
        42        2.0000           -0.4212405             -11.4625
        43        2.0000           -0.4153781             -11.3030
        44        2.0000           -0.3942189             -10.7272
        45        2.0000           -0.3845584             -10.4644
        46        2.0000           -0.3731447             -10.1538
        47        2.0000           -0.3600477              -9.7974 (HOMO)
        48                         -0.2243729              -6.1055 (LUMO)
        49                         -0.2119696              -5.7680
        50                         -0.1897843              -5.1643
        51                         -0.0862125              -2.3460
        52                          0.0036661               0.0998
        53                          0.0226433               0.6162
        54                          0.0665381               1.8106
        55                          0.0822213               2.2374
        56                          0.0935689               2.5461
        57                          0.0988122               2.6888
        58                          0.1055050               2.8709
       ...                                ...                  ...
        90                          0.6837087              18.6047
      -------------------------------------------------------------
                  HL-Gap            0.1356748 Eh            3.6919 eV
             Fermi-level           -0.2922103 Eh           -7.9514 eV

     #   Z          covCN         q      C6AA      α(0)
     1   6 C        3.758    -0.111    22.680     6.790
     2   6 C        2.965     0.013    27.730     8.638
     3   6 C        2.927    -0.044    29.088     8.845
     4   6 C        2.915    -0.039    28.962     8.825
     5   6 C        2.925    -0.045    29.122     8.850
     6   6 C        2.969    -0.006    28.156     8.704
     7   6 C        3.757    -0.107    22.606     6.779
     8   6 C        2.913     0.056    26.749     8.481
     9   7 N        2.697    -0.166    24.589     7.365
    10   6 C        2.747     0.273    22.392     7.748
    11   6 C        3.764    -0.023    21.030     6.537
    12   7 N        2.727    -0.192    25.161     7.450
    13   6 C        3.756     0.017    20.345     6.431
    14   6 C        3.752    -0.109    22.637     6.785
    15   6 C        3.753     0.013    20.411     6.443
    16   6 C        3.752    -0.110    22.657     6.788
    17   8 O        0.857    -0.431    22.306     6.332
    18   1 H        0.925     0.037     2.487     2.466
    19   1 H        0.925     0.083     1.950     2.184
    20   1 H        0.925     0.038     2.471     2.458
    21   1 H        0.926     0.034     2.530     2.487
    22   1 H        0.926     0.031     2.577     2.510
    23   1 H        0.926     0.030     2.588     2.516
    24   1 H        0.924     0.038     2.473     2.459
    25   1 H        0.925     0.046     2.370     2.407
    26   1 H        0.925     0.045     2.388     2.417
    27   1 H        0.860     0.198     1.114     1.654
    28   1 H        0.923     0.042     2.424     2.435
    29   1 H        0.924     0.048     2.345     2.395
    30   1 H        0.924     0.031     2.570     2.507
    31   1 H        0.922     0.008     2.918     2.672
    32   1 H        0.925     0.053     2.284     2.363
    33   1 H        0.925     0.040     2.446     2.446
    34   1 H        0.925     0.039     2.462     2.454
    35   1 H        0.924     0.034     2.525     2.485
    36   1 H        0.923     0.012     2.861     2.645
    37   1 H        0.925     0.040     2.442     2.444
    38   1 H        0.925     0.040     2.445     2.445
    39   1 H        0.925     0.042     2.418     2.432

 Mol. C6AA /au·bohr⁶  :      13887.840447
 Mol. C8AA /au·bohr⁸  :     311579.779551
 Mol. α(0) /au        :        181.067488


Wiberg/Mayer (AO) data.
largest (>0.10) Wiberg bond orders for each atom

 ---------------------------------------------------------------------------
     #   Z sym  total        # sym  WBO       # sym  WBO       # sym  WBO
 ---------------------------------------------------------------------------
     1   6 C    3.994 --     2 C    1.033    20 H    0.984    18 H    0.974
                            19 H    0.952
     2   6 C    3.989 --     3 C    1.406     8 C    1.361     1 C    1.033
                             5 C    0.100
     3   6 C    3.991 --     4 C    1.447     2 C    1.406    21 H    0.968
                             6 C    0.103
     4   6 C    3.992 --     3 C    1.447     5 C    1.427    22 H    0.971
     5   6 C    3.990 --     6 C    1.428     4 C    1.427    23 H    0.968
                             2 C    0.100
     6   6 C    3.987 --     5 C    1.428     8 C    1.351     7 C    1.024
                             3 C    0.103
     7   6 C    3.996 --     6 C    1.024    26 H    0.984    24 H    0.968
                            25 H    0.968
     8   6 C    3.960 --     2 C    1.361     6 C    1.351     9 N    1.046
     9   7 N    3.484 --    10 C    1.233     8 C    1.046    27 H    0.906
                            17 O    0.179
    10   6 C    3.952 --    17 O    1.691     9 N    1.233    11 C    0.945
    11   6 C    3.984 --    12 N    1.002    28 H    0.963    29 H    0.952
                            10 C    0.945
    12   7 N    3.134 --    11 C    1.002    15 C    0.999    13 C    0.998
    13   6 C    3.986 --    14 C    1.017    12 N    0.998    30 H    0.972
                            31 H    0.966
    14   6 C    3.994 --    13 C    1.017    33 H    0.985    32 H    0.983
                            34 H    0.980
    15   6 C    3.986 --    16 C    1.015    12 N    0.999    35 H    0.973
                            36 H    0.968
    16   6 C    3.996 --    15 C    1.015    37 H    0.986    39 H    0.985
                            38 H    0.983
    17   8 O    2.017 --    10 C    1.691     9 N    0.179
    18   1 H    0.998 --     1 C    0.974
    19   1 H    0.993 --     1 C    0.952
    20   1 H    0.998 --     1 C    0.984
    21   1 H    0.998 --     3 C    0.968
    22   1 H    0.999 --     4 C    0.971
    23   1 H    0.998 --     5 C    0.968
    24   1 H    0.999 --     7 C    0.968
    25   1 H    0.998 --     7 C    0.968
    26   1 H    0.998 --     7 C    0.984
    27   1 H    0.960 --     9 N    0.906
    28   1 H    0.998 --    11 C    0.963
    29   1 H    0.997 --    11 C    0.952
    30   1 H    0.999 --    13 C    0.972
    31   1 H    1.000 --    13 C    0.966
    32   1 H    0.997 --    14 C    0.983
    33   1 H    0.998 --    14 C    0.985
    34   1 H    0.998 --    14 C    0.980
    35   1 H    0.998 --    15 C    0.973
    36   1 H    1.000 --    15 C    0.968
    37   1 H    0.998 --    16 C    0.986
    38   1 H    0.998 --    16 C    0.983
    39   1 H    0.998 --    16 C    0.985
 ---------------------------------------------------------------------------

Topologies differ in total number of bonds
Writing topology from bond orders to xtbtopo.mol

molecular dipole:
                 x           y           z       tot (Debye)
 q only:        0.516       0.295       1.274
   full:        0.993       0.512       1.332       4.421
molecular quadrupole (traceless):
                xx          xy          yy          xz          yz          zz
 q only:        3.876      -0.567       3.314      -0.203      -0.602      -7.190
  q+dip:        6.920       1.611       2.865      -1.780      -4.175      -9.785
   full:        5.850       0.631       3.980      -1.887      -2.148      -9.831

           -------------------------------------------------
          |                Geometry Summary                 |
           -------------------------------------------------

      molecular mass/u    :      234.3378104
   center of mass at/Å    :       -0.3450786      -0.0835421      -0.1428834
  moments of inertia/u·Å² :        0.6766480E+03   0.1693879E+04   0.1839776E+04
rotational constants/cm⁻¹ :        0.2491344E-01   0.9952089E-02   0.9162874E-02

 * 36 selected distances

     #   Z          #   Z                                           value/Å
     2   6 C        3   6 C                                       1.3896243
     3   6 C        4   6 C                                       1.3806297
     4   6 C        5   6 C                                       1.3833275
     5   6 C        6   6 C                                       1.3852714
     2   6 C        8   6 C                                       1.3984169
     6   6 C        8   6 C                                       1.4015617
     8   6 C        9   7 N                                       1.4077352
     9   7 N       10   6 C                                       1.3534114
    11   6 C       12   7 N                                       1.4566343
    12   7 N       13   6 C                                       1.4566924
    13   6 C       14   6 C                                       1.5233344
    12   7 N       15   6 C                                       1.4570201
    15   6 C       16   6 C                                       1.5260019 (max)
    10   6 C       17   8 O                                       1.2121890
     1   6 C       18   1 H                                       1.0896584
     1   6 C       19   1 H                                       1.0890441
     1   6 C       20   1 H                                       1.0866247
     3   6 C       21   1 H                                       1.0803264
     4   6 C       22   1 H                                       1.0797864
     5   6 C       23   1 H                                       1.0805646
     7   6 C       24   1 H                                       1.0913808
     7   6 C       25   1 H                                       1.0883452
     7   6 C       26   1 H                                       1.0867840
     9   7 N       27   1 H                                       1.0148618 (min)
    11   6 C       28   1 H                                       1.0983836
    11   6 C       29   1 H                                       1.0935536
    13   6 C       30   1 H                                       1.0940524
    13   6 C       31   1 H                                       1.1048553
    14   6 C       32   1 H                                       1.0858924
    14   6 C       33   1 H                                       1.0873660
    14   6 C       34   1 H                                       1.0867932
    15   6 C       35   1 H                                       1.0927524
    15   6 C       36   1 H                                       1.1023052
    16   6 C       37   1 H                                       1.0874417
    16   6 C       38   1 H                                       1.0871673
    16   6 C       39   1 H                                       1.0871259

 * 5 distinct bonds (by element types)

   Z      Z             #   av. dist./Å        max./Å        min./Å
   1 H    6 C          21     1.0895335     1.1048553     1.0797864
   6 C    6 C           8     1.4235210     1.5260019     1.3806297
   1 H    7 N           1     1.0148618     1.0148618     1.0148618
   6 C    7 N           5     1.4262987     1.4570201     1.3534114
   6 C    8 O           1     1.2121890     1.2121890     1.2121890


optimized geometry written to: xtbopt.xyz


           -------------------------------------------------
          | TOTAL ENERGY              -51.132794871849 Eh   |
          | GRADIENT NORM               0.000982667592 Eh/α |
          | HOMO-LUMO GAP               3.691899184391 eV   |
           -------------------------------------------------

------------------------------------------------------------------------
 * finished run on 2025/05/15 at 16:09:39.313     
------------------------------------------------------------------------
 total:
 * wall-time:     0 d,  0 h,  0 min,  1.175 sec
 *  cpu-time:     0 d,  0 h,  0 min,  0.782 sec
 * ratio c/w:     0.665 speedup
 SCF:
 * wall-time:     0 d,  0 h,  0 min,  0.073 sec
 *  cpu-time:     0 d,  0 h,  0 min,  0.044 sec
 * ratio c/w:     0.599 speedup
 ANC optimizer:
 * wall-time:     0 d,  0 h,  0 min,  1.090 sec
 *  cpu-time:     0 d,  0 h,  0 min,  0.727 sec
 * ratio c/w:     0.667 speedup



----- Single-point -----
      -----------------------------------------------------------      
     |                   =====================                   |     
     |                           x T B                           |     
     |                   =====================                   |     
     |                         S. Grimme                         |     
     |          Mulliken Center for Theoretical Chemistry        |     
     |                    University of Bonn                     |     
      -----------------------------------------------------------      

   * xtb version 6.7.1 (edcfbbe) compiled by 'conda@3ef47c1a292c' on 2024-11-25

   xtb is free software: you can redistribute it and/or modify it under
   the terms of the GNU Lesser General Public License as published by
   the Free Software Foundation, either version 3 of the License, or
   (at your option) any later version.
   
   xtb is distributed in the hope that it will be useful,
   but WITHOUT ANY WARRANTY; without even the implied warranty of
   MERCHANTABILITY or FITNESS FOR A PARTICULAR PURPOSE.  See the
   GNU Lesser General Public License for more details.
   
   Cite this work as:
   * C. Bannwarth, E. Caldeweyher, S. Ehlert, A. Hansen, P. Pracht,
     J. Seibert, S. Spicher, S. Grimme, WIREs Comput. Mol. Sci., 2020, 11,
     e01493. DOI: 10.1002/wcms.1493
   
   for GFN2-xTB:
   * C. Bannwarth, S. Ehlert and S. Grimme., J. Chem. Theory Comput., 2019,
     15, 1652-1671. DOI: 10.1021/acs.jctc.8b01176
   for GFN1-xTB:
   * S. Grimme, C. Bannwarth, P. Shushkov, J. Chem. Theory Comput., 2017,
     13, 1989-2009. DOI: 10.1021/acs.jctc.7b00118
   for GFN0-xTB:
   * P. Pracht, E. Caldeweyher, S. Ehlert, S. Grimme, ChemRxiv, 2019, preprint.
     DOI: 10.26434/chemrxiv.8326202.v1
   for GFN-FF:
   * S. Spicher and S. Grimme, Angew. Chem. Int. Ed., 2020, 59, 15665-15673.
     DOI: 10.1002/anie.202004239
   
   for ALPB and GBSA implicit solvation:
   * S. Ehlert, M. Stahn, S. Spicher, S. Grimme, J. Chem. Theory Comput.,
     2021, 17, 4250-4261. DOI: 10.1021/acs.jctc.1c00471
   
   for ddCOSMO and CPCM-X implicit solvation:
   * M. Stahn, S. Ehlert, S. Grimme, J. Phys. Chem. A,
     2023, XX, XXXX-XXXX. DOI: 10.1021/acs.jpca.3c04382
   
   for DFT-D4:
   * E. Caldeweyher, C. Bannwarth and S. Grimme, J. Chem. Phys., 2017,
     147, 034112. DOI: 10.1063/1.4993215
   * E. Caldeweyher, S. Ehlert, A. Hansen, H. Neugebauer, S. Spicher,
     C. Bannwarth and S. Grimme, J. Chem. Phys., 2019, 150, 154122.
     DOI: 10.1063/1.5090222
   * E. Caldeweyher, J.-M. Mewes, S. Ehlert and S. Grimme, Phys. Chem. Chem. Phys.
     2020, 22, 8499-8512. DOI: 10.1039/D0CP00502A
   
   for sTDA-xTB:
   * S. Grimme and C. Bannwarth, J. Chem. Phys., 2016, 145, 054103.
     DOI: 10.1063/1.4959605
   
   in the mass-spec context:
   * V. Asgeirsson, C. Bauer and S. Grimme, Chem. Sci., 2017, 8, 4879.
     DOI: 10.1039/c7sc00601b
   * J. Koopman and S. Grimme, ACS Omega 2019, 4, 12, 15120-15133.
     DOI: 10.1021/acsomega.9b02011
   
   for metadynamics refer to:
   * S. Grimme, J. Chem. Theory Comput., 2019, 155, 2847-2862
     DOI: 10.1021/acs.jctc.9b00143
   
   for SPH calculations refer to:
   * S. Spicher and S. Grimme, J. Chem. Theory Comput., 2021, 17, 1701-1714
     DOI: 10.1021/acs.jctc.0c01306
   
   for ONIOM refer to:
   * C. Plett, A. Katbashev, S. Ehlert, S. Grimme, M. Bursch,
     Phys. Chem. Chem. Phys., 2023, 25, 17860-17868. DOI: 10.1039/D3CP02178E
   
   for DIPRO refer to:
   * J. Kohn, N. Gildemeister, S. Grimme, D. Fazzi, A. Hansen,
     J. Chem. Phys., 2023, just accepted.
   
   for PTB refer to:
   * S. Grimme, M. Mueller, A. Hansen, J. Chem. Phys., 2023, 158, 124111.
     DOI: 10.1063/5.0137838
   
   with help from (in alphabetical order)
   P. Atkinson, C. Bannwarth, F. Bohle, G. Brandenburg, E. Caldeweyher
   M. Checinski, S. Dohm, S. Ehlert, S. Ehrlich, I. Gerasimov, C. Hölzer
   A. Katbashev, J. Kohn, J. Koopman, C. Lavigne, S. Lehtola, F. März, M. Müller,
   F. Musil, H. Neugebauer, J. Pisarek, C. Plett, P. Pracht, F. Pultar,
   J. Seibert, P. Shushkov, S. Spicher, M. Stahn, M. Steiner, T. Strunk,
   J. Stückrath, T. Rose, and J. Unsleber
   
 * started run on 2025/05/15 at 16:09:39.334     
   ID    Z sym.   atoms
    1    6 C      1-8, 10, 11, 13-16
    2    7 N      9, 12
    3    8 O      17
    4    1 H      18-39

           -------------------------------------------------
          |                Calculation Setup                |
           -------------------------------------------------

          program call               : xtb /rds/general/user/hgt20/home/callum/QDESCP/Lidocaine_rdkit_conf_4/Lidocaine_rdkit_conf_4.xyz --acc 1 --gfn 2 --chrg 0 --uhf 0 --etemp 300 --input /rds/general/user/hgt20/home/callum/QDESCP/Lidocaine_rdkit_conf_4/Lidocaine_rdkit_conf_4_xtb.inp -P 1
          hostname                   : login-c
          coordinate file            : /rds/general/user/hgt20/home/callum/QDESCP/Lidocaine_rdkit_conf_4/Lidocaine_rdkit_conf_4.xyz
          omp threads                :                     1


           -------------------------------------------------
          |                 G F N 2 - x T B                 |
           -------------------------------------------------

        Reference                      10.1021/acs.jctc.8b01176
      * Hamiltonian:
        H0-scaling (s, p, d)           1.850000    2.230000    2.230000
        zeta-weighting                 0.500000
      * Dispersion:
        s8                             2.700000
        a1                             0.520000
        a2                             5.000000
        s9                             5.000000
      * Repulsion:
        kExp                           1.500000    1.000000
        rExp                           1.000000
      * Coulomb:
        alpha                          2.000000
        third order                    shell-resolved
        anisotropic                    true
        a3                             3.000000
        a5                             4.000000
        cn-shift                       1.200000
        cn-exp                         4.000000
        max-rad                        5.000000

q/qsh data taken from xtbrestart
CAMM data taken from xtbrestart

          ...................................................
          :                      SETUP                      :
          :.................................................:
          :  # basis functions                  90          :
          :  # atomic orbitals                  90          :
          :  # shells                           56          :
          :  # electrons                        94          :
          :  max. iterations                   250          :
          :  Hamiltonian                  GFN2-xTB          :
          :  restarted?                       true          :
          :  GBSA solvation                  false          :
          :  PC potential                    false          :
          :  electronic temp.          300.0000000     K    :
          :  accuracy                    1.0000000          :
          :  -> integral cutoff          0.2500000E+02      :
          :  -> integral neglect         0.1000000E-07      :
          :  -> SCF convergence          0.1000000E-05 Eh   :
          :  -> wf. convergence          0.1000000E-03 e    :
          :  Broyden damping             0.4000000          :
          :  net charge                          0          :
          :  unpaired electrons                  0          :
          ...................................................

 iter      E             dE          RMSdq      gap      omega  full diag
   1    -51.8908456 -0.518908E+02  0.394E-06    3.69       0.0  T
   2    -51.8908456  0.710543E-14  0.213E-06    3.69    7515.4  T
   3    -51.8908456 -0.298428E-12  0.126E-06    3.69   12728.3  T

   *** convergence criteria satisfied after 3 iterations ***

         #    Occupation            Energy/Eh            Energy/eV
      -------------------------------------------------------------
         1        2.0000           -0.6925583             -18.8455
       ...           ...                  ...                  ...
        41        2.0000           -0.4314435             -11.7402
        42        2.0000           -0.4212404             -11.4625
        43        2.0000           -0.4153780             -11.3030
        44        2.0000           -0.3942189             -10.7272
        45        2.0000           -0.3845584             -10.4644
        46        2.0000           -0.3731447             -10.1538
        47        2.0000           -0.3600478              -9.7974 (HOMO)
        48                         -0.2243729              -6.1055 (LUMO)
        49                         -0.2119696              -5.7680
        50                         -0.1897843              -5.1643
        51                         -0.0862125              -2.3460
        52                          0.0036661               0.0998
       ...                                ...                  ...
        90                          0.6837087              18.6047
      -------------------------------------------------------------
                  HL-Gap            0.1356748 Eh            3.6919 eV
             Fermi-level           -0.2922103 Eh           -7.9514 eV

 SCC (total)                   0 d,  0 h,  0 min,  0.056 sec
 SCC setup                      ...        0 min,  0.000 sec (  0.503%)
 Dispersion                     ...        0 min,  0.000 sec (  0.656%)
 classical contributions        ...        0 min,  0.000 sec (  0.218%)
 integral evaluation            ...        0 min,  0.006 sec ( 10.579%)
 iterations                     ...        0 min,  0.006 sec ( 10.198%)
 molecular gradient             ...        0 min,  0.044 sec ( 77.530%)
 printout                       ...        0 min,  0.000 sec (  0.306%)

         :::::::::::::::::::::::::::::::::::::::::::::::::::::
         ::                     SUMMARY                     ::
         :::::::::::::::::::::::::::::::::::::::::::::::::::::
         :: total energy             -51.132794871868 Eh    ::
         :: gradient norm              0.000982751172 Eh/a0 ::
         :: HOMO-LUMO gap              3.691900194205 eV    ::
         ::.................................................::
         :: SCC energy               -51.890161113066 Eh    ::
         :: -> isotropic ES            0.047322865343 Eh    ::
         :: -> anisotropic ES          0.007023148578 Eh    ::
         :: -> anisotropic XC          0.027666086787 Eh    ::
         :: -> dispersion             -0.037906321716 Eh    ::
         :: repulsion energy           0.757366241198 Eh    ::
         :: add. restraining           0.000000000000 Eh    ::
         :: total charge              -0.000000000000 e     ::
         :::::::::::::::::::::::::::::::::::::::::::::::::::::

           -------------------------------------------------
          |                Property Printout                |
           -------------------------------------------------

    * Orbital Energies and Occupations

         #    Occupation            Energy/Eh            Energy/eV
      -------------------------------------------------------------
         1        2.0000           -0.6925583             -18.8455
       ...           ...                  ...                  ...
        35        2.0000           -0.4604097             -12.5284
        36        2.0000           -0.4566072             -12.4249
        37        2.0000           -0.4497142             -12.2373
        38        2.0000           -0.4476419             -12.1810
        39        2.0000           -0.4448305             -12.1045
        40        2.0000           -0.4426800             -12.0459
        41        2.0000           -0.4314435             -11.7402
        42        2.0000           -0.4212404             -11.4625
        43        2.0000           -0.4153780             -11.3030
        44        2.0000           -0.3942189             -10.7272
        45        2.0000           -0.3845584             -10.4644
        46        2.0000           -0.3731447             -10.1538
        47        2.0000           -0.3600478              -9.7974 (HOMO)
        48                         -0.2243729              -6.1055 (LUMO)
        49                         -0.2119696              -5.7680
        50                         -0.1897843              -5.1643
        51                         -0.0862125              -2.3460
        52                          0.0036661               0.0998
        53                          0.0226433               0.6162
        54                          0.0665381               1.8106
        55                          0.0822213               2.2374
        56                          0.0935688               2.5461
        57                          0.0988122               2.6888
        58                          0.1055050               2.8709
       ...                                ...                  ...
        90                          0.6837087              18.6047
      -------------------------------------------------------------
                  HL-Gap            0.1356748 Eh            3.6919 eV
             Fermi-level           -0.2922103 Eh           -7.9514 eV

     #   Z          covCN         q      C6AA      α(0)
     1   6 C        3.758    -0.111    22.680     6.790
     2   6 C        2.965     0.013    27.730     8.638
     3   6 C        2.927    -0.044    29.088     8.845
     4   6 C        2.915    -0.039    28.962     8.825
     5   6 C        2.925    -0.045    29.122     8.850
     6   6 C        2.969    -0.006    28.156     8.704
     7   6 C        3.757    -0.107    22.606     6.779
     8   6 C        2.913     0.056    26.749     8.481
     9   7 N        2.697    -0.166    24.589     7.365
    10   6 C        2.747     0.273    22.392     7.748
    11   6 C        3.764    -0.023    21.030     6.537
    12   7 N        2.727    -0.192    25.161     7.450
    13   6 C        3.756     0.017    20.345     6.431
    14   6 C        3.752    -0.109    22.637     6.785
    15   6 C        3.753     0.013    20.411     6.443
    16   6 C        3.752    -0.110    22.657     6.788
    17   8 O        0.857    -0.431    22.306     6.332
    18   1 H        0.925     0.037     2.487     2.466
    19   1 H        0.925     0.083     1.950     2.184
    20   1 H        0.925     0.038     2.471     2.458
    21   1 H        0.926     0.034     2.530     2.487
    22   1 H        0.926     0.031     2.577     2.510
    23   1 H        0.926     0.030     2.588     2.516
    24   1 H        0.924     0.038     2.473     2.459
    25   1 H        0.925     0.046     2.370     2.407
    26   1 H        0.925     0.045     2.388     2.417
    27   1 H        0.860     0.198     1.114     1.654
    28   1 H        0.923     0.042     2.424     2.435
    29   1 H        0.924     0.048     2.345     2.395
    30   1 H        0.924     0.031     2.570     2.507
    31   1 H        0.922     0.008     2.918     2.672
    32   1 H        0.925     0.053     2.284     2.363
    33   1 H        0.925     0.040     2.446     2.446
    34   1 H        0.925     0.039     2.462     2.454
    35   1 H        0.924     0.034     2.525     2.485
    36   1 H        0.923     0.012     2.861     2.645
    37   1 H        0.925     0.040     2.442     2.444
    38   1 H        0.925     0.040     2.445     2.445
    39   1 H        0.925     0.042     2.418     2.432

 Mol. C6AA /au·bohr⁶  :      13887.840356
 Mol. C8AA /au·bohr⁸  :     311579.779536
 Mol. α(0) /au        :        181.067487


Wiberg/Mayer (AO) data.
largest (>0.10) Wiberg bond orders for each atom

 ---------------------------------------------------------------------------
     #   Z sym  total        # sym  WBO       # sym  WBO       # sym  WBO
 ---------------------------------------------------------------------------
     1   6 C    3.994 --     2 C    1.033    20 H    0.984    18 H    0.974
                            19 H    0.952
     2   6 C    3.989 --     3 C    1.406     8 C    1.361     1 C    1.033
                             5 C    0.100
     3   6 C    3.991 --     4 C    1.447     2 C    1.406    21 H    0.968
                             6 C    0.103
     4   6 C    3.992 --     3 C    1.447     5 C    1.427    22 H    0.971
     5   6 C    3.990 --     6 C    1.428     4 C    1.427    23 H    0.968
                             2 C    0.100
     6   6 C    3.987 --     5 C    1.428     8 C    1.351     7 C    1.024
                             3 C    0.103
     7   6 C    3.996 --     6 C    1.024    26 H    0.984    24 H    0.968
                            25 H    0.968
     8   6 C    3.960 --     2 C    1.361     6 C    1.351     9 N    1.046
     9   7 N    3.484 --    10 C    1.233     8 C    1.046    27 H    0.906
                            17 O    0.179
    10   6 C    3.952 --    17 O    1.691     9 N    1.233    11 C    0.945
    11   6 C    3.984 --    12 N    1.002    28 H    0.963    29 H    0.952
                            10 C    0.945
    12   7 N    3.134 --    11 C    1.002    15 C    0.999    13 C    0.998
    13   6 C    3.986 --    14 C    1.017    12 N    0.998    30 H    0.972
                            31 H    0.966
    14   6 C    3.994 --    13 C    1.017    33 H    0.985    32 H    0.983
                            34 H    0.980
    15   6 C    3.986 --    16 C    1.015    12 N    0.999    35 H    0.973
                            36 H    0.968
[...]
   
   for GFN2-xTB:
   * C. Bannwarth, S. Ehlert and S. Grimme., J. Chem. Theory Comput., 2019,
     15, 1652-1671. DOI: 10.1021/acs.jctc.8b01176
   for GFN1-xTB:
   * S. Grimme, C. Bannwarth, P. Shushkov, J. Chem. Theory Comput., 2017,
     13, 1989-2009. DOI: 10.1021/acs.jctc.7b00118
   for GFN0-xTB:
   * P. Pracht, E. Caldeweyher, S. Ehlert, S. Grimme, ChemRxiv, 2019, preprint.
     DOI: 10.26434/chemrxiv.8326202.v1
   for GFN-FF:
   * S. Spicher and S. Grimme, Angew. Chem. Int. Ed., 2020, 59, 15665-15673.
     DOI: 10.1002/anie.202004239
   
   for ALPB and GBSA implicit solvation:
   * S. Ehlert, M. Stahn, S. Spicher, S. Grimme, J. Chem. Theory Comput.,
     2021, 17, 4250-4261. DOI: 10.1021/acs.jctc.1c00471
   
   for ddCOSMO and CPCM-X implicit solvation:
   * M. Stahn, S. Ehlert, S. Grimme, J. Phys. Chem. A,
     2023, XX, XXXX-XXXX. DOI: 10.1021/acs.jpca.3c04382
   
   for DFT-D4:
   * E. Caldeweyher, C. Bannwarth and S. Grimme, J. Chem. Phys., 2017,
     147, 034112. DOI: 10.1063/1.4993215
   * E. Caldeweyher, S. Ehlert, A. Hansen, H. Neugebauer, S. Spicher,
     C. Bannwarth and S. Grimme, J. Chem. Phys., 2019, 150, 154122.
     DOI: 10.1063/1.5090222
   * E. Caldeweyher, J.-M. Mewes, S. Ehlert and S. Grimme, Phys. Chem. Chem. Phys.
     2020, 22, 8499-8512. DOI: 10.1039/D0CP00502A
   
   for sTDA-xTB:
   * S. Grimme and C. Bannwarth, J. Chem. Phys., 2016, 145, 054103.
     DOI: 10.1063/1.4959605
   
   in the mass-spec context:
   * V. Asgeirsson, C. Bauer and S. Grimme, Chem. Sci., 2017, 8, 4879.
     DOI: 10.1039/c7sc00601b
   * J. Koopman and S. Grimme, ACS Omega 2019, 4, 12, 15120-15133.
     DOI: 10.1021/acsomega.9b02011
   
   for metadynamics refer to:
   * S. Grimme, J. Chem. Theory Comput., 2019, 155, 2847-2862
     DOI: 10.1021/acs.jctc.9b00143
   
   for SPH calculations refer to:
   * S. Spicher and S. Grimme, J. Chem. Theory Comput., 2021, 17, 1701-1714
     DOI: 10.1021/acs.jctc.0c01306
   
   for ONIOM refer to:
   * C. Plett, A. Katbashev, S. Ehlert, S. Grimme, M. Bursch,
     Phys. Chem. Chem. Phys., 2023, 25, 17860-17868. DOI: 10.1039/D3CP02178E
   
   for DIPRO refer to:
   * J. Kohn, N. Gildemeister, S. Grimme, D. Fazzi, A. Hansen,
     J. Chem. Phys., 2023, just accepted.
   
   for PTB refer to:
   * S. Grimme, M. Mueller, A. Hansen, J. Chem. Phys., 2023, 158, 124111.
     DOI: 10.1063/5.0137838
   
   with help from (in alphabetical order)
   P. Atkinson, C. Bannwarth, F. Bohle, G. Brandenburg, E. Caldeweyher
   M. Checinski, S. Dohm, S. Ehlert, S. Ehrlich, I. Gerasimov, C. Hölzer
   A. Katbashev, J. Kohn, J. Koopman, C. Lavigne, S. Lehtola, F. März, M. Müller,
   F. Musil, H. Neugebauer, J. Pisarek, C. Plett, P. Pracht, F. Pultar,
   J. Seibert, P. Shushkov, S. Spicher, M. Stahn, M. Steiner, T. Strunk,
   J. Stückrath, T. Rose, and J. Unsleber
   
 * started run on 2025/05/15 at 16:09:40.838     
   ID    Z sym.   atoms
    1    6 C      1-8, 10, 11, 13-16
    2    7 N      9, 12
    3    8 O      17
    4    1 H      18-39

           -------------------------------------------------
          |                Calculation Setup                |
           -------------------------------------------------

          program call               : xtb /rds/general/user/hgt20/home/callum/QDESCP/Lidocaine_rdkit_conf_4/Lidocaine_rdkit_conf_4.xyz --acc 1 --gfn 2 --chrg 0 --uhf 2 --etemp 300 --input /rds/general/user/hgt20/home/callum/QDESCP/Lidocaine_rdkit_conf_4/Lidocaine_rdkit_conf_4_xtb.inp -P 1
          hostname                   : login-c
          coordinate file            : /rds/general/user/hgt20/home/callum/QDESCP/Lidocaine_rdkit_conf_4/Lidocaine_rdkit_conf_4.xyz
          omp threads                :                     1


           -------------------------------------------------
          |                 G F N 2 - x T B                 |
           -------------------------------------------------

        Reference                      10.1021/acs.jctc.8b01176
      * Hamiltonian:
        H0-scaling (s, p, d)           1.850000    2.230000    2.230000
        zeta-weighting                 0.500000
      * Dispersion:
        s8                             2.700000
        a1                             0.520000
        a2                             5.000000
        s9                             5.000000
      * Repulsion:
        kExp                           1.500000    1.000000
        rExp                           1.000000
      * Coulomb:
        alpha                          2.000000
        third order                    shell-resolved
        anisotropic                    true
        a3                             3.000000
        a5                             4.000000
        cn-shift                       1.200000
        cn-exp                         4.000000
        max-rad                        5.000000


          ...................................................
          :                      SETUP                      :
          :.................................................:
          :  # basis functions                  90          :
          :  # atomic orbitals                  90          :
          :  # shells                           56          :
          :  # electrons                        94          :
          :  max. iterations                   250          :
          :  Hamiltonian                  GFN2-xTB          :
          :  restarted?                      false          :
          :  GBSA solvation                  false          :
          :  PC potential                    false          :
          :  electronic temp.          300.0000000     K    :
          :  accuracy                    1.0000000          :
          :  -> integral cutoff          0.2500000E+02      :
          :  -> integral neglect         0.1000000E-07      :
          :  -> SCF convergence          0.1000000E-05 Eh   :
          :  -> wf. convergence          0.1000000E-03 e    :
          :  Broyden damping             0.4000000          :
          :  net charge                          0          :
          :  unpaired electrons                  2          :
          ...................................................

 iter      E             dE          RMSdq      gap      omega  full diag
   1    -51.4443457 -0.514443E+02  0.312E+00    0.15       0.0  T
   2    -51.4279878  0.163580E-01  0.311E+00    1.25       1.0  T
   3    -51.5465892 -0.118601E+00  0.203E+00    0.15       1.0  T
   4    -51.5195290  0.270602E-01  0.227E+00    1.19       1.0  T
   5    -51.6332814 -0.113752E+00  0.142E+00    0.51       1.0  T
   6    -51.7023652 -0.690838E-01  0.876E-01    0.42       1.0  T
   7    -51.7259604 -0.235952E-01  0.597E-01    0.36       1.0  T
   8    -51.7393457 -0.133853E-01  0.340E-01    0.29       1.0  T
   9    -51.7376790  0.166668E-02  0.259E-01    0.24       1.0  T
  10    -51.7353329  0.234613E-02  0.324E-01    0.31       1.0  T
  11    -51.7424117 -0.707875E-02  0.761E-02    0.28       1.0  T
  12    -51.7426402 -0.228583E-03  0.272E-02    0.27       1.0  T
  13    -51.7426689 -0.286378E-04  0.161E-02    0.27       1.0  T
  14    -51.7426643  0.462002E-05  0.153E-02    0.27       1.0  T
  15    -51.7426810 -0.167401E-04  0.287E-03    0.27       5.6  T
  16    -51.7426816 -0.580624E-06  0.504E-04    0.27      31.8  T
  17    -51.7426816  0.150192E-08  0.326E-04    0.27      49.2  T

   *** convergence criteria satisfied after 17 iterations ***

         #    Occupation            Energy/Eh            Energy/eV
      -------------------------------------------------------------
         1        2.0000           -0.6852922             -18.6477
       ...           ...                  ...                  ...
        42        2.0000           -0.4135312             -11.2528
        43        2.0000           -0.4086231             -11.1192
        44        2.0000           -0.3962418             -10.7823
        45        1.9998           -0.3771074             -10.2616
        46        1.9743           -0.3726145             -10.1394
        47        1.0260           -0.3657185              -9.9517
        48        0.9947           -0.2135017              -5.8097 (HOMO)
        49        0.0053           -0.2035391              -5.5386 (LUMO)
        50                         -0.1803189              -4.9067
        51                         -0.0766845              -2.0867
        52                         -0.0064736              -0.1762
        53                          0.0236802               0.6444
       ...                                ...                  ...
        90                          0.6926647              18.8484
      -------------------------------------------------------------
                  HL-Gap            0.0099627 Eh            0.2711 eV
             Fermi-level           -0.2888412 Eh           -7.8598 eV

 transition dipole moment (au) for excitation:          47          48
     X       Y       Z   
  -1.1179  -0.5754   0.6581  total (au/Debye):    1.419   3.607
 dE (eV)             :    4.142
 oscillator strength :  0.28902E+00

 SCC (total)                   0 d,  0 h,  0 min,  0.057 sec
 SCC setup                      ...        0 min,  0.000 sec (  0.513%)
 Dispersion                     ...        0 min,  0.000 sec (  0.654%)
 classical contributions        ...        0 min,  0.000 sec (  0.215%)
 integral evaluation            ...        0 min,  0.006 sec ( 10.473%)
 iterations                     ...        0 min,  0.026 sec ( 45.098%)
 molecular gradient             ...        0 min,  0.019 sec ( 33.816%)
 printout                       ...        0 min,  0.005 sec (  9.218%)

         :::::::::::::::::::::::::::::::::::::::::::::::::::::
         ::                     SUMMARY                     ::
         :::::::::::::::::::::::::::::::::::::::::::::::::::::
         :: total energy             -50.984630873047 Eh    ::
         :: gradient norm              0.149480213809 Eh/a0 ::
         :: HOMO-LUMO gap              0.271097515246 eV    ::
         ::.................................................::
         :: SCC energy               -51.741997114246 Eh    ::
         :: -> isotropic ES            0.044447843511 Eh    ::
         :: -> anisotropic ES          0.007368416473 Eh    ::
         :: -> anisotropic XC          0.025258272645 Eh    ::
         :: -> dispersion             -0.037840748741 Eh    ::
         :: repulsion energy           0.757366241198 Eh    ::
         :: add. restraining           0.000000000000 Eh    ::
         :: total charge              -0.000000000000 e     ::
         :::::::::::::::::::::::::::::::::::::::::::::::::::::

           -------------------------------------------------
          |                Property Printout                |
           -------------------------------------------------

    * Orbital Energies and Occupations

         #    Occupation            Energy/Eh            Energy/eV
      -------------------------------------------------------------
         1        2.0000           -0.6852922             -18.6477
       ...           ...                  ...                  ...
        36        2.0000           -0.4585738             -12.4784
        37        2.0000           -0.4546665             -12.3721
        38        2.0000           -0.4482829             -12.1984
        39        2.0000           -0.4454109             -12.1202
        40        2.0000           -0.4400975             -11.9757
        41        2.0000           -0.4262500             -11.5989
        42        2.0000           -0.4135312             -11.2528
        43        2.0000           -0.4086231             -11.1192
        44        2.0000           -0.3962418             -10.7823
        45        1.9998           -0.3771074             -10.2616
        46        1.9743           -0.3726145             -10.1394
        47        1.0260           -0.3657185              -9.9517
        48        0.9947           -0.2135017              -5.8097 (HOMO)
        49        0.0053           -0.2035391              -5.5386 (LUMO)
        50                         -0.1803189              -4.9067
        51                         -0.0766845              -2.0867
        52                         -0.0064736              -0.1762
        53                          0.0236802               0.6444
        54                          0.0573361               1.5602
        55                          0.0754264               2.0525
        56                          0.0925219               2.5176
        57                          0.0969615               2.6385
        58                          0.1026970               2.7945
        59                          0.1209077               3.2901
       ...                                ...                  ...
        90                          0.6926647              18.8484
      -------------------------------------------------------------
                  HL-Gap            0.0099627 Eh            0.2711 eV
             Fermi-level           -0.2888412 Eh           -7.8598 eV

     #   Z          covCN         q      C6AA      α(0)
     1   6 C        3.758    -0.112    22.693     6.792
     2   6 C        2.965     0.016    27.654     8.626
     3   6 C        2.927    -0.055    29.360     8.886
     4   6 C        2.915    -0.049    29.212     8.863
     5   6 C        2.925    -0.042    29.039     8.837
     6   6 C        2.969    -0.017    28.430     8.746
     7   6 C        3.757    -0.106    22.577     6.774
     8   6 C        2.913     0.044    27.004     8.521
     9   7 N        2.697    -0.144    24.109     7.292
    10   6 C        2.747     0.223    23.295     7.903
    11   6 C        3.764    -0.019    20.949     6.524
    12   7 N        2.727    -0.157    24.399     7.336
    13   6 C        3.756     0.013    20.412     6.442
    14   6 C        3.752    -0.111    22.679     6.791
    15   6 C        3.753     0.010    20.473     6.452
    16   6 C        3.752    -0.111    22.677     6.791
    17   8 O        0.857    -0.429    22.275     6.328
    18   1 H        0.925     0.042     2.418     2.432
    19   1 H        0.925     0.094     1.840     2.121
    20   1 H        0.925     0.040     2.449     2.447
    21   1 H        0.926     0.025     2.652     2.547
    22   1 H        0.926     0.021     2.717     2.578
    23   1 H        0.926     0.024     2.670     2.555
    24   1 H        0.924     0.033     2.540     2.492
    25   1 H        0.925     0.041     2.435     2.440
    26   1 H        0.925     0.042     2.421     2.433
    27   1 H        0.860     0.193     1.143     1.675
    28   1 H        0.923     0.047     2.360     2.403
    29   1 H        0.924     0.046     2.365     2.405
    30   1 H        0.924     0.036     2.508     2.476
    31   1 H        0.922     0.019     2.756     2.596
    32   1 H        0.925     0.059     2.207     2.323
    33   1 H        0.925     0.042     2.416     2.431
    34   1 H        0.925     0.044     2.400     2.423
    35   1 H        0.924     0.039     2.456     2.451
    36   1 H        0.923     0.022     2.708     2.573
    37   1 H        0.925     0.044     2.396     2.421
    38   1 H        0.925     0.044     2.393     2.419
    39   1 H        0.925     0.046     2.374     2.410

 Mol. C6AA /au·bohr⁶  :      13867.773700
 Mol. C8AA /au·bohr⁸  :     311474.293500
 Mol. α(0) /au        :        180.956364


Wiberg/Mayer (AO) data.
largest (>0.10) Wiberg bond orders for each atom

 ---------------------------------------------------------------------------
     #   Z sym  total        # sym  WBO       # sym  WBO       # sym  WBO
 ---------------------------------------------------------------------------
     1   6 C    3.991 --     2 C    1.045    20 H    0.984    18 H    0.968
                            19 H    0.933
     2   6 C    3.956 --     3 C    1.528     8 C    1.141     1 C    1.045
     3   6 C    3.970 --     2 C    1.528     4 C    1.271    21 H    0.968
     4   6 C    3.818 --     3 C    1.271     5 C    1.264    22 H    0.972
     5   6 C    3.969 --     6 C    1.552     4 C    1.264    23 H    0.969
     6   6 C    3.949 --     5 C    1.552     8 C    1.128     7 C    1.026
     7   6 C    3.996 --     6 C    1.026    26 H    0.984    24 H    0.966
                            25 H    0.966
     8   6 C    3.814 --     9 N    1.165     2 C    1.141     6 C    1.128
                            10 C    0.112
     9   7 N    3.501 --     8 C    1.165    10 C    1.130    27 H    0.905
                            17 O    0.120
    10   6 C    3.896 --    17 O    1.557     9 N    1.130    11 C    0.914
                             8 C    0.112
    11   6 C    3.963 --    12 N    1.012    28 H    0.961    29 H    0.950
                            10 C    0.914
    12   7 N    3.205 --    11 C    1.012    13 C    0.997    15 C    0.995
    13   6 C    3.981 --    14 C    1.016    12 N    0.997    30 H    0.972
                            31 H    0.961
    14   6 C    3.992 --    13 C    1.016    33 H    0.984    32 H    0.982
                            34 H    0.980
    15   6 C    3.980 --    16 C    1.014    12 N    0.995    35 H    0.972
                            36 H    0.965
    16   6 C    3.993 --    15 C    1.014    37 H    0.985    39 H    0.984
                            38 H    0.982
    17   8 O    2.042 --    10 C    1.557     9 N    0.120
    18   1 H    0.997 --     1 C    0.968
    19   1 H    0.989 --     1 C    0.933
    20   1 H    0.998 --     1 C    0.984
    21   1 H    0.998 --     3 C    0.968
    22   1 H    0.999 --     4 C    0.972
    23   1 H    0.998 --     5 C    0.969
    24   1 H    0.998 --     7 C    0.966
    25   1 H    0.997 --     7 C    0.966
    26   1 H    0.998 --     7 C    0.984
    27   1 H    0.962 --     9 N    0.905
    28   1 H    0.994 --    11 C    0.961
    29   1 H    0.992 --    11 C    0.950
    30   1 H    0.998 --    13 C    0.972
    31   1 H    0.992 --    13 C    0.961
    32   1 H    0.996 --    14 C    0.982
    33   1 H    0.998 --    14 C    0.984
    34   1 H    0.998 --    14 C    0.980
    35   1 H    0.998 --    15 C    0.972
    36   1 H    0.993 --    15 C    0.965
    37   1 H    0.998 --    16 C    0.985
    38   1 H    0.998 --    16 C    0.982
    39   1 H    0.998 --    16 C    0.984
 ---------------------------------------------------------------------------

Topologies differ in total number of bonds
Writing topology from bond orders to xtbtopo.mol

molecular dipole:
                 x           y           z       tot (Debye)
 q only:        1.197       0.592       1.164
   full:        1.675       0.813       1.258       5.712
molecular quadrupole (traceless):
                xx          xy          yy          xz          yz          zz
 q only:        3.354      -1.668       3.634       0.462       0.226      -6.989
  q+dip:        6.450       0.693       3.342      -1.304      -3.272      -9.792
   full:        5.342      -0.254       4.231      -1.299      -1.422      -9.573


           -------------------------------------------------
          | TOTAL ENERGY              -50.984630873047 Eh   |
          | GRADIENT NORM               0.149480213809 Eh/α |
          | HOMO-LUMO GAP               0.271097515246 eV   |
           -------------------------------------------------

------------------------------------------------------------------------
 * finished run on 2025/05/15 at 16:09:40.906     
------------------------------------------------------------------------
 total:
 * wall-time:     0 d,  0 h,  0 min,  0.068 sec
 *  cpu-time:     0 d,  0 h,  0 min,  0.067 sec
 * ratio c/w:     0.971 speedup
 SCF:
 * wall-time:     0 d,  0 h,  0 min,  0.057 sec
 *  cpu-time:     0 d,  0 h,  0 min,  0.057 sec
 * ratio c/w:     0.994 speedup


