39
 energy: -51.132794871849 gnorm: 0.000982667592 xtb: 6.7.1 (edcfbbe)
C           -2.97259128683894        1.06745948076666       -1.50953730030967
C           -2.89331582455128       -0.05209614909013       -0.52197556354380
C           -4.04183656315847       -0.75814235831519       -0.18514611464238
C           -4.02099800870192       -1.74518692849824        0.77996878678454
C           -2.84192060266176       -2.02565159553243        1.44683509603606
C           -1.67220037985890       -1.35534286821395        1.12837413911583
C           -0.40413279416897       -1.65486643615713        1.87454187502372
C           -1.69411597862611       -0.38858599659843        0.11384192976631
N           -0.49034048235774        0.27161375844995       -0.19725122814398
C            0.06936496444551        0.48087164802415       -1.41160823704511
C            1.41952851236641        1.19182769413111       -1.27331972950861
N            2.19387930346026        0.65269618005182       -0.16358957085188
C            3.10747447834458       -0.39252048502714       -0.60497171794636
C            2.38636701589568       -1.57616438569201       -1.23706221957557
C            2.86444904521998        1.68366438489255        0.61765810007209
C            1.89124789067402        2.39620489692523        1.55245588739197
O           -0.41056454922809        0.18880872507656       -2.48574457189223
H           -2.46554966587701        1.95157006549863       -1.12403450874153
H           -2.47947548711184        0.78931558456369       -2.43985422434830
H           -4.00898821112955        1.31697932109677       -1.72018910306090
H           -4.96887390010903       -0.51478211795628       -0.68362634935674
H           -4.92390659782318       -2.28375705922928        1.02621410564418
H           -2.82617283455146       -2.77897609596720        2.22135033099442
H           -0.11008600837833       -0.80430155658707        2.49194580837544
H            0.41400643885818       -1.87490802221659        1.19136919717376
H           -0.54526232502956       -2.51103850410509        2.52887447291314
H            0.17173728899602        0.38285230933412        0.56381593653712
H            1.95331398214870        1.12554446621151       -2.23098669521768
H            1.19809169898145        2.24771586340858       -1.09464378970067
H            3.65315405797032       -0.74326992319992        0.27602714314069
H            3.84621825473681        0.00475541479066       -1.32409232147189
H            1.85468830073454       -1.28807423477965       -2.13899558559793
H            3.11302155110272       -2.34193485505927       -1.49770249196507
H            1.66956311646232       -2.00473367641827       -0.54162002425606
H            3.63221549161509        1.19902877887124        1.22574571002365
H            3.36990080082289        2.42058456361648       -0.02774392468789
H            1.45132143859023        1.68590366955720        2.24849193865871
H            1.08985984894732        2.88280161249301        1.00206199879782
H            2.42112801978879        3.15423483088421        2.12382281541730
