34
 energy: -55.036343154864 gnorm: 0.000679781313 xtb: 6.7.1 (edcfbbe)
C           -4.08446058397488        0.31001673672783       -0.13506654966658
C           -2.86409352213106       -0.46398642844845       -0.53376052711445
C           -1.59037280605105       -0.06148902625855       -0.11902545972454
N           -1.49224639796602        1.02329033761485        0.75469710080270
C           -0.54703507019125        1.98797721570348        0.91700081656640
C            0.71720828243204        1.91895083249093        0.14884529226995
C            1.36160510523341        0.74974424359732       -0.29420478728505
N            0.83170018119622       -0.52555743934911       -0.17994985299399
C           -0.48548155931652       -0.82613474650173       -0.53179588633507
N           -0.62604852764668       -1.92595151154163       -1.25566883578426
C           -1.83212862864536       -2.31604532314930       -1.62607245316982
C           -2.97686702597142       -1.61376788995317       -1.30980031387148
C            1.76945061128712       -1.60090016635216       -0.37582787507300
C            2.79789001806738       -1.80809364727551        0.69173396108984
C            1.66131464816918       -2.77252437325919        0.54952531305484
N            2.58538443731850        0.78927543170174       -0.81511377338765
C            3.20305683297061        1.94377172875054       -0.96418002950195
C            2.64548570162778        3.15743844832562       -0.59903878403431
C            1.39191540528351        3.12604001977862       -0.01494858819816
O           -0.76669476816107        2.90026421758883        1.69304281329317
H           -4.28526467510334        0.19686030874924        0.93167124377097
H           -3.96105735720473        1.37066370230614       -0.35096902766849
H           -4.95186088727530       -0.05470885581965       -0.67859886770937
H           -2.32922782717381        1.21327960700994        1.29438559608465
H           -1.86553822063985       -3.22970276933863       -2.20280729855916
H           -3.94493045885634       -1.95266798508923       -1.64308746649947
H            2.04772686481885       -1.77793332812602       -1.40712863763801
H            2.78587917251162       -1.13294282796374        1.53328909337216
H            3.78697504655601       -2.11247392225658        0.38989039904427
H            1.85208872862278       -3.75436890439918        0.14739296698525
H            0.88213282683636       -2.74942715334199        1.29552381389539
H            4.19356973243260        1.88067142197918       -1.39626766916658
H            3.17596287187325        4.08456709573188       -0.74166792087315
H            0.91406184907149        4.02576495036756        0.34438219402495
