42
 energy: -62.291053081428 gnorm: 0.000575965068 xtb: 6.7.1 (edcfbbe)
C            3.58474048062168        1.91153370225355        0.49143700117083
C            3.17732147370264        1.02768794089715        1.67216324374077
C            2.77743480692642       -0.34439723846259        1.20686005987389
C            3.61683505970738       -1.43605355187380        1.31490551808350
C            3.25196692186226       -2.70235916025365        0.84922707220942
C            2.03329555815638       -2.92334469256994        0.25119355808307
C            1.15787988265971       -1.84536358600948        0.11974405516760
C            1.54124648754123       -0.56927491624076        0.60118688817645
N            0.51117631742165        0.29785653777439        0.36566787623123
C           -0.49506151366520       -0.37684354695658       -0.27348252778053
C           -0.14656421584410       -1.68913867690351       -0.43176913662122
C           -1.05890470567054       -2.66989580391581       -1.08790083312971
C           -2.46848314843144       -2.07111490855115       -1.04636371330144
O           -2.50050291105184       -0.73547392981723       -1.50634233290960
C           -1.80018907336566        0.21858712125831       -0.70831475097057
C           -2.63613266077556        0.62230496329570        0.53001981994581
C           -4.04456923792364        1.07916208115572        0.16797374230031
C           -1.59594889949594        1.41700323818440       -1.67732026689546
C           -1.45330812268529        2.76620772133360       -1.03079902984126
O           -0.24843988689508        2.95972687060470       -0.45698703793741
O           -2.28628522091952        3.63001460585429       -1.02627740186213
H            2.76588150376100        2.01385442406006       -0.21688466461337
H            3.87162010026324        2.90244760814553        0.83730638046656
H            4.42991088565257        1.46921237418695       -0.03040174938221
H            4.01663908414177        0.94572739725023        2.36474843650508
H            2.34554537479225        1.49407467659097        2.20707342561455
H            4.58593369233654       -1.30838936826923        1.77600071763163
H            3.94938218183104       -3.51937120976337        0.96395238731862
H            1.75668169774741       -3.90223446664790       -0.11045588926086
H            0.52842279837008        1.29126537433581        0.51682443909173
H           -0.75348120656256       -2.83215157406095       -2.12594149738074
H           -1.04488140102764       -3.63239679600041       -0.57380345876974
H           -2.86137365720793       -2.13460170959848       -0.02248862417339
H           -3.14582178601143       -2.60874967391949       -1.71372527314748
H           -2.10651696928776        1.40992954992108        1.06988787771410
H           -2.69273544879947       -0.24378623241427        1.19422877235600
H           -4.64903887101200        1.16902144977783        1.06724664812360
H           -4.02587141113668        2.04296101630349       -0.33164909004722
H           -4.50867844090399        0.35277640855071       -0.49398147064979
H           -0.71020605470440        1.21923779003966       -2.28297741303786
H           -2.47306413044591        1.44459819387160       -2.32399393636468
H           -0.19635533367256        3.85964999658520       -0.09558782172856
