----- Optimization -----
      -----------------------------------------------------------      
     |                   =====================                   |     
     |                           x T B                           |     
     |                   =====================                   |     
     |                         S. Grimme                         |     
     |          Mulliken Center for Theoretical Chemistry        |     
     |                    University of Bonn                     |     
      -----------------------------------------------------------      

   * xtb version 6.7.1 (edcfbbe) compiled by 'conda@3ef47c1a292c' on 2024-11-25

   xtb is free software: you can redistribute it and/or modify it under
   the terms of the GNU Lesser General Public License as published by
   the Free Software Foundation, either version 3 of the License, or
   (at your option) any later version.
   
   xtb is distributed in the hope that it will be useful,
   but WITHOUT ANY WARRANTY; without even the implied warranty of
   MERCHANTABILITY or FITNESS FOR A PARTICULAR PURPOSE.  See the
   GNU Lesser General Public License for more details.
   
   Cite this work as:
   * C. Bannwarth, E. Caldeweyher, S. Ehlert, A. Hansen, P. Pracht,
     J. Seibert, S. Spicher, S. Grimme, WIREs Comput. Mol. Sci., 2020, 11,
     e01493. DOI: 10.1002/wcms.1493
   
   for GFN2-xTB:
   * C. Bannwarth, S. Ehlert and S. Grimme., J. Chem. Theory Comput., 2019,
     15, 1652-1671. DOI: 10.1021/acs.jctc.8b01176
   for GFN1-xTB:
   * S. Grimme, C. Bannwarth, P. Shushkov, J. Chem. Theory Comput., 2017,
     13, 1989-2009. DOI: 10.1021/acs.jctc.7b00118
   for GFN0-xTB:
   * P. Pracht, E. Caldeweyher, S. Ehlert, S. Grimme, ChemRxiv, 2019, preprint.
     DOI: 10.26434/chemrxiv.8326202.v1
   for GFN-FF:
   * S. Spicher and S. Grimme, Angew. Chem. Int. Ed., 2020, 59, 15665-15673.
     DOI: 10.1002/anie.202004239
   
   for ALPB and GBSA implicit solvation:
   * S. Ehlert, M. Stahn, S. Spicher, S. Grimme, J. Chem. Theory Comput.,
     2021, 17, 4250-4261. DOI: 10.1021/acs.jctc.1c00471
   
   for ddCOSMO and CPCM-X implicit solvation:
   * M. Stahn, S. Ehlert, S. Grimme, J. Phys. Chem. A,
     2023, XX, XXXX-XXXX. DOI: 10.1021/acs.jpca.3c04382
   
   for DFT-D4:
   * E. Caldeweyher, C. Bannwarth and S. Grimme, J. Chem. Phys., 2017,
     147, 034112. DOI: 10.1063/1.4993215
   * E. Caldeweyher, S. Ehlert, A. Hansen, H. Neugebauer, S. Spicher,
     C. Bannwarth and S. Grimme, J. Chem. Phys., 2019, 150, 154122.
     DOI: 10.1063/1.5090222
   * E. Caldeweyher, J.-M. Mewes, S. Ehlert and S. Grimme, Phys. Chem. Chem. Phys.
     2020, 22, 8499-8512. DOI: 10.1039/D0CP00502A
   
   for sTDA-xTB:
   * S. Grimme and C. Bannwarth, J. Chem. Phys., 2016, 145, 054103.
     DOI: 10.1063/1.4959605
   
   in the mass-spec context:
   * V. Asgeirsson, C. Bauer and S. Grimme, Chem. Sci., 2017, 8, 4879.
     DOI: 10.1039/c7sc00601b
   * J. Koopman and S. Grimme, ACS Omega 2019, 4, 12, 15120-15133.
     DOI: 10.1021/acsomega.9b02011
   
   for metadynamics refer to:
   * S. Grimme, J. Chem. Theory Comput., 2019, 155, 2847-2862
     DOI: 10.1021/acs.jctc.9b00143
   
   for SPH calculations refer to:
   * S. Spicher and S. Grimme, J. Chem. Theory Comput., 2021, 17, 1701-1714
     DOI: 10.1021/acs.jctc.0c01306
   
   for ONIOM refer to:
   * C. Plett, A. Katbashev, S. Ehlert, S. Grimme, M. Bursch,
     Phys. Chem. Chem. Phys., 2023, 25, 17860-17868. DOI: 10.1039/D3CP02178E
   
   for DIPRO refer to:
   * J. Kohn, N. Gildemeister, S. Grimme, D. Fazzi, A. Hansen,
     J. Chem. Phys., 2023, just accepted.
   
   for PTB refer to:
   * S. Grimme, M. Mueller, A. Hansen, J. Chem. Phys., 2023, 158, 124111.
     DOI: 10.1063/5.0137838
   
   with help from (in alphabetical order)
   P. Atkinson, C. Bannwarth, F. Bohle, G. Brandenburg, E. Caldeweyher
   M. Checinski, S. Dohm, S. Ehlert, S. Ehrlich, I. Gerasimov, C. Hölzer
   A. Katbashev, J. Kohn, J. Koopman, C. Lavigne, S. Lehtola, F. März, M. Müller,
   F. Musil, H. Neugebauer, J. Pisarek, C. Plett, P. Pracht, F. Pultar,
   J. Seibert, P. Shushkov, S. Spicher, M. Stahn, M. Steiner, T. Strunk,
   J. Stückrath, T. Rose, and J. Unsleber
   
 * started run on 2025/05/15 at 16:22:29.004     
   ID    Z sym.   atoms
    1    6 C      1-8, 10-13, 15-19
    2    7 N      9
    3    8 O      14, 20, 21
    4    1 H      22-42

           -------------------------------------------------
          |                Calculation Setup                |
           -------------------------------------------------

          program call               : xtb /rds/general/user/hgt20/home/callum/QDESCP/Etodolac_rdkit_conf_9/Etodolac_rdkit_conf_9.xyz --opt normal --acc 1 --gfn 2 --chrg 0 --uhf 0 -P 1
          hostname                   : login-c
          coordinate file            : /rds/general/user/hgt20/home/callum/QDESCP/Etodolac_rdkit_conf_9/Etodolac_rdkit_conf_9.xyz
          omp threads                :                     1


           -------------------------------------------------
          |                 G F N 2 - x T B                 |
           -------------------------------------------------

        Reference                      10.1021/acs.jctc.8b01176
      * Hamiltonian:
        H0-scaling (s, p, d)           1.850000    2.230000    2.230000
        zeta-weighting                 0.500000
      * Dispersion:
        s8                             2.700000
        a1                             0.520000
        a2                             5.000000
        s9                             5.000000
      * Repulsion:
        kExp                           1.500000    1.000000
        rExp                           1.000000
      * Coulomb:
        alpha                          2.000000
        third order                    shell-resolved
        anisotropic                    true
        a3                             3.000000
        a5                             4.000000
        cn-shift                       1.200000
        cn-exp                         4.000000
        max-rad                        5.000000


          ...................................................
          :                      SETUP                      :
          :.................................................:
          :  # basis functions                 105          :
          :  # atomic orbitals                 105          :
          :  # shells                           63          :
          :  # electrons                       112          :
          :  max. iterations                   250          :
          :  Hamiltonian                  GFN2-xTB          :
          :  restarted?                      false          :
          :  GBSA solvation                  false          :
          :  PC potential                    false          :
          :  electronic temp.          300.0000000     K    :
          :  accuracy                    1.0000000          :
          :  -> integral cutoff          0.2500000E+02      :
          :  -> integral neglect         0.1000000E-07      :
          :  -> SCF convergence          0.1000000E-05 Eh   :
          :  -> wf. convergence          0.1000000E-03 e    :
          :  Broyden damping             0.4000000          :
          :  net charge                          0          :
          :  unpaired electrons                  0          :
          ...................................................

 iter      E             dE          RMSdq      gap      omega  full diag
   1    -62.9479282 -0.629479E+02  0.379E+00    3.08       0.0  T
   2    -63.0739948 -0.126067E+00  0.225E+00    2.64       1.0  T
   3    -63.0823339 -0.833913E-02  0.126E+00    3.09       1.0  T
   4    -63.0893568 -0.702294E-02  0.545E-01    2.45       1.0  T
   5    -63.0994867 -0.101298E-01  0.128E-01    2.43       1.0  T
   6    -63.0998256 -0.338891E-03  0.595E-02    2.45       1.0  T
   7    -63.0998607 -0.350692E-04  0.264E-02    2.46       1.0  T
   8    -63.0998629 -0.226627E-05  0.125E-02    2.46       1.2  T
   9    -63.0998667 -0.377900E-05  0.298E-03    2.47       5.2  T
  10    -63.0998667 -0.464122E-07  0.143E-03    2.47      10.8  T
  11    -63.0998668 -0.269845E-07  0.598E-04    2.47      25.8  T
  12    -63.0998668 -0.462916E-08  0.249E-04    2.47      61.9  T

   *** convergence criteria satisfied after 12 iterations ***

         #    Occupation            Energy/Eh            Energy/eV
      -------------------------------------------------------------
         1        2.0000           -0.7659613             -20.8429
       ...           ...                  ...                  ...
        50        2.0000           -0.4292645             -11.6809
        51        2.0000           -0.4196855             -11.4202
        52        2.0000           -0.4100462             -11.1579
        53        2.0000           -0.3996906             -10.8761
        54        2.0000           -0.3960628             -10.7774
        55        2.0000           -0.3758304             -10.2269
        56        2.0000           -0.3509678              -9.5503 (HOMO)
        57                         -0.2603243              -7.0838 (LUMO)
        58                         -0.2289955              -6.2313
        59                         -0.1915785              -5.2131
        60                         -0.1566533              -4.2628
        61                         -0.0706978              -1.9238
       ...                                ...                  ...
       105                          0.7096167              19.3097
      -------------------------------------------------------------
                  HL-Gap            0.0906435 Eh            2.4665 eV
             Fermi-level           -0.3056460 Eh           -8.3171 eV

 SCC (total)                   0 d,  0 h,  0 min,  0.085 sec
 SCC setup                      ...        0 min,  0.000 sec (  0.418%)
 Dispersion                     ...        0 min,  0.000 sec (  0.526%)
 classical contributions        ...        0 min,  0.000 sec (  0.179%)
 integral evaluation            ...        0 min,  0.008 sec (  8.897%)
 iterations                     ...        0 min,  0.024 sec ( 27.893%)
 molecular gradient             ...        0 min,  0.052 sec ( 61.883%)
 printout                       ...        0 min,  0.000 sec (  0.196%)

         :::::::::::::::::::::::::::::::::::::::::::::::::::::
         ::                     SUMMARY                     ::
         :::::::::::::::::::::::::::::::::::::::::::::::::::::
         :: total energy             -62.280618946010 Eh    ::
         :: gradient norm              0.080705091999 Eh/a0 ::
         :: HOMO-LUMO gap              2.466535456441 eV    ::
         ::.................................................::
         :: SCC energy               -63.099297861495 Eh    ::
         :: -> isotropic ES            0.074715010429 Eh    ::
         :: -> anisotropic ES          0.009921823662 Eh    ::
         :: -> anisotropic XC          0.018796328028 Eh    ::
         :: -> dispersion             -0.045144725273 Eh    ::
         :: repulsion energy           0.818678915485 Eh    ::
         :: add. restraining           0.000000000000 Eh    ::
         :: total charge              -0.000000000000 e     ::
         :::::::::::::::::::::::::::::::::::::::::::::::::::::

      ----------------------------------------------------------- 
     |                   =====================                   |
     |                        A N C O P T                        |
     |                   =====================                   |
     |               Approximate Normal Coordinate               |
     |                Rational Function Optimizer                |
      ----------------------------------------------------------- 
      ----------------------------------------------------------- 
     |                   =====================                   |
     |                        A N C O P T                        |
     |                   =====================                   |
     |               Approximate Normal Coordinate               |
     |                Rational Function Optimizer                |
      ----------------------------------------------------------- 

          ...................................................
          :                      SETUP                      :
          :.................................................:
          :   optimization level            normal          :
          :   max. optcycles                   200          :
          :   ANC micro-cycles                  20          :
          :   degrees of freedom               120          :
          :.................................................:
          :   RF solver                   davidson          :
          :   write xtbopt.log                true          :
          :   linear?                        false          :
          :   energy convergence         0.5000000E-05 Eh   :
          :   grad. convergence          0.1000000E-02 Eh/α :
          :   maxmium RF displ.          1.0000000          :
          :   Hlow (freq-cutoff)         0.1000000E-01      :
          :   Hmax (freq-cutoff)         5.0000000          :
          :   S6 in model hess.         20.0000000          :
          ...................................................

generating ANC from exact Hessian ...
Using Lindh-Hessian (1995)
 Shifting diagonal of input Hessian by    9.4656659796846839E-003
 Lowest  eigenvalues of input Hessian
    0.000000    0.000000    0.000000    0.000000    0.000000    0.000000
    0.010000    0.010395    0.010967    0.011522    0.011963    0.012927
    0.013407    0.013805    0.014463    0.015582    0.016093    0.018148
 Highest eigenvalues
    1.832849    1.927156    1.986178    2.026933    2.130935    2.261807


........................................................................
.............................. CYCLE    1 ..............................
........................................................................

 iter      E             dE          RMSdq      gap      omega  full diag
   1    -63.0998668 -0.630999E+02  0.107E-04    2.47       0.0  T
   2    -63.0998668 -0.102602E-09  0.687E-05    2.47     224.7  T
   3    -63.0998668 -0.612488E-10  0.440E-05    2.47     350.6  T
     SCC iter.                  ...        0 min,  0.006 sec
     gradient                   ...        0 min,  0.049 sec
 * total energy  :   -62.2806189 Eh     change       -0.7029684E-09 Eh
   gradient norm :     0.0807073 Eh/α   predicted     0.0000000E+00 (-100.00%)
   displ. norm   :     0.3011526 α      lambda       -0.1107711E-01
   maximum displ.:     0.1098108 α      in ANC's #25, #14, #32, ...

........................................................................
.............................. CYCLE    2 ..............................
........................................................................

 iter      E             dE          RMSdq      gap      omega  full diag
   1    -63.1321320 -0.631321E+02  0.201E-01    2.71       0.0  T
   2    -63.1322361 -0.104125E-03  0.118E-01    2.69       1.0  T
   3    -63.1322267  0.943025E-05  0.340E-02    2.69       1.0  T
   4    -63.1322412 -0.145215E-04  0.106E-02    2.69       1.5  T
   5    -63.1322445 -0.324655E-05  0.366E-03    2.69       4.2  T
   6    -63.1322447 -0.234473E-06  0.188E-03    2.69       8.2  T
   7    -63.1322447 -0.412512E-07  0.805E-04    2.69      19.2  T
   8    -63.1322448 -0.839352E-08  0.298E-04    2.69      51.7  T
     SCC iter.                  ...        0 min,  0.015 sec
     gradient                   ...        0 min,  0.025 sec
 * total energy  :   -62.2880624 Eh     change       -0.7443433E-02 Eh
   gradient norm :     0.0296098 Eh/α   predicted    -0.6043736E-02 ( -18.80%)
   displ. norm   :     0.2626502 α      lambda       -0.3099454E-02
   maximum displ.:     0.1110895 α      in ANC's #14, #13, #4, ...

........................................................................
.............................. CYCLE    3 ..............................
........................................................................

 iter      E             dE          RMSdq      gap      omega  full diag
   1    -63.1473354 -0.631473E+02  0.111E-01    2.79       0.0  T
   2    -63.1473761 -0.406784E-04  0.658E-02    2.77       1.0  T
   3    -63.1473735  0.256737E-05  0.200E-02    2.77       1.0  T
   4    -63.1473774 -0.392021E-05  0.691E-03    2.77       2.2  T
   5    -63.1473790 -0.158730E-05  0.249E-03    2.78       6.2  T
   6    -63.1473792 -0.155927E-06  0.109E-03    2.78      14.1  T
   7    -63.1473792 -0.104728E-07  0.505E-04    2.78      30.5  T
   8    -63.1473792 -0.175224E-08  0.179E-04    2.78      86.2  T
     SCC iter.                  ...        0 min,  0.015 sec
     gradient                   ...        0 min,  0.025 sec
 * total energy  :   -62.2899374 Eh     change       -0.1875044E-02 Eh
   gradient norm :     0.0084612 Eh/α   predicted    -0.1657790E-02 ( -11.59%)
   displ. norm   :     0.1737519 α      lambda       -0.5700163E-03
   maximum displ.:     0.0784334 α      in ANC's #4, #14, #6, ...

........................................................................
.............................. CYCLE    4 ..............................
........................................................................

 iter      E             dE          RMSdq      gap      omega  full diag
   1    -63.1489129 -0.631489E+02  0.395E-02    2.78       0.0  T
   2    -63.1489166 -0.369129E-05  0.238E-02    2.78       1.0  T
   3    -63.1489150  0.161046E-05  0.815E-03    2.78       1.9  T
   4    -63.1489170 -0.195992E-05  0.306E-03    2.78       5.0  T
   5    -63.1489173 -0.287402E-06  0.975E-04    2.78      15.8  T
   6    -63.1489173 -0.136436E-07  0.465E-04    2.78      33.2  T
     SCC iter.                  ...        0 min,  0.011 sec
     gradient                   ...        0 min,  0.025 sec
 * total energy  :   -62.2903429 Eh     change       -0.4054385E-03 Eh
   gradient norm :     0.0057042 Eh/α   predicted    -0.2936173E-03 ( -27.58%)
   displ. norm   :     0.2063758 α      lambda       -0.3668766E-03
   maximum displ.:     0.1086558 α      in ANC's #4, #9, #6, ...

........................................................................
.............................. CYCLE    5 ..............................
........................................................................

 iter      E             dE          RMSdq      gap      omega  full diag
   1    -63.1482880 -0.631483E+02  0.432E-02    2.79       0.0  T
   2    -63.1482895 -0.150448E-05  0.257E-02    2.79       1.0  T
   3    -63.1482881  0.140106E-05  0.703E-03    2.79       2.2  T
   4    -63.1482899 -0.178430E-05  0.192E-03    2.79       8.0  T
   5    -63.1482900 -0.890710E-07  0.933E-04    2.79      16.5  T
   6    -63.1482900 -0.739096E-08  0.336E-04    2.79      46.0  T
     SCC iter.                  ...        0 min,  0.011 sec
     gradient                   ...        0 min,  0.049 sec
 * total energy  :   -62.2905873 Eh     change       -0.2444053E-03 Eh
   gradient norm :     0.0047618 Eh/α   predicted    -0.1912544E-03 ( -21.75%)
   displ. norm   :     0.1692974 α      lambda       -0.1736753E-03
   maximum displ.:     0.0893561 α      in ANC's #4, #9, #3, ...

........................................................................
.............................. CYCLE    6 ..............................
........................................................................

 iter      E             dE          RMSdq      gap      omega  full diag
   1    -63.1477096 -0.631477E+02  0.335E-02    2.80       0.0  T
   2    -63.1477104 -0.771360E-06  0.199E-02    2.80       1.0  T
   3    -63.1477100  0.349637E-06  0.427E-03    2.80       3.6  T
   4    -63.1477106 -0.543168E-06  0.108E-03    2.80      14.2  T
   5    -63.1477106 -0.111084E-07  0.650E-04    2.80      23.7  T
   6    -63.1477106 -0.454166E-08  0.273E-04    2.80      56.6  T
     SCC iter.                  ...        0 min,  0.011 sec
     gradient                   ...        0 min,  0.025 sec
 * total energy  :   -62.2907076 Eh     change       -0.1203793E-03 Eh
   gradient norm :     0.0038458 Eh/α   predicted    -0.8934790E-04 ( -25.78%)
   displ. norm   :     0.1595730 α      lambda       -0.1213538E-03
   maximum displ.:     0.0811587 α      in ANC's #4, #3, #9, ...

........................................................................
.............................. CYCLE    7 ..............................
........................................................................

 iter      E             dE          RMSdq      gap      omega  full diag
   1    -63.1475405 -0.631475E+02  0.347E-02    2.81       0.0  T
   2    -63.1475412 -0.739666E-06  0.206E-02    2.81       1.0  T
   3    -63.1475407  0.568007E-06  0.465E-03    2.81       3.3  T
   4    -63.1475414 -0.736918E-06  0.128E-03    2.81      12.1  T
   5    -63.1475414 -0.356103E-07  0.628E-04    2.81      24.6  T
   6    -63.1475414 -0.345349E-08  0.308E-04    2.81      50.0  T
     SCC iter.                  ...        0 min,  0.041 sec
     gradient                   ...        0 min,  0.024 sec
 * total energy  :   -62.2907886 Eh     change       -0.8100206E-04 Eh
   gradient norm :     0.0031180 Eh/α   predicted    -0.6222256E-04 ( -23.18%)
   displ. norm   :     0.1168822 α      lambda       -0.6807162E-04
   maximum displ.:     0.0612894 α      in ANC's #3, #4, #9, ...

........................................................................
.............................. CYCLE    8 ..............................
........................................................................

 iter      E             dE          RMSdq      gap      omega  full diag
   1    -63.1481009 -0.631481E+02  0.236E-02    2.82       0.0  T
   2    -63.1481012 -0.304058E-06  0.141E-02    2.82       1.1  T
   3    -63.1481007  0.446100E-06  0.360E-03    2.82       4.3  T
   4    -63.1481013 -0.548201E-06  0.882E-04    2.82      17.5  T
   5    -63.1481013 -0.144314E-07  0.449E-04    2.82      34.4  T
     SCC iter.                  ...        0 min,  0.009 sec
     gradient                   ...        0 min,  0.025 sec
 * total energy  :   -62.2908347 Eh     change       -0.4603007E-04 Eh
   gradient norm :     0.0022601 Eh/α   predicted    -0.3450145E-04 ( -25.05%)
   displ. norm   :     0.0912452 α      lambda       -0.4044054E-04
   maximum displ.:     0.0536840 α      in ANC's #3, #10, #1, ...

........................................................................
.............................. CYCLE    9 ..............................
........................................................................

 iter      E             dE          RMSdq      gap      omega  full diag
   1    -63.1485965 -0.631486E+02  0.192E-02    2.81       0.0  T
   2    -63.1485967 -0.120890E-06  0.114E-02    2.81       1.4  T
   3    -63.1485966  0.324007E-07  0.156E-03    2.81       9.9  T
   4    -63.1485967 -0.752581E-07  0.478E-04    2.81      32.3  T
   5    -63.1485967  0.118014E-09  0.273E-04    2.81      56.4  T
     SCC iter.                  ...        0 min,  0.009 sec
     gradient                   ...        0 min,  0.034 sec
 * total energy  :   -62.2908636 Eh     change       -0.2891415E-04 Eh
   gradient norm :     0.0016058 Eh/α   predicted    -0.2039374E-04 ( -29.47%)
   displ. norm   :     0.1325718 α      lambda       -0.2957217E-04
   maximum displ.:     0.0826082 α      in ANC's #3, #10, #1, ...

........................................................................
.............................. CYCLE   10 ..............................
........................................................................

 iter      E             dE          RMSdq      gap      omega  full diag
   1    -63.1490688 -0.631491E+02  0.241E-02    2.81       0.0  T
   2    -63.1490692 -0.374119E-06  0.143E-02    2.81       1.1  T
   3    -63.1490689  0.297381E-06  0.330E-03    2.81       4.7  T
   4    -63.1490693 -0.384344E-06  0.848E-04    2.81      18.2  T
   5    -63.1490693 -0.148889E-07  0.421E-04    2.81      36.6  T
     SCC iter.                  ...        0 min,  0.009 sec
     gradient                   ...        0 min,  0.025 sec
 * total energy  :   -62.2908909 Eh     change       -0.2731330E-04 Eh
   gradient norm :     0.0019591 Eh/α   predicted    -0.1490979E-04 ( -45.41%)
   displ. norm   :     0.0864925 α      lambda       -0.1760567E-04
   maximum displ.:     0.0540439 α      in ANC's #3, #2, #8, ...

........................................................................
.............................. CYCLE   11 ..............................
........................................................................

 iter      E             dE          RMSdq      gap      omega  full diag
   1    -63.1489078 -0.631489E+02  0.147E-02    2.80       0.0  T
   2    -63.1489079 -0.134367E-06  0.873E-03    2.80       1.8  T
   3    -63.1489077  0.209120E-06  0.247E-03    2.81       6.2  T
   4    -63.1489080 -0.248891E-06  0.503E-04    2.80      30.7  T
   5    -63.1489080 -0.518823E-08  0.235E-04    2.80      65.8  T
     SCC iter.                  ...        0 min,  0.009 sec
     gradient                   ...        0 min,  0.034 sec
 * total energy  :   -62.2909130 Eh     change       -0.2214107E-04 Eh
   gradient norm :     0.0016486 Eh/α   predicted    -0.8835967E-05 ( -60.09%)
   displ. norm   :     0.1709658 α      lambda       -0.3166675E-04
   maximum displ.:     0.1023780 α      in ANC's #3, #2, #8, ...

........................................................................
.............................. CYCLE   12 ..............................
........................................................................

 iter      E             dE          RMSdq      gap      omega  full diag
   1    -63.1485266 -0.631485E+02  0.274E-02    2.81       0.0  T
   2    -63.1485268 -0.162905E-06  0.162E-02    2.81       1.0  T
   3    -63.1485267  0.805297E-07  0.200E-03    2.81       7.7  T
   4    -63.1485268 -0.139882E-06  0.667E-04    2.81      23.1  T
   5    -63.1485268 -0.445541E-08  0.376E-04    2.81      41.0  T
     SCC iter.                  ...        0 min,  0.009 sec
     gradient                   ...        0 min,  0.025 sec
 * total energy  :   -62.2909491 Eh     change       -0.3600685E-04 Eh
   gradient norm :     0.0017277 Eh/α   predicted    -0.1604629E-04 ( -55.44%)
   displ. norm   :     0.2017119 α      lambda       -0.2726214E-04
   maximum displ.:     0.1260357 α      in ANC's #3, #2, #1, ...

........................................................................
.............................. CYCLE   13 ..............................
........................................................................

 iter      E             dE          RMSdq      gap      omega  full diag
   1    -63.1478332 -0.631478E+02  0.323E-02    2.80       0.0  T
   2    -63.1478336 -0.360081E-06  0.191E-02    2.80       1.0  T
   3    -63.1478336  0.143173E-07  0.191E-03    2.80       8.1  T
   4    -63.1478336 -0.764704E-07  0.102E-03    2.80      15.1  T
   5    -63.1478337 -0.226139E-07  0.485E-04    2.80      31.8  T
   6    -63.1478337 -0.104582E-08  0.208E-04    2.80      74.2  T
     SCC iter.                  ...        0 min,  0.011 sec
     gradient                   ...        0 min,  0.025 sec
 * total energy  :   -62.2909795 Eh     change       -0.3043042E-04 Eh
   gradient norm :     0.0023103 Eh/α   predicted    -0.1388011E-04 ( -54.39%)
   displ. norm   :     0.1263139 α      lambda       -0.2427865E-04
   maximum displ.:     0.0802362 α      in ANC's #3, #2, #1, ...

........................................................................
.............................. CYCLE   14 ..............................
........................................................................

 iter      E             dE          RMSdq      gap      omega  full diag
   1    -63.1481667 -0.631482E+02  0.186E-02    2.81       0.0  T
   2    -63.1481668 -0.744413E-07  0.110E-02    2.81       1.4  T
   3    -63.1481667  0.983116E-07  0.182E-03    2.81       8.5  T
   4    -63.1481668 -0.132463E-06  0.513E-04    2.81      30.1  T
   5    -63.1481668 -0.249991E-08  0.280E-04    2.81      55.1  T
     SCC iter.                  ...        0 min,  0.009 sec
     gradient                   ...        0 min,  0.025 sec
 * total energy  :   -62.2909999 Eh     change       -0.2043742E-04 Eh
   gradient norm :     0.0015309 Eh/α   predicted    -0.1233384E-04 ( -39.65%)
   displ. norm   :     0.2664052 α      lambda       -0.3102667E-04
   maximum displ.:     0.1728704 α      in ANC's #3, #1, #2, ...

........................................................................
.............................. CYCLE   15 ..............................
........................................................................

 iter      E             dE          RMSdq      gap      omega  full diag
   1    -63.1483231 -0.631483E+02  0.408E-02    2.81       0.0  T
   2    -63.1483235 -0.368789E-06  0.241E-02    2.81       1.0  T
   3    -63.1483229  0.576411E-06  0.438E-03    2.81       3.5  T
   4    -63.1483237 -0.762542E-06  0.115E-03    2.81      13.5  T
   5    -63.1483237 -0.101112E-07  0.630E-04    2.81      24.5  T
   6    -63.1483237 -0.292168E-08  0.255E-04    2.81      60.4  T
     SCC iter.                  ...        0 min,  0.012 sec
     gradient                   ...        0 min,  0.024 sec
 * total energy  :   -62.2910318 Eh     change       -0.3183069E-04 Eh
   gradient norm :     0.0011320 Eh/α   predicted    -0.1600526E-04 ( -49.72%)
   displ. norm   :     0.1385805 α      lambda       -0.1247228E-04
   maximum displ.:     0.0919950 α      in ANC's #3, #1, #2, ...

........................................................................
.............................. CYCLE   16 ..............................
........................................................................

 iter      E             dE          RMSdq      gap      omega  full diag
   1    -63.1489465 -0.631489E+02  0.210E-02    2.81       0.0  T
   2    -63.1489466 -0.109214E-06  0.124E-02    2.81       1.2  T
   3    -63.1489466 -0.120254E-07  0.902E-04    2.81      17.1  T
   4    -63.1489466 -0.135307E-07  0.487E-04    2.81      31.7  T
     SCC iter.                  ...        0 min,  0.007 sec
     gradient                   ...        0 min,  0.024 sec
 * total energy  :   -62.2910444 Eh     change       -0.1265488E-04 Eh
   gradient norm :     0.0010034 Eh/α   predicted    -0.6293889E-05 ( -50.27%)
   displ. norm   :     0.1083782 α      lambda       -0.6574680E-05
   maximum displ.:     0.0716361 α      in ANC's #3, #1, #2, ...

........................................................................
.............................. CYCLE   17 ..............................
........................................................................

 iter      E             dE          RMSdq      gap      omega  full diag
   1    -63.1487507 -0.631488E+02  0.179E-02    2.80       0.0  T
   2    -63.1487508 -0.108724E-06  0.106E-02    2.81       1.5  T
   3    -63.1487507  0.518572E-07  0.160E-03    2.81       9.6  T
   4    -63.1487508 -0.844815E-07  0.465E-04    2.81      33.2  T
   5    -63.1487508 -0.159628E-08  0.299E-04    2.81      51.6  T
     SCC iter.                  ...        0 min,  0.034 sec
     gradient                   ...        0 min,  0.025 sec
 * total energy  :   -62.2910503 Eh     change       -0.5864895E-05 Eh
   gradient norm :     0.0007017 Eh/α   predicted    -0.3307679E-05 ( -43.60%)
   displ. norm   :     0.0442482 α      lambda       -0.3206520E-05
   maximum displ.:     0.0258756 α      in ANC's #1, #3, #2, ...

........................................................................
.............................. CYCLE   18 ..............................
........................................................................

 iter      E             dE          RMSdq      gap      omega  full diag
   1    -63.1491999 -0.631492E+02  0.701E-03    2.81       0.0  T
   2    -63.1491999 -0.289392E-07  0.418E-03    2.81       3.7  T
   3    -63.1491998  0.853993E-07  0.151E-03    2.81      10.2  T
   4    -63.1491999 -0.987312E-07  0.241E-04    2.81      64.0  T
   5    -63.1491999 -0.106898E-08  0.108E-04    2.81     142.7  T
     SCC iter.                  ...        0 min,  0.009 sec
     gradient                   ...        0 min,  0.063 sec
 * total energy  :   -62.2910531 Eh     change       -0.2808851E-05 Eh
   gradient norm :     0.0005763 Eh/α   predicted    -0.1607160E-05 ( -42.78%)
   displ. norm   :     0.0303762 α      lambda       -0.1446874E-05
   maximum displ.:     0.0182888 α      in ANC's #1, #3, #2, ...

   *** GEOMETRY OPTIMIZATION CONVERGED AFTER 18 ITERATIONS ***

------------------------------------------------------------------------
 total energy gain   :        -0.0104341 Eh       -6.5475 kcal/mol
 total RMSD          :         0.2924889 a0        0.1548 Å
 total power (kW/mol):        -1.5219344 (step)  -27.3469 (real)
------------------------------------------------------------------------

 ANCopt (total)                0 d,  0 h,  0 min,  1.002 sec
 optimizer setup                ...        0 min,  0.000 sec (  0.008%)
 model hessian                  ...        0 min,  0.021 sec (  2.061%)
 ANC generation                 ...        0 min,  0.002 sec (  0.150%)
 coordinate transformation      ...        0 min,  0.000 sec (  0.012%)
 single point calculation       ...        0 min,  0.972 sec ( 97.044%)
 optimization log               ...        0 min,  0.003 sec (  0.286%)
 hessian update                 ...        0 min,  0.000 sec (  0.023%)
 rational function              ...        0 min,  0.001 sec (  0.119%)

================
 final structure:
================
42
 xtb: 6.7.1 (edcfbbe)
C            3.58474048062168        1.91153370225355        0.49143700117083
C            3.17732147370264        1.02768794089715        1.67216324374077
C            2.77743480692642       -0.34439723846259        1.20686005987389
C            3.61683505970738       -1.43605355187380        1.31490551808350
C            3.25196692186226       -2.70235916025365        0.84922707220942
C            2.03329555815638       -2.92334469256994        0.25119355808307
C            1.15787988265971       -1.84536358600948        0.11974405516760
C            1.54124648754123       -0.56927491624076        0.60118688817645
N            0.51117631742165        0.29785653777439        0.36566787623123
C           -0.49506151366520       -0.37684354695658       -0.27348252778053
C           -0.14656421584410       -1.68913867690351       -0.43176913662122
C           -1.05890470567054       -2.66989580391581       -1.08790083312971
C           -2.46848314843144       -2.07111490855115       -1.04636371330144
O           -2.50050291105184       -0.73547392981723       -1.50634233290960
C           -1.80018907336566        0.21858712125831       -0.70831475097057
C           -2.63613266077556        0.62230496329570        0.53001981994581
C           -4.04456923792364        1.07916208115572        0.16797374230031
C           -1.59594889949594        1.41700323818440       -1.67732026689546
C           -1.45330812268529        2.76620772133360       -1.03079902984126
O           -0.24843988689508        2.95972687060470       -0.45698703793741
O           -2.28628522091952        3.63001460585429       -1.02627740186213
H            2.76588150376100        2.01385442406006       -0.21688466461337
H            3.87162010026324        2.90244760814553        0.83730638046656
H            4.42991088565257        1.46921237418695       -0.03040174938221
H            4.01663908414177        0.94572739725023        2.36474843650508
H            2.34554537479225        1.49407467659097        2.20707342561455
H            4.58593369233654       -1.30838936826923        1.77600071763163
H            3.94938218183104       -3.51937120976337        0.96395238731862
H            1.75668169774741       -3.90223446664790       -0.11045588926086
H            0.52842279837008        1.29126537433581        0.51682443909173
H           -0.75348120656256       -2.83215157406095       -2.12594149738074
H           -1.04488140102764       -3.63239679600041       -0.57380345876974
H           -2.86137365720793       -2.13460170959848       -0.02248862417339
H           -3.14582178601143       -2.60874967391949       -1.71372527314748
H           -2.10651696928776        1.40992954992108        1.06988787771410
H           -2.69273544879947       -0.24378623241427        1.19422877235600
H           -4.64903887101200        1.16902144977783        1.06724664812360
H           -4.02587141113668        2.04296101630349       -0.33164909004722
H           -4.50867844090399        0.35277640855071       -0.49398147064979
H           -0.71020605470440        1.21923779003966       -2.28297741303786
H           -2.47306413044591        1.44459819387160       -2.32399393636468
H           -0.19635533367256        3.85964999658520       -0.09558782172856

 Bond Distances (Angstroems)
 ---------------------------
C1-C2=1.5301         C1-H22=1.0875        C1-H23=1.0880        C1-H24=1.0873        C2-C1=1.5301         C2-C3=1.5030         
C2-H25=1.0913        C2-H26=1.0934        C3-C2=1.5030         C3-C4=1.3813         C3-C8=1.3948         C4-C3=1.3813         
C4-C5=1.3977         C4-H27=1.0808        C5-C4=1.3977         C5-C6=1.3754         C5-H28=1.0803        C6-C5=1.3754         
C6-C7=1.3949         C6-H29=1.0796        C7-C6=1.3949         C7-C8=1.4167         C7-C11=1.4248        C8-C3=1.3948         
C8-C7=1.4167         C8-N9=1.3669         N9-C8=1.3669         N9-C10=1.3698        N9-H30=1.0050        C10-N9=1.3698        
C10-C11=1.3670       C10-C15=1.4990       C11-C7=1.4248        C11-C10=1.3670       C11-C12=1.4916       C12-C11=1.4916       
C12-C13=1.5320       C12-H31=1.0941       C12-H32=1.0913       C13-C12=1.5320       C13-O14=1.4130       C13-H33=1.0985       
C13-H34=1.0923       O14-C13=1.4130       O14-C15=1.4274       C15-C10=1.4990       C15-O14=1.4274       C15-C16=1.5477       
C15-C18=1.5546       C16-C15=1.5477       C16-C17=1.5243       C16-H35=1.0919       C16-H36=1.0929       C17-C16=1.5243       
C17-H37=1.0873       C17-H38=1.0858       C17-H39=1.0868       C18-C15=1.5546       C18-C19=1.5029       C18-H40=1.0911       
C18-H41=1.0901       C19-C18=1.5029       C19-O20=1.3485       C19-O21=1.2000       O20-C19=1.3485       O20-H42=0.9712       
O21-C19=1.2000       H22-C1=1.0875        H23-C1=1.0880        H24-C1=1.0873        H25-C2=1.0913        H26-C2=1.0934        
H27-C4=1.0808        H28-C5=1.0803        H29-C6=1.0796        H30-N9=1.0050        H31-C12=1.0941       H32-C12=1.0913       
H33-C13=1.0985       H34-C13=1.0923       H35-C16=1.0919       H36-C16=1.0929       H37-C17=1.0873       H38-C17=1.0858       
H39-C17=1.0868       H40-C18=1.0911       H41-C18=1.0901       H42-O20=0.9712       
 C  H  Rav=1.0890 sigma=0.0048  Rmin=1.0796  Rmax=1.0985    19
 C  C  Rav=1.4610 sigma=0.0662  Rmin=1.3670  Rmax=1.5546    17
 N  H  Rav=1.0050 sigma=0.0000  Rmin=1.0050  Rmax=1.0050     1
 N  C  Rav=1.3683 sigma=0.0014  Rmin=1.3669  Rmax=1.3698     2
 O  H  Rav=0.9712 sigma=0.0000  Rmin=0.9712  Rmax=0.9712     1
 O  C  Rav=1.3472 sigma=0.0900  Rmin=1.2000  Rmax=1.4274     4

 selected bond angles (degree)
 --------------------
H22-C1-C2=110.88               H23-C1-C2=110.55               H23-C1-H22=108.66              H24-C1-C2=110.02               
H24-C1-H22=108.12              H24-C1-H23=108.55              C3-C2-C1=111.06                H25-C2-C1=109.17               
H25-C2-C3=109.42               H26-C2-C1=109.49               H26-C2-C3=109.78               H26-C2-H25=107.86              
C4-C3-C2=122.38                C8-C3-C2=121.16                C8-C3-C4=116.43                C5-C4-C3=122.10                
H27-C4-C3=119.01               H27-C4-C5=118.90               C6-C5-C4=121.45                H28-C5-C4=118.77               
H28-C5-C6=119.78               C7-C6-C5=118.22                H29-C6-C5=121.22               H29-C6-C7=120.55               
C8-C7-C6=119.62                C11-C7-C6=134.09               C11-C7-C8=106.29               C7-C8-C3=122.18                
N9-C8-C3=129.82                N9-C8-C7=107.99                C10-N9-C8=108.75               H30-N9-C8=126.03               
H30-N9-C10=124.73              C11-C10-N9=109.85              C15-C10-N9=125.40              C15-C10-C11=124.73             

 selected dihedral angles (degree)
 ---------------------------------
C3-C2-C1-H22= 59.38           C3-C2-C1-H23=179.95           C3-C2-C1-H24=299.83           H25-C2-C1-H22=180.11          
H25-C2-C1-H23=300.69          H25-C2-C1-H24= 60.56          H26-C2-C1-H22=297.98          H26-C2-C1-H23= 58.55          
H26-C2-C1-H24=178.43          C4-C3-C2-C1=101.91            C4-C3-C2-H25=341.33           C4-C3-C2-H26=223.14           
C8-C3-C2-C1=283.90            C8-C3-C2-H25=163.32           C8-C3-C2-H26= 45.13           C5-C4-C3-C2=181.67            
C5-C4-C3-C8=359.76            H27-C4-C3-C2=  1.80           H27-C4-C3-C8=179.90           C6-C5-C4-C3=  0.30            
C6-C5-C4-H27=180.16           H28-C5-C4-C3=180.18           H28-C5-C4-H27=  0.04          C7-C6-C5-C4=359.88            
C7-C6-C5-H28=180.00           H29-C6-C5-C4=179.77           H29-C6-C5-H28=359.89          C8-C7-C6-C5=359.90            
C8-C7-C6-H29=180.01           C11-C7-C6-C5=179.70           C11-C7-C6-H29=359.81          C7-C8-C3-C2=178.14            
C7-C8-C3-C4=  0.00            N9-C8-C3-C2=357.53            N9-C8-C3-C4=179.41            C3-C8-C7-C6=  0.15            
C3-C8-C7-C11=180.31           N9-C8-C7-C6=180.65            N9-C8-C7-C11=  0.80           C10-N9-C8-C3=179.19           
C10-N9-C8-C7=358.65           H30-N9-C8-C3=  6.92           H30-N9-C8-C7=186.38           C11-C10-N9-C8=  1.42          
C11-C10-N9-H30=173.80         C15-C10-N9-C8=180.05          C15-C10-N9-H30=352.44         
           -------------------------------------------------
          |                Final Singlepoint                |
           -------------------------------------------------

          ...................................................
          :                      SETUP                      :
          :.................................................:
          :  # basis functions                 105          :
          :  # atomic orbitals                 105          :
          :  # shells                           63          :
          :  # electrons                       112          :
          :  max. iterations                   250          :
          :  Hamiltonian                  GFN2-xTB          :
          :  restarted?                      false          :
          :  GBSA solvation                  false          :
          :  PC potential                    false          :
          :  electronic temp.          300.0000000     K    :
          :  accuracy                    1.0000000          :
          :  -> integral cutoff          0.2500000E+02      :
          :  -> integral neglect         0.1000000E-07      :
          :  -> SCF convergence          0.1000000E-05 Eh   :
          :  -> wf. convergence          0.1000000E-03 e    :
          :  Broyden damping             0.4000000          :
          :  net charge                          0          :
          :  unpaired electrons                  0          :
          ...................................................

 iter      E             dE          RMSdq      gap      omega  full diag
   1    -63.1491999 -0.631492E+02  0.579E-05    2.81       0.0  T
   2    -63.1491999 -0.194404E-10  0.381E-05    2.81     405.2  T
   3    -63.1491999 -0.258709E-10  0.224E-05    2.81     687.9  T

   *** convergence criteria satisfied after 3 iterations ***

         #    Occupation            Energy/Eh            Energy/eV
      -------------------------------------------------------------
         1        2.0000           -0.7621171             -20.7383
       ...           ...                  ...                  ...
        50        2.0000           -0.4291346             -11.6773
        51        2.0000           -0.4199501             -11.4274
        52        2.0000           -0.4100472             -11.1580
        53        2.0000           -0.4032708             -10.9736
        54        2.0000           -0.3952551             -10.7554
        55        2.0000           -0.3740488             -10.1784
        56        2.0000           -0.3554729              -9.6729 (HOMO)
        57                         -0.2523489              -6.8668 (LUMO)
        58                         -0.2243984              -6.1062
        59                         -0.1925237              -5.2388
        60                         -0.1542674              -4.1978
        61                         -0.0678765              -1.8470
       ...                                ...                  ...
       105                          0.7232169              19.6797
      -------------------------------------------------------------
                  HL-Gap            0.1031240 Eh            2.8061 eV
             Fermi-level           -0.3039109 Eh           -8.2698 eV

 SCC (total)                   0 d,  0 h,  0 min,  0.038 sec
 SCC setup                      ...        0 min,  0.000 sec (  0.738%)
 Dispersion                     ...        0 min,  0.000 sec (  0.742%)
 classical contributions        ...        0 min,  0.000 sec (  0.358%)
 integral evaluation            ...        0 min,  0.007 sec ( 18.942%)
 iterations                     ...        0 min,  0.006 sec ( 14.578%)
 molecular gradient             ...        0 min,  0.025 sec ( 64.268%)
 printout                       ...        0 min,  0.000 sec (  0.357%)

         :::::::::::::::::::::::::::::::::::::::::::::::::::::
         ::                     SUMMARY                     ::
         :::::::::::::::::::::::::::::::::::::::::::::::::::::
         :: total energy             -62.291053081428 Eh    ::
         :: gradient norm              0.000575965068 Eh/a0 ::
         :: HOMO-LUMO gap              2.806147209183 eV    ::
         ::.................................................::
         :: SCC energy               -63.148587831854 Eh    ::
         :: -> isotropic ES            0.072857164867 Eh    ::
         :: -> anisotropic ES          0.008153548980 Eh    ::
         :: -> anisotropic XC          0.017494264285 Eh    ::
         :: -> dispersion             -0.045805829918 Eh    ::
         :: repulsion energy           0.857534750426 Eh    ::
         :: add. restraining           0.000000000000 Eh    ::
         :: total charge              -0.000000000000 e     ::
         :::::::::::::::::::::::::::::::::::::::::::::::::::::

           -------------------------------------------------
          |                Property Printout                |
           -------------------------------------------------

    * Orbital Energies and Occupations

         #    Occupation            Energy/Eh            Energy/eV
      -------------------------------------------------------------
         1        2.0000           -0.7621171             -20.7383
       ...           ...                  ...                  ...
        44        2.0000           -0.4529323             -12.3249
        45        2.0000           -0.4482931             -12.1987
        46        2.0000           -0.4438587             -12.0780
        47        2.0000           -0.4398662             -11.9694
        48        2.0000           -0.4366092             -11.8807
        49        2.0000           -0.4321011             -11.7581
        50        2.0000           -0.4291346             -11.6773
        51        2.0000           -0.4199501             -11.4274
        52        2.0000           -0.4100472             -11.1580
        53        2.0000           -0.4032708             -10.9736
        54        2.0000           -0.3952551             -10.7554
        55        2.0000           -0.3740488             -10.1784
        56        2.0000           -0.3554729              -9.6729 (HOMO)
        57                         -0.2523489              -6.8668 (LUMO)
        58                         -0.2243984              -6.1062
        59                         -0.1925237              -5.2388
        60                         -0.1542674              -4.1978
        61                         -0.0678765              -1.8470
        62                         -0.0040035              -0.1089
        63                          0.0076047               0.2069
        64                          0.0464285               1.2634
        65                          0.0514497               1.4000
        66                          0.0799716               2.1761
        67                          0.0859865               2.3398
       ...                                ...                  ...
       105                          0.7232169              19.6797
      -------------------------------------------------------------
                  HL-Gap            0.1031240 Eh            2.8061 eV
             Fermi-level           -0.3039109 Eh           -8.2698 eV

     #   Z          covCN         q      C6AA      α(0)
     1   6 C        3.753    -0.100    22.472     6.760
     2   6 C        3.805    -0.056    21.582     6.614
     3   6 C        2.960    -0.011    28.281     8.723
     4   6 C        2.929    -0.048    29.180     8.859
     5   6 C        2.919    -0.043    29.075     8.842
     6   6 C        2.911    -0.041    29.026     8.834
     7   6 C        3.108    -0.023    28.427     8.736
     8   6 C        3.098     0.038    27.038     8.522
     9   7 N        2.775    -0.124    23.683     7.228
    10   6 C        3.088     0.014    27.611     8.613
    11   6 C        3.073    -0.036    28.808     8.800
    12   6 C        3.805    -0.065    21.734     6.637
    13   6 C        3.697     0.081    19.391     6.298
    14   8 O        1.701    -0.320    19.350     5.939
    15   6 C        3.790     0.144    18.272     6.088
    16   6 C        3.802    -0.059    21.637     6.622
    17   6 C        3.751    -0.109    22.640     6.786
    18   6 C        3.804    -0.099    22.391     6.737
    19   6 C        2.687     0.364    20.833     7.470
    20   8 O        1.659    -0.389    20.630     6.132
    21   8 O        0.856    -0.398    21.638     6.237
    22   1 H        0.925     0.035     2.519     2.482
    23   1 H        0.925     0.032     2.553     2.499
    24   1 H        0.925     0.038     2.475     2.460
    25   1 H        0.924     0.037     2.495     2.470
    26   1 H        0.924     0.028     2.620     2.531
    27   1 H        0.926     0.025     2.653     2.547
    28   1 H        0.926     0.024     2.666     2.553
    29   1 H        0.926     0.025     2.653     2.547
    30   1 H        0.860     0.178     1.228     1.736
    31   1 H        0.924     0.046     2.368     2.406
    32   1 H        0.924     0.040     2.454     2.450
    33   1 H        0.923     0.022     2.703     2.571
    34   1 H        0.924     0.047     2.353     2.399
    35   1 H        0.924     0.024     2.673     2.557
    36   1 H        0.924     0.036     2.508     2.477
    37   1 H        0.925     0.037     2.485     2.465
    38   1 H        0.925     0.052     2.289     2.366
    39   1 H        0.925     0.051     2.302     2.373
    40   1 H        0.924     0.077     2.010     2.217
    41   1 H        0.925     0.094     1.842     2.122
    42   1 H        0.804     0.331     0.636     1.252

 Mol. C6AA /au·bohr⁶  :      17924.716128
 Mol. C8AA /au·bohr⁸  :     415703.473433
 Mol. α(0) /au        :        204.955859


Wiberg/Mayer (AO) data.
largest (>0.10) Wiberg bond orders for each atom

 ---------------------------------------------------------------------------
     #   Z sym  total        # sym  WBO       # sym  WBO       # sym  WBO
 ---------------------------------------------------------------------------
     1   6 C    3.996 --     2 C    1.003    24 H    0.989    22 H    0.987
                            23 H    0.987
     2   6 C    3.997 --     3 C    1.009     1 C    1.003    25 H    0.976
                            26 H    0.971
     3   6 C    3.985 --     4 C    1.468     8 C    1.312     2 C    1.009
                             6 C    0.109
     4   6 C    3.987 --     3 C    1.468     5 C    1.370    27 H    0.970
     5   6 C    3.991 --     6 C    1.506     4 C    1.370    28 H    0.972
     6   6 C    3.988 --     5 C    1.506     7 C    1.324    29 H    0.970
                             3 C    0.109
     7   6 C    3.983 --     6 C    1.324     8 C    1.250    11 C    1.208
     8   6 C    3.955 --     3 C    1.312     7 C    1.250     9 N    1.174
     9   7 N    3.532 --    10 C    1.179     8 C    1.174    30 H    0.925
    10   6 C    3.951 --    11 C    1.545     9 N    1.179    15 C    0.988
    11   6 C    3.972 --    10 C    1.545     7 C    1.208    12 C    1.015
    12   6 C    3.997 --    11 C    1.015    13 C    0.993    32 H    0.970
                            31 H    0.963
    13   6 C    3.952 --    12 C    0.993    14 O    0.981    34 H    0.970
                            33 H    0.968
    14   8 O    2.079 --    13 C    0.981    15 C    0.965
    15   6 C    3.952 --    10 C    0.988    14 O    0.965    16 C    0.960
                            18 C    0.940
    16   6 C    3.993 --    17 C    1.019    35 H    0.974    36 H    0.974
                            15 C    0.960
    17   6 C    3.992 --    16 C    1.019    37 H    0.986    39 H    0.985
                            38 H    0.984
    18   6 C    3.986 --    19 C    0.987    41 H    0.964    40 H    0.958
                            15 C    0.940
    19   6 C    3.911 --    21 O    1.779    20 O    1.106    18 C    0.987
    20   8 O    2.187 --    19 C    1.106    42 H    0.865    21 O    0.167
    21   8 O    2.049 --    19 C    1.779    20 O    0.167
    22   1 H    0.999 --     1 C    0.987
    23   1 H    0.998 --     1 C    0.987
    24   1 H    0.999 --     1 C    0.989
    25   1 H    0.998 --     2 C    0.976
    26   1 H    0.999 --     2 C    0.971
    27   1 H    0.999 --     4 C    0.970
    28   1 H    0.999 --     5 C    0.972
    29   1 H    0.998 --     6 C    0.970
    30   1 H    0.968 --     9 N    0.925
    31   1 H    0.997 --    12 C    0.963
    32   1 H    0.998 --    12 C    0.970
    33   1 H    0.999 --    13 C    0.968
    34   1 H    0.997 --    13 C    0.970
    35   1 H    0.999 --    16 C    0.974
    36   1 H    0.999 --    16 C    0.974
    37   1 H    0.998 --    17 C    0.986
    38   1 H    0.997 --    17 C    0.984
    39   1 H    0.997 --    17 C    0.985
    40   1 H    0.994 --    18 C    0.958
    41   1 H    0.991 --    18 C    0.964
    42   1 H    0.890 --    20 O    0.865
 ---------------------------------------------------------------------------

Topologies differ in total number of bonds
Writing topology from bond orders to xtbtopo.mol

molecular dipole:
                 x           y           z       tot (Debye)
 q only:        0.369       0.091       0.331
   full:        0.482       0.340       0.504       1.971
molecular quadrupole (traceless):
                xx          xy          yy          xz          yz          zz
 q only:       -3.383      12.653       1.925      -2.844       5.025       1.458
  q+dip:       -5.193      14.447       5.482      -3.139       7.330      -0.290
   full:       -6.006      15.257       4.463      -4.550       6.126       1.543

           -------------------------------------------------
          |                Geometry Summary                 |
           -------------------------------------------------

      molecular mass/u    :      287.3541840
   center of mass at/Å    :       -0.0312121       0.0284534      -0.1030997
  moments of inertia/u·Å² :        0.1077819E+04   0.2012070E+04   0.2841150E+04
rotational constants/cm⁻¹ :        0.1564050E-01   0.8378252E-02   0.5933384E-02

 * 39 selected distances

     #   Z          #   Z                                           value/Å
     1   6 C        2   6 C                                       1.5301269
     3   6 C        4   6 C                                       1.3812967
     4   6 C        5   6 C                                       1.3976822
     5   6 C        6   6 C                                       1.3753687
     6   6 C        7   6 C                                       1.3948746
     3   6 C        8   6 C                                       1.3948376
     7   6 C        8   6 C                                       1.4167427
     8   6 C        9   7 N                                       1.3669057
     9   7 N       10   6 C                                       1.3697622
     7   6 C       11   6 C                                       1.4248326
    10   6 C       11   6 C                                       1.3669762
    11   6 C       12   6 C                                       1.4915626
    12   6 C       13   6 C                                       1.5320495 (max)
    13   6 C       14   8 O                                       1.4129907
    14   8 O       15   6 C                                       1.4274174
    16   6 C       17   6 C                                       1.5242998
    19   6 C       20   8 O                                       1.3484872
    19   6 C       21   8 O                                       1.2000141
     1   6 C       22   1 H                                       1.0875290
     1   6 C       23   1 H                                       1.0880423
     1   6 C       24   1 H                                       1.0873257
     2   6 C       25   1 H                                       1.0912589
     2   6 C       26   1 H                                       1.0933879
     4   6 C       27   1 H                                       1.0807679
     5   6 C       28   1 H                                       1.0803050
     6   6 C       29   1 H                                       1.0795976
     9   7 N       30   1 H                                       1.0049911
    12   6 C       31   1 H                                       1.0941385
    12   6 C       32   1 H                                       1.0912842
    13   6 C       33   1 H                                       1.0985053
    13   6 C       34   1 H                                       1.0923417
    16   6 C       35   1 H                                       1.0919263
    16   6 C       36   1 H                                       1.0929280
    17   6 C       37   1 H                                       1.0872673
    17   6 C       38   1 H                                       1.0857630
    17   6 C       39   1 H                                       1.0868387
    18   6 C       40   1 H                                       1.0910877
    18   6 C       41   1 H                                       1.0900824
    20   8 O       42   1 H                                       0.9711766 (min)

 * 6 distinct bonds (by element types)

   Z      Z             #   av. dist./Å        max./Å        min./Å
   1 H    6 C          19     1.0889672     1.0985053     1.0795976
   6 C    6 C          12     1.4358875     1.5320495     1.3669762
   1 H    7 N           1     1.0049911     1.0049911     1.0049911
   6 C    7 N           2     1.3683339     1.3697622     1.3669057
   1 H    8 O           1     0.9711766     0.9711766     0.9711766
   6 C    8 O           4     1.3472273     1.4274174     1.2000141


optimized geometry written to: xtbopt.xyz


           -------------------------------------------------
          | TOTAL ENERGY              -62.291053081428 Eh   |
          | GRADIENT NORM               0.000575965068 Eh/α |
          | HOMO-LUMO GAP               2.806147209183 eV   |
           -------------------------------------------------

------------------------------------------------------------------------
 * finished run on 2025/05/15 at 16:22:30.180     
------------------------------------------------------------------------
 total:
 * wall-time:     0 d,  0 h,  0 min,  1.176 sec
 *  cpu-time:     0 d,  0 h,  0 min,  0.904 sec
 * ratio c/w:     0.769 speedup
 SCF:
 * wall-time:     0 d,  0 h,  0 min,  0.085 sec
 *  cpu-time:     0 d,  0 h,  0 min,  0.057 sec
 * ratio c/w:     0.670 speedup
 ANC optimizer:
 * wall-time:     0 d,  0 h,  0 min,  1.042 sec
 *  cpu-time:     0 d,  0 h,  0 min,  0.835 sec
 * ratio c/w:     0.801 speedup



----- Single-point -----
      -----------------------------------------------------------      
     |                   =====================                   |     
     |                           x T B                           |     
     |                   =====================                   |     
     |                         S. Grimme                         |     
     |          Mulliken Center for Theoretical Chemistry        |     
     |                    University of Bonn                     |     
      -----------------------------------------------------------      

   * xtb version 6.7.1 (edcfbbe) compiled by 'conda@3ef47c1a292c' on 2024-11-25

   xtb is free software: you can redistribute it and/or modify it under
   the terms of the GNU Lesser General Public License as published by
   the Free Software Foundation, either version 3 of the License, or
   (at your option) any later version.
   
   xtb is distributed in the hope that it will be useful,
   but WITHOUT ANY WARRANTY; without even the implied warranty of
   MERCHANTABILITY or FITNESS FOR A PARTICULAR PURPOSE.  See the
   GNU Lesser General Public License for more details.
   
   Cite this work as:
   * C. Bannwarth, E. Caldeweyher, S. Ehlert, A. Hansen, P. Pracht,
     J. Seibert, S. Spicher, S. Grimme, WIREs Comput. Mol. Sci., 2020, 11,
     e01493. DOI: 10.1002/wcms.1493
   
   for GFN2-xTB:
   * C. Bannwarth, S. Ehlert and S. Grimme., J. Chem. Theory Comput., 2019,
     15, 1652-1671. DOI: 10.1021/acs.jctc.8b01176
   for GFN1-xTB:
   * S. Grimme, C. Bannwarth, P. Shushkov, J. Chem. Theory Comput., 2017,
     13, 1989-2009. DOI: 10.1021/acs.jctc.7b00118
   for GFN0-xTB:
   * P. Pracht, E. Caldeweyher, S. Ehlert, S. Grimme, ChemRxiv, 2019, preprint.
     DOI: 10.26434/chemrxiv.8326202.v1
   for GFN-FF:
   * S. Spicher and S. Grimme, Angew. Chem. Int. Ed., 2020, 59, 15665-15673.
     DOI: 10.1002/anie.202004239
   
   for ALPB and GBSA implicit solvation:
   * S. Ehlert, M. Stahn, S. Spicher, S. Grimme, J. Chem. Theory Comput.,
     2021, 17, 4250-4261. DOI: 10.1021/acs.jctc.1c00471
   
   for ddCOSMO and CPCM-X implicit solvation:
   * M. Stahn, S. Ehlert, S. Grimme, J. Phys. Chem. A,
     2023, XX, XXXX-XXXX. DOI: 10.1021/acs.jpca.3c04382
   
   for DFT-D4:
   * E. Caldeweyher, C. Bannwarth and S. Grimme, J. Chem. Phys., 2017,
     147, 034112. DOI: 10.1063/1.4993215
   * E. Caldeweyher, S. Ehlert, A. Hansen, H. Neugebauer, S. Spicher,
     C. Bannwarth and S. Grimme, J. Chem. Phys., 2019, 150, 154122.
     DOI: 10.1063/1.5090222
   * E. Caldeweyher, J.-M. Mewes, S. Ehlert and S. Grimme, Phys. Chem. Chem. Phys.
     2020, 22, 8499-8512. DOI: 10.1039/D0CP00502A
   
   for sTDA-xTB:
   * S. Grimme and C. Bannwarth, J. Chem. Phys., 2016, 145, 054103.
     DOI: 10.1063/1.4959605
   
   in the mass-spec context:
   * V. Asgeirsson, C. Bauer and S. Grimme, Chem. Sci., 2017, 8, 4879.
     DOI: 10.1039/c7sc00601b
   * J. Koopman and S. Grimme, ACS Omega 2019, 4, 12, 15120-15133.
     DOI: 10.1021/acsomega.9b02011
   
   for metadynamics refer to:
   * S. Grimme, J. Chem. Theory Comput., 2019, 155, 2847-2862
     DOI: 10.1021/acs.jctc.9b00143
   
   for SPH calculations refer to:
   * S. Spicher and S. Grimme, J. Chem. Theory Comput., 2021, 17, 1701-1714
     DOI: 10.1021/acs.jctc.0c01306
   
   for ONIOM refer to:
   * C. Plett, A. Katbashev, S. Ehlert, S. Grimme, M. Bursch,
     Phys. Chem. Chem. Phys., 2023, 25, 17860-17868. DOI: 10.1039/D3CP02178E
   
   for DIPRO refer to:
   * J. Kohn, N. Gildemeister, S. Grimme, D. Fazzi, A. Hansen,
     J. Chem. Phys., 2023, just accepted.
   
   for PTB refer to:
   * S. Grimme, M. Mueller, A. Hansen, J. Chem. Phys., 2023, 158, 124111.
     DOI: 10.1063/5.0137838
   
   with help from (in alphabetical order)
   P. Atkinson, C. Bannwarth, F. Bohle, G. Brandenburg, E. Caldeweyher
   M. Checinski, S. Dohm, S. Ehlert, S. Ehrlich, I. Gerasimov, C. Hölzer
   A. Katbashev, J. Kohn, J. Koopman, C. Lavigne, S. Lehtola, F. März, M. Müller,
   F. Musil, H. Neugebauer, J. Pisarek, C. Plett, P. Pracht, F. Pultar,
   J. Seibert, P. Shushkov, S. Spicher, M. Stahn, M. Steiner, T. Strunk,
   J. Stückrath, T. Rose, and J. Unsleber
   
 * started run on 2025/05/15 at 16:22:30.213     
   ID    Z sym.   atoms
    1    6 C      1-8, 10-13, 15-19
    2    7 N      9
    3    8 O      14, 20, 21
    4    1 H      22-42

           -------------------------------------------------
          |                Calculation Setup                |
           -------------------------------------------------

          program call               : xtb /rds/general/user/hgt20/home/callum/QDESCP/Etodolac_rdkit_conf_9/Etodolac_rdkit_conf_9.xyz --acc 1 --gfn 2 --chrg 0 --uhf 0 --etemp 300 --input /rds/general/user/hgt20/home/callum/QDESCP/Etodolac_rdkit_conf_9/Etodolac_rdkit_conf_9_xtb.inp -P 1
          hostname                   : login-c
          coordinate file            : /rds/general/user/hgt20/home/callum/QDESCP/Etodolac_rdkit_conf_9/Etodolac_rdkit_conf_9.xyz
          omp threads                :                     1


           -------------------------------------------------
          |                 G F N 2 - x T B                 |
           -------------------------------------------------

        Reference                      10.1021/acs.jctc.8b01176
      * Hamiltonian:
        H0-scaling (s, p, d)           1.850000    2.230000    2.230000
        zeta-weighting                 0.500000
      * Dispersion:
        s8                             2.700000
        a1                             0.520000
        a2                             5.000000
        s9                             5.000000
      * Repulsion:
        kExp                           1.500000    1.000000
        rExp                           1.000000
      * Coulomb:
        alpha                          2.000000
        third order                    shell-resolved
        anisotropic                    true
        a3                             3.000000
        a5                             4.000000
        cn-shift                       1.200000
        cn-exp                         4.000000
        max-rad                        5.000000

q/qsh data taken from xtbrestart
CAMM data taken from xtbrestart

          ...................................................
          :                      SETUP                      :
          :.................................................:
          :  # basis functions                 105          :
          :  # atomic orbitals                 105          :
          :  # shells                           63          :
          :  # electrons                       112          :
          :  max. iterations                   250          :
          :  Hamiltonian                  GFN2-xTB          :
          :  restarted?                       true          :
          :  GBSA solvation                  false          :
          :  PC potential                    false          :
          :  electronic temp.          300.0000000     K    :
          :  accuracy                    1.0000000          :
          :  -> integral cutoff          0.2500000E+02      :
          :  -> integral neglect         0.1000000E-07      :
          :  -> SCF convergence          0.1000000E-05 Eh   :
          :  -> wf. convergence          0.1000000E-03 e    :
          :  Broyden damping             0.4000000          :
          :  net charge                          0          :
          :  unpaired electrons                  0          :
          ...................................................

 iter      E             dE          RMSdq      gap      omega  full diag
   1    -63.1491999 -0.631492E+02  0.467E-06    2.81       0.0  T
   2    -63.1491999 -0.923706E-13  0.368E-06    2.81    4189.5  T
   3    -63.1491999 -0.689226E-12  0.126E-06    2.81   12268.6  T

   *** convergence criteria satisfied after 3 iterations ***

         #    Occupation            Energy/Eh            Energy/eV
      -------------------------------------------------------------
         1        2.0000           -0.7621172             -20.7383
       ...           ...                  ...                  ...
        50        2.0000           -0.4291345             -11.6773
        51        2.0000           -0.4199502             -11.4274
        52        2.0000           -0.4100472             -11.1580
        53        2.0000           -0.4032708             -10.9736
        54        2.0000           -0.3952551             -10.7554
        55        2.0000           -0.3740488             -10.1784
        56        2.0000           -0.3554729              -9.6729 (HOMO)
        57                         -0.2523490              -6.8668 (LUMO)
        58                         -0.2243985              -6.1062
        59                         -0.1925237              -5.2388
        60                         -0.1542674              -4.1978
        61                         -0.0678766              -1.8470
       ...                                ...                  ...
       105                          0.7232169              19.6797
      -------------------------------------------------------------
                  HL-Gap            0.1031239 Eh            2.8061 eV
             Fermi-level           -0.3039110 Eh           -8.2698 eV

 SCC (total)                   0 d,  0 h,  0 min,  0.040 sec
 SCC setup                      ...        0 min,  0.000 sec (  0.954%)
 Dispersion                     ...        0 min,  0.000 sec (  1.127%)
 classical contributions        ...        0 min,  0.000 sec (  0.355%)
 integral evaluation            ...        0 min,  0.008 sec ( 18.882%)
 iterations                     ...        0 min,  0.007 sec ( 17.164%)
 molecular gradient             ...        0 min,  0.024 sec ( 60.326%)
 printout                       ...        0 min,  0.000 sec (  1.161%)

         :::::::::::::::::::::::::::::::::::::::::::::::::::::
         ::                     SUMMARY                     ::
         :::::::::::::::::::::::::::::::::::::::::::::::::::::
         :: total energy             -62.291053081432 Eh    ::
         :: gradient norm              0.000575908586 Eh/a0 ::
         :: HOMO-LUMO gap              2.806144886817 eV    ::
         ::.................................................::
         :: SCC energy               -63.148587831858 Eh    ::
         :: -> isotropic ES            0.072857232361 Eh    ::
         :: -> anisotropic ES          0.008153547079 Eh    ::
         :: -> anisotropic XC          0.017494259114 Eh    ::
         :: -> dispersion             -0.045805829269 Eh    ::
         :: repulsion energy           0.857534750426 Eh    ::
         :: add. restraining           0.000000000000 Eh    ::
         :: total charge              -0.000000000000 e     ::
         :::::::::::::::::::::::::::::::::::::::::::::::::::::

           -------------------------------------------------
          |                Property Printout                |
           -------------------------------------------------

    * Orbital Energies and Occupations

         #    Occupation            Energy/Eh            Energy/eV
      -------------------------------------------------------------
         1        2.0000           -0.7621172             -20.7383
       ...           ...                  ...                  ...
        44        2.0000           -0.4529323             -12.3249
        45        2.0000           -0.4482930             -12.1987
        46        2.0000           -0.4438588             -12.0780
        47        2.0000           -0.4398661             -11.9694
        48        2.0000           -0.4366091             -11.8807
        49        2.0000           -0.4321012             -11.7581
        50        2.0000           -0.4291345             -11.6773
        51        2.0000           -0.4199502             -11.4274
        52        2.0000           -0.4100472             -11.1580
        53        2.0000           -0.4032708             -10.9736
        54        2.0000           -0.3952551             -10.7554
        55        2.0000           -0.3740488             -10.1784
        56        2.0000           -0.3554729              -9.6729 (HOMO)
        57                         -0.2523490              -6.8668 (LUMO)
        58                         -0.2243985              -6.1062
        59                         -0.1925237              -5.2388
        60                         -0.1542674              -4.1978
        61                         -0.0678766              -1.8470
        62                         -0.0040035              -0.1089
        63                          0.0076047               0.2069
        64                          0.0464285               1.2634
        65                          0.0514497               1.4000
        66                          0.0799717               2.1761
        67                          0.0859865               2.3398
       ...                                ...                  ...
       105                          0.7232169              19.6797
      -------------------------------------------------------------
                  HL-Gap            0.1031239 Eh            2.8061 eV
             Fermi-level           -0.3039110 Eh           -8.2698 eV

     #   Z          covCN         q      C6AA      α(0)
     1   6 C        3.753    -0.100    22.472     6.760
     2   6 C        3.805    -0.056    21.582     6.614
     3   6 C        2.960    -0.011    28.281     8.723
     4   6 C        2.929    -0.048    29.180     8.859
     5   6 C        2.919    -0.043    29.075     8.842
     6   6 C        2.911    -0.041    29.026     8.834
     7   6 C        3.108    -0.023    28.427     8.736
     8   6 C        3.098     0.038    27.038     8.522
     9   7 N        2.775    -0.124    23.683     7.228
    10   6 C        3.088     0.014    27.611     8.613
    11   6 C        3.073    -0.036    28.808     8.800
    12   6 C        3.805    -0.065    21.734     6.637
    13   6 C        3.697     0.081    19.391     6.298
    14   8 O        1.701    -0.320    19.350     5.939
    15   6 C        3.790     0.144    18.272     6.088
    16   6 C        3.802    -0.059    21.637     6.622
    17   6 C        3.751    -0.109    22.640     6.786
    18   6 C        3.804    -0.099    22.391     6.737
    19   6 C        2.687     0.364    20.833     7.470
    20   8 O        1.659    -0.389    20.630     6.132
    21   8 O        0.856    -0.398    21.638     6.237
    22   1 H        0.925     0.035     2.519     2.482
    23   1 H        0.925     0.032     2.553     2.499
    24   1 H        0.925     0.038     2.475     2.460
    25   1 H        0.924     0.037     2.495     2.470
    26   1 H        0.924     0.028     2.620     2.531
    27   1 H        0.926     0.025     2.653     2.547
    28   1 H        0.926     0.024     2.666     2.553
    29   1 H        0.926     0.025     2.653     2.547
    30   1 H        0.860     0.178     1.228     1.736
    31   1 H        0.924     0.046     2.368     2.406
    32   1 H        0.924     0.040     2.454     2.450
    33   1 H        0.923     0.022     2.703     2.571
    34   1 H        0.924     0.047     2.353     2.399
    35   1 H        0.924     0.024     2.673     2.557
    36   1 H        0.924     0.036     2.508     2.477
    37   1 H        0.925     0.037     2.485     2.465
    38   1 H        0.925     0.052     2.289     2.366
    39   1 H        0.925     0.051     2.302     2.373
    40   1 H        0.924     0.077     2.010     2.217
    41   1 H        0.925     0.094     1.842     2.122
    42   1 H        0.804     0.331     0.636     1.252

 Mol. C6AA /au·bohr⁶  :      17924.716102
 Mol. C8AA /au·bohr⁸  :     415703.473782
 Mol. α(0) /au        :        204.955859


Wiberg/Mayer (AO) data.
largest (>0.10) Wiberg bond orders for each atom

 ---------------------------------------------------------------------------
     #   Z sym  total        # sym  WBO       # sym  WBO       # sym  WBO
 ---------------------------------------------------------------------------
     1   6 C    3.996 --     2 C    1.003    24 H    0.989    22 H    0.987
                            23 H    0.987
     2   6 C    3.997 --     3 C    1.009     1 C    1.003    25 H    0.976
                            26 H    0.971
     3   6 C    3.985 --     4 C    1.468     8 C    1.312     2 C    1.009
                             6 C    0.109
     4   6 C    3.987 --     3 C    1.468     5 C    1.370    27 H    0.970
     5   6 C    3.991 --     6 C    1.506     4 C    1.370    28 H    0.972
     6   6 C    3.988 --     5 C    1.506     7 C    1.324    29 H    0.970
                             3 C    0.109
     7   6 C    3.983 --     6 C    1.324     8 C    1.250    11 C    1.208
     8   6 C    3.955 --     3 C    1.312     7 C    1.250     9 N    1.174
     9   7 N    3.532 --    10 C    1.179     8 C    1.174    30 H    0.925
    10   6 C    3.951 --    11 C    1.545     9 N    1.179    15 C    0.988
    11   6 C    3.972 --    10 C    1.545     7 C    1.208    12 C    1.015
    12   6 C    3.997 --    11 C    1.015    13 C    0.993    32 H    0.970
                            31 H    0.963
    13   6 C    3.952 --    12 C    0.993    14 O    0.981    34 H    0.970
                            33 H    0.968
    14   8 O    2.079 --    13 C    0.981    15 C    0.965
    15   6 C    3.952 --    10 C    0.988    14 O    0.965    16 C    0.960
                            18 C    0.940
    16   6 C    3.993 --    17 C    1.019    35 H    0.974    36 H    0.974
                            15 C    0.960
    17   6 C    3.992 --    16 C    1.019    37 H    0.986    39 H    0.985
                            38 H    0.984
    18   6 C    3.986 --    19 C    0.987    41 H    0.964    40 H    0.958
                            15 C    0.940
    19   6 C    3.911 --    21 O    1.779    20 O    1.106    18 C    0.987
    20   8 O    2.187 --    19 C    1.106    42 H    0.865    21 O    0.167
    21   8 O    2.049 --    19 C    1.779    20 O    0.167
    22   1 H    0.999 --     1 C    0.987
    23   1 H    0.998 --     1 C    0.987
    24   1 H    0.999 --     1 C    0.989
    25   1 H    0.998 --     2 C    0.976
    26   1 H    0.999 --     2 C    0.971
    27   1 H    0.999 --     4 C    0.970
    28   1 H    0.999 --     5 C    0.972
    29   1 H    0.998 --     6 C    0.970
    30   1 H    0.968 --     9 N    0.925
[...]
     DOI: 10.1002/anie.202004239
   
   for ALPB and GBSA implicit solvation:
   * S. Ehlert, M. Stahn, S. Spicher, S. Grimme, J. Chem. Theory Comput.,
     2021, 17, 4250-4261. DOI: 10.1021/acs.jctc.1c00471
   
   for ddCOSMO and CPCM-X implicit solvation:
   * M. Stahn, S. Ehlert, S. Grimme, J. Phys. Chem. A,
     2023, XX, XXXX-XXXX. DOI: 10.1021/acs.jpca.3c04382
   
   for DFT-D4:
   * E. Caldeweyher, C. Bannwarth and S. Grimme, J. Chem. Phys., 2017,
     147, 034112. DOI: 10.1063/1.4993215
   * E. Caldeweyher, S. Ehlert, A. Hansen, H. Neugebauer, S. Spicher,
     C. Bannwarth and S. Grimme, J. Chem. Phys., 2019, 150, 154122.
     DOI: 10.1063/1.5090222
   * E. Caldeweyher, J.-M. Mewes, S. Ehlert and S. Grimme, Phys. Chem. Chem. Phys.
     2020, 22, 8499-8512. DOI: 10.1039/D0CP00502A
   
   for sTDA-xTB:
   * S. Grimme and C. Bannwarth, J. Chem. Phys., 2016, 145, 054103.
     DOI: 10.1063/1.4959605
   
   in the mass-spec context:
   * V. Asgeirsson, C. Bauer and S. Grimme, Chem. Sci., 2017, 8, 4879.
     DOI: 10.1039/c7sc00601b
   * J. Koopman and S. Grimme, ACS Omega 2019, 4, 12, 15120-15133.
     DOI: 10.1021/acsomega.9b02011
   
   for metadynamics refer to:
   * S. Grimme, J. Chem. Theory Comput., 2019, 155, 2847-2862
     DOI: 10.1021/acs.jctc.9b00143
   
   for SPH calculations refer to:
   * S. Spicher and S. Grimme, J. Chem. Theory Comput., 2021, 17, 1701-1714
     DOI: 10.1021/acs.jctc.0c01306
   
   for ONIOM refer to:
   * C. Plett, A. Katbashev, S. Ehlert, S. Grimme, M. Bursch,
     Phys. Chem. Chem. Phys., 2023, 25, 17860-17868. DOI: 10.1039/D3CP02178E
   
   for DIPRO refer to:
   * J. Kohn, N. Gildemeister, S. Grimme, D. Fazzi, A. Hansen,
     J. Chem. Phys., 2023, just accepted.
   
   for PTB refer to:
   * S. Grimme, M. Mueller, A. Hansen, J. Chem. Phys., 2023, 158, 124111.
     DOI: 10.1063/5.0137838
   
   with help from (in alphabetical order)
   P. Atkinson, C. Bannwarth, F. Bohle, G. Brandenburg, E. Caldeweyher
   M. Checinski, S. Dohm, S. Ehlert, S. Ehrlich, I. Gerasimov, C. Hölzer
   A. Katbashev, J. Kohn, J. Koopman, C. Lavigne, S. Lehtola, F. März, M. Müller,
   F. Musil, H. Neugebauer, J. Pisarek, C. Plett, P. Pracht, F. Pultar,
   J. Seibert, P. Shushkov, S. Spicher, M. Stahn, M. Steiner, T. Strunk,
   J. Stückrath, T. Rose, and J. Unsleber
   
 * started run on 2025/05/15 at 16:22:31.821     
   ID    Z sym.   atoms
    1    6 C      1-8, 10-13, 15-19
    2    7 N      9
    3    8 O      14, 20, 21
    4    1 H      22-42

           -------------------------------------------------
          |                Calculation Setup                |
           -------------------------------------------------

          program call               : xtb /rds/general/user/hgt20/home/callum/QDESCP/Etodolac_rdkit_conf_9/Etodolac_rdkit_conf_9.xyz --acc 1 --gfn 2 --chrg 0 --uhf 2 --etemp 300 --input /rds/general/user/hgt20/home/callum/QDESCP/Etodolac_rdkit_conf_9/Etodolac_rdkit_conf_9_xtb.inp -P 1
          hostname                   : login-c
          coordinate file            : /rds/general/user/hgt20/home/callum/QDESCP/Etodolac_rdkit_conf_9/Etodolac_rdkit_conf_9.xyz
          omp threads                :                     1


           -------------------------------------------------
          |                 G F N 2 - x T B                 |
           -------------------------------------------------

        Reference                      10.1021/acs.jctc.8b01176
      * Hamiltonian:
        H0-scaling (s, p, d)           1.850000    2.230000    2.230000
        zeta-weighting                 0.500000
      * Dispersion:
        s8                             2.700000
        a1                             0.520000
        a2                             5.000000
        s9                             5.000000
      * Repulsion:
        kExp                           1.500000    1.000000
        rExp                           1.000000
      * Coulomb:
        alpha                          2.000000
        third order                    shell-resolved
        anisotropic                    true
        a3                             3.000000
        a5                             4.000000
        cn-shift                       1.200000
        cn-exp                         4.000000
        max-rad                        5.000000


          ...................................................
          :                      SETUP                      :
          :.................................................:
          :  # basis functions                 105          :
          :  # atomic orbitals                 105          :
          :  # shells                           63          :
          :  # electrons                       112          :
          :  max. iterations                   250          :
          :  Hamiltonian                  GFN2-xTB          :
          :  restarted?                      false          :
          :  GBSA solvation                  false          :
          :  PC potential                    false          :
          :  electronic temp.          300.0000000     K    :
          :  accuracy                    1.0000000          :
          :  -> integral cutoff          0.2500000E+02      :
          :  -> integral neglect         0.1000000E-07      :
          :  -> SCF convergence          0.1000000E-05 Eh   :
          :  -> wf. convergence          0.1000000E-03 e    :
          :  Broyden damping             0.4000000          :
          :  net charge                          0          :
          :  unpaired electrons                  2          :
          ...................................................

 iter      E             dE          RMSdq      gap      omega  full diag
   1    -62.8205097 -0.628205E+02  0.378E+00    0.94       0.0  T
   2    -62.7166514  0.103858E+00  0.322E+00    0.85       1.0  T
   3    -62.5964687  0.120183E+00  0.223E+00    0.89       1.0  T
   4    -62.7990114 -0.202543E+00  0.213E+00    1.26       1.0  T
   5    -62.9091972 -0.110186E+00  0.122E+00    0.26       1.0  T
   6    -62.9963823 -0.871851E-01  0.971E-01    0.35       1.0  T
   7    -63.0047595 -0.837724E-02  0.860E-01    0.35       1.0  T
   8    -63.0096443 -0.488480E-02  0.653E-01    0.28       1.0  T
   9    -63.0178387 -0.819441E-02  0.365E-01    0.31       1.0  T
  10    -63.0200506 -0.221192E-02  0.720E-02    0.27       1.0  T
  11    -63.0202460 -0.195321E-03  0.474E-02    0.27       1.0  T
  12    -63.0203117 -0.657339E-04  0.212E-02    0.29       1.0  T
  13    -63.0203110  0.700809E-06  0.216E-02    0.28       1.0  T
  14    -63.0203379 -0.268593E-04  0.751E-03    0.28       2.1  T
  15    -63.0203404 -0.251006E-05  0.315E-03    0.28       4.9  T
  16    -63.0203408 -0.392307E-06  0.105E-03    0.28      14.6  T
  17    -63.0203408 -0.325610E-07  0.356E-04    0.28      43.3  T
  18    -63.0203408 -0.582020E-08  0.142E-04    0.28     108.4  T

   *** convergence criteria satisfied after 18 iterations ***

         #    Occupation            Energy/Eh            Energy/eV
      -------------------------------------------------------------
         1        2.0000           -0.7395758             -20.1249
       ...           ...                  ...                  ...
        51        2.0000           -0.4173662             -11.3571
        52        2.0000           -0.4137628             -11.2591
        53        2.0000           -0.4110452             -11.1851
        54        2.0000           -0.3994986             -10.8709
        55        1.9995           -0.3820984             -10.3974
        56        1.0005           -0.3675095             -10.0004
        57        0.9959           -0.2341371              -6.3712 (HOMO)
        58        0.0041           -0.2236953              -6.0871 (LUMO)
        59                         -0.2014815              -5.4826
        60                         -0.1661377              -4.5208
        61                         -0.0762723              -2.0755
        62                         -0.0063029              -0.1715
       ...                                ...                  ...
       105                          0.7130122              19.4020
      -------------------------------------------------------------
                  HL-Gap            0.0104417 Eh            0.2841 eV
             Fermi-level           -0.3018601 Eh           -8.2140 eV

 transition dipole moment (au) for excitation:          56          57
     X       Y       Z   
  -0.5570   1.5750   0.1159  total (au/Debye):    1.675   4.256
 dE (eV)             :    3.629
 oscillator strength :  0.35261E+00

 SCC (total)                   0 d,  0 h,  0 min,  0.078 sec
 SCC setup                      ...        0 min,  0.000 sec (  0.434%)
 Dispersion                     ...        0 min,  0.000 sec (  0.591%)
 classical contributions        ...        0 min,  0.000 sec (  0.185%)
 integral evaluation            ...        0 min,  0.008 sec (  9.727%)
 iterations                     ...        0 min,  0.035 sec ( 44.767%)
 molecular gradient             ...        0 min,  0.028 sec ( 35.417%)
 printout                       ...        0 min,  0.007 sec (  8.870%)

         :::::::::::::::::::::::::::::::::::::::::::::::::::::
         ::                     SUMMARY                     ::
         :::::::::::::::::::::::::::::::::::::::::::::::::::::
         :: total energy             -62.162193957708 Eh    ::
         :: gradient norm              0.151794531890 Eh/a0 ::
         :: HOMO-LUMO gap              0.284134326553 eV    ::
         ::.................................................::
         :: SCC energy               -63.019728708135 Eh    ::
         :: -> isotropic ES            0.076484221933 Eh    ::
         :: -> anisotropic ES          0.006126959401 Eh    ::
         :: -> anisotropic XC          0.016964500704 Eh    ::
         :: -> dispersion             -0.045693276349 Eh    ::
         :: repulsion energy           0.857534750426 Eh    ::
         :: add. restraining           0.000000000000 Eh    ::
         :: total charge               0.000000000005 e     ::
         :::::::::::::::::::::::::::::::::::::::::::::::::::::

           -------------------------------------------------
          |                Property Printout                |
           -------------------------------------------------

    * Orbital Energies and Occupations

         #    Occupation            Energy/Eh            Energy/eV
      -------------------------------------------------------------
         1        2.0000           -0.7395758             -20.1249
       ...           ...                  ...                  ...
        45        2.0000           -0.4523592             -12.3093
        46        2.0000           -0.4505565             -12.2603
        47        2.0000           -0.4437172             -12.0742
        48        2.0000           -0.4362580             -11.8712
        49        2.0000           -0.4311365             -11.7318
        50        2.0000           -0.4259667             -11.5911
        51        2.0000           -0.4173662             -11.3571
        52        2.0000           -0.4137628             -11.2591
        53        2.0000           -0.4110452             -11.1851
        54        2.0000           -0.3994986             -10.8709
        55        1.9995           -0.3820984             -10.3974
        56        1.0005           -0.3675095             -10.0004
        57        0.9959           -0.2341371              -6.3712 (HOMO)
        58        0.0041           -0.2236953              -6.0871 (LUMO)
        59                         -0.2014815              -5.4826
        60                         -0.1661377              -4.5208
        61                         -0.0762723              -2.0755
        62                         -0.0063029              -0.1715
        63                          0.0060903               0.1657
        64                          0.0530269               1.4429
        65                          0.0546476               1.4870
        66                          0.0759340               2.0663
        67                          0.0821055               2.2342
        68                          0.0911543               2.4804
       ...                                ...                  ...
       105                          0.7130122              19.4020
      -------------------------------------------------------------
                  HL-Gap            0.0104417 Eh            0.2841 eV
             Fermi-level           -0.3018601 Eh           -8.2140 eV

     #   Z          covCN         q      C6AA      α(0)
     1   6 C        3.753    -0.101    22.480     6.761
     2   6 C        3.805    -0.056    21.583     6.614
     3   6 C        2.960    -0.018    28.452     8.749
     4   6 C        2.929    -0.043    29.056     8.840
     5   6 C        2.919    -0.041    29.012     8.833
     6   6 C        2.911    -0.042    29.048     8.838
     7   6 C        3.108    -0.032    28.650     8.770
     8   6 C        3.098     0.040    26.995     8.515
     9   7 N        2.775    -0.099    23.180     7.151
    10   6 C        3.088     0.006    27.793     8.642
    11   6 C        3.073    -0.001    27.963     8.670
    12   6 C        3.805    -0.067    21.775     6.643
    13   6 C        3.697     0.081    19.393     6.299
    14   8 O        1.701    -0.318    19.319     5.934
    15   6 C        3.790     0.142    18.307     6.094
    16   6 C        3.802    -0.058    21.615     6.619
    17   6 C        3.751    -0.109    22.636     6.785
    18   6 C        3.804    -0.099    22.382     6.735
    19   6 C        2.687     0.338    21.254     7.545
    20   8 O        1.659    -0.413    21.109     6.202
    21   8 O        0.856    -0.435    22.398     6.345
    22   1 H        0.925     0.037     2.488     2.467
    23   1 H        0.925     0.035     2.516     2.480
    24   1 H        0.925     0.039     2.464     2.455
    25   1 H        0.924     0.038     2.469     2.457
    26   1 H        0.924     0.030     2.589     2.516
    27   1 H        0.926     0.028     2.608     2.525
    28   1 H        0.926     0.028     2.621     2.532
    29   1 H        0.926     0.025     2.661     2.551
    30   1 H        0.860     0.192     1.146     1.677
    31   1 H        0.924     0.065     2.139     2.287
    32   1 H        0.924     0.052     2.301     2.372
    33   1 H        0.923     0.025     2.658     2.550
    34   1 H        0.924     0.051     2.310     2.377
    35   1 H        0.924     0.028     2.610     2.526
    36   1 H        0.924     0.031     2.579     2.512
    37   1 H        0.925     0.037     2.489     2.467
    38   1 H        0.925     0.059     2.214     2.327
    39   1 H        0.925     0.050     2.322     2.383
    40   1 H        0.924     0.064     2.153     2.294
    41   1 H        0.925     0.089     1.891     2.151
    42   1 H        0.804     0.323     0.656     1.273

 Mol. C6AA /au·bohr⁶  :      17895.795889
 Mol. C8AA /au·bohr⁸  :     415324.718062
 Mol. α(0) /au        :        204.762548


Wiberg/Mayer (AO) data.
largest (>0.10) Wiberg bond orders for each atom

 ---------------------------------------------------------------------------
     #   Z sym  total        # sym  WBO       # sym  WBO       # sym  WBO
 ---------------------------------------------------------------------------
     1   6 C    3.991 --     2 C    0.993    24 H    0.989    22 H    0.986
                            23 H    0.986
     2   6 C    3.996 --     3 C    1.018     1 C    0.993    25 H    0.975
                            26 H    0.968
     3   6 C    3.833 --     8 C    1.345     4 C    1.175     2 C    1.018
     4   6 C    3.896 --     5 C    1.513     3 C    1.175    27 H    0.970
     5   6 C    3.980 --     4 C    1.513     6 C    1.333    28 H    0.971
     6   6 C    3.798 --     5 C    1.333     7 C    1.195    29 H    0.970
                            11 C    0.102
     7   6 C    3.962 --    11 C    1.303     8 C    1.254     6 C    1.195
     8   6 C    3.952 --     3 C    1.345     7 C    1.254     9 N    1.137
     9   7 N    3.568 --    10 C    1.250     8 C    1.137    30 H    0.919
    10   6 C    3.855 --     9 N    1.250    11 C    1.215    15 C    1.008
    11   6 C    3.896 --     7 C    1.303    10 C    1.215    12 C    1.035
                             6 C    0.102
    12   6 C    3.995 --    11 C    1.035    13 C    0.990    32 H    0.961
                            31 H    0.943
    13   6 C    3.955 --    12 C    0.990    14 O    0.986    34 H    0.970
                            33 H    0.968
    14   8 O    2.080 --    13 C    0.986    15 C    0.961
    15   6 C    3.948 --    10 C    1.008    14 O    0.961    16 C    0.952
                            18 C    0.928
    16   6 C    3.987 --    17 C    1.018    36 H    0.974    35 H    0.974
                            15 C    0.952
    17   6 C    3.990 --    16 C    1.018    37 H    0.985    39 H    0.985
                            38 H    0.983
    18   6 C    3.982 --    19 C    0.989    41 H    0.965    40 H    0.964
                            15 C    0.928
    19   6 C    3.831 --    21 O    1.702    20 O    1.065    18 C    0.989
    20   8 O    2.143 --    19 C    1.065    42 H    0.870    21 O    0.147
    21   8 O    1.964 --    19 C    1.702    20 O    0.147
    22   1 H    0.999 --     1 C    0.986
    23   1 H    0.997 --     1 C    0.986
    24   1 H    0.998 --     1 C    0.989
    25   1 H    0.997 --     2 C    0.975
    26   1 H    0.998 --     2 C    0.968
    27   1 H    0.999 --     4 C    0.970
    28   1 H    0.999 --     5 C    0.971
    29   1 H    0.998 --     6 C    0.970
    30   1 H    0.963 --     9 N    0.919
    31   1 H    0.985 --    12 C    0.943
    32   1 H    0.993 --    12 C    0.961
    33   1 H    0.999 --    13 C    0.968
    34   1 H    0.996 --    13 C    0.970
    35   1 H    0.999 --    16 C    0.974
    36   1 H    0.999 --    16 C    0.974
    37   1 H    0.997 --    17 C    0.985
    38   1 H    0.997 --    17 C    0.983
    39   1 H    0.997 --    17 C    0.985
    40   1 H    0.994 --    18 C    0.964
    41   1 H    0.991 --    18 C    0.965
    42   1 H    0.895 --    20 O    0.870
 ---------------------------------------------------------------------------

Topologies differ in total number of bonds
Writing topology from bond orders to xtbtopo.mol

molecular dipole:
                 x           y           z       tot (Debye)
 q only:        0.680      -0.737       0.494
   full:        0.808      -0.570       0.663       3.026
molecular quadrupole (traceless):
                xx          xy          yy          xz          yz          zz
 q only:       -2.080      15.508      -0.003      -2.954       7.597       2.083
  q+dip:       -4.069      18.373       3.054      -3.369      10.300       1.015
   full:       -4.874      18.790       2.206      -4.843       9.002       2.668


           -------------------------------------------------
          | TOTAL ENERGY              -62.162193957708 Eh   |
          | GRADIENT NORM               0.151794531890 Eh/α |
          | HOMO-LUMO GAP               0.284134326553 eV   |
           -------------------------------------------------

------------------------------------------------------------------------
 * finished run on 2025/05/15 at 16:22:31.913     
------------------------------------------------------------------------
 total:
 * wall-time:     0 d,  0 h,  0 min,  0.092 sec
 *  cpu-time:     0 d,  0 h,  0 min,  0.085 sec
 * ratio c/w:     0.924 speedup
 SCF:
 * wall-time:     0 d,  0 h,  0 min,  0.078 sec
 *  cpu-time:     0 d,  0 h,  0 min,  0.073 sec
 * ratio c/w:     0.932 speedup


