----- Optimization -----
      -----------------------------------------------------------      
     |                   =====================                   |     
     |                           x T B                           |     
     |                   =====================                   |     
     |                         S. Grimme                         |     
     |          Mulliken Center for Theoretical Chemistry        |     
     |                    University of Bonn                     |     
      -----------------------------------------------------------      

   * xtb version 6.7.1 (edcfbbe) compiled by 'conda@3ef47c1a292c' on 2024-11-25

   xtb is free software: you can redistribute it and/or modify it under
   the terms of the GNU Lesser General Public License as published by
   the Free Software Foundation, either version 3 of the License, or
   (at your option) any later version.
   
   xtb is distributed in the hope that it will be useful,
   but WITHOUT ANY WARRANTY; without even the implied warranty of
   MERCHANTABILITY or FITNESS FOR A PARTICULAR PURPOSE.  See the
   GNU Lesser General Public License for more details.
   
   Cite this work as:
   * C. Bannwarth, E. Caldeweyher, S. Ehlert, A. Hansen, P. Pracht,
     J. Seibert, S. Spicher, S. Grimme, WIREs Comput. Mol. Sci., 2020, 11,
     e01493. DOI: 10.1002/wcms.1493
   
   for GFN2-xTB:
   * C. Bannwarth, S. Ehlert and S. Grimme., J. Chem. Theory Comput., 2019,
     15, 1652-1671. DOI: 10.1021/acs.jctc.8b01176
   for GFN1-xTB:
   * S. Grimme, C. Bannwarth, P. Shushkov, J. Chem. Theory Comput., 2017,
     13, 1989-2009. DOI: 10.1021/acs.jctc.7b00118
   for GFN0-xTB:
   * P. Pracht, E. Caldeweyher, S. Ehlert, S. Grimme, ChemRxiv, 2019, preprint.
     DOI: 10.26434/chemrxiv.8326202.v1
   for GFN-FF:
   * S. Spicher and S. Grimme, Angew. Chem. Int. Ed., 2020, 59, 15665-15673.
     DOI: 10.1002/anie.202004239
   
   for ALPB and GBSA implicit solvation:
   * S. Ehlert, M. Stahn, S. Spicher, S. Grimme, J. Chem. Theory Comput.,
     2021, 17, 4250-4261. DOI: 10.1021/acs.jctc.1c00471
   
   for ddCOSMO and CPCM-X implicit solvation:
   * M. Stahn, S. Ehlert, S. Grimme, J. Phys. Chem. A,
     2023, XX, XXXX-XXXX. DOI: 10.1021/acs.jpca.3c04382
   
   for DFT-D4:
   * E. Caldeweyher, C. Bannwarth and S. Grimme, J. Chem. Phys., 2017,
     147, 034112. DOI: 10.1063/1.4993215
   * E. Caldeweyher, S. Ehlert, A. Hansen, H. Neugebauer, S. Spicher,
     C. Bannwarth and S. Grimme, J. Chem. Phys., 2019, 150, 154122.
     DOI: 10.1063/1.5090222
   * E. Caldeweyher, J.-M. Mewes, S. Ehlert and S. Grimme, Phys. Chem. Chem. Phys.
     2020, 22, 8499-8512. DOI: 10.1039/D0CP00502A
   
   for sTDA-xTB:
   * S. Grimme and C. Bannwarth, J. Chem. Phys., 2016, 145, 054103.
     DOI: 10.1063/1.4959605
   
   in the mass-spec context:
   * V. Asgeirsson, C. Bauer and S. Grimme, Chem. Sci., 2017, 8, 4879.
     DOI: 10.1039/c7sc00601b
   * J. Koopman and S. Grimme, ACS Omega 2019, 4, 12, 15120-15133.
     DOI: 10.1021/acsomega.9b02011
   
   for metadynamics refer to:
   * S. Grimme, J. Chem. Theory Comput., 2019, 155, 2847-2862
     DOI: 10.1021/acs.jctc.9b00143
   
   for SPH calculations refer to:
   * S. Spicher and S. Grimme, J. Chem. Theory Comput., 2021, 17, 1701-1714
     DOI: 10.1021/acs.jctc.0c01306
   
   for ONIOM refer to:
   * C. Plett, A. Katbashev, S. Ehlert, S. Grimme, M. Bursch,
     Phys. Chem. Chem. Phys., 2023, 25, 17860-17868. DOI: 10.1039/D3CP02178E
   
   for DIPRO refer to:
   * J. Kohn, N. Gildemeister, S. Grimme, D. Fazzi, A. Hansen,
     J. Chem. Phys., 2023, just accepted.
   
   for PTB refer to:
   * S. Grimme, M. Mueller, A. Hansen, J. Chem. Phys., 2023, 158, 124111.
     DOI: 10.1063/5.0137838
   
   with help from (in alphabetical order)
   P. Atkinson, C. Bannwarth, F. Bohle, G. Brandenburg, E. Caldeweyher
   M. Checinski, S. Dohm, S. Ehlert, S. Ehrlich, I. Gerasimov, C. Hölzer
   A. Katbashev, J. Kohn, J. Koopman, C. Lavigne, S. Lehtola, F. März, M. Müller,
   F. Musil, H. Neugebauer, J. Pisarek, C. Plett, P. Pracht, F. Pultar,
   J. Seibert, P. Shushkov, S. Spicher, M. Stahn, M. Steiner, T. Strunk,
   J. Stückrath, T. Rose, and J. Unsleber
   
 * started run on 2025/05/15 at 16:05:59.164     
   ID    Z sym.   atoms
    1    8 O      1, 3, 21
    2    6 C      2, 4, 5, 7-9, 11, 12, 14-16, 18-20, 22-24
    3    7 N      6, 10, 13
    4    9 F      17
    5    1 H      25-42

           -------------------------------------------------
          |                Calculation Setup                |
           -------------------------------------------------

          program call               : xtb /rds/general/user/hgt20/home/callum/QDESCP/Ciprofloxacin_rdkit_conf_21/Ciprofloxacin_rdkit_conf_21.xyz --opt normal --acc 1 --gfn 2 --chrg 0 --uhf 0 -P 1
          hostname                   : login-c
          coordinate file            : /rds/general/user/hgt20/home/callum/QDESCP/Ciprofloxacin_rdkit_conf_21/Ciprofloxacin_rdkit_conf_21.xyz
          omp threads                :                     1


           -------------------------------------------------
          |                 G F N 2 - x T B                 |
           -------------------------------------------------

        Reference                      10.1021/acs.jctc.8b01176
      * Hamiltonian:
        H0-scaling (s, p, d)           1.850000    2.230000    2.230000
        zeta-weighting                 0.500000
      * Dispersion:
        s8                             2.700000
        a1                             0.520000
        a2                             5.000000
        s9                             5.000000
      * Repulsion:
        kExp                           1.500000    1.000000
        rExp                           1.000000
      * Coulomb:
        alpha                          2.000000
        third order                    shell-resolved
        anisotropic                    true
        a3                             3.000000
        a5                             4.000000
        cn-shift                       1.200000
        cn-exp                         4.000000
        max-rad                        5.000000


          ...................................................
          :                      SETUP                      :
          :.................................................:
          :  # basis functions                 114          :
          :  # atomic orbitals                 114          :
          :  # shells                           66          :
          :  # electrons                       126          :
          :  max. iterations                   250          :
          :  Hamiltonian                  GFN2-xTB          :
          :  restarted?                      false          :
          :  GBSA solvation                  false          :
          :  PC potential                    false          :
          :  electronic temp.          300.0000000     K    :
          :  accuracy                    1.0000000          :
          :  -> integral cutoff          0.2500000E+02      :
          :  -> integral neglect         0.1000000E-07      :
          :  -> SCF convergence          0.1000000E-05 Eh   :
          :  -> wf. convergence          0.1000000E-03 e    :
          :  Broyden damping             0.4000000          :
          :  net charge                          0          :
          :  unpaired electrons                  0          :
          ...................................................

 iter      E             dE          RMSdq      gap      omega  full diag
   1    -71.9684542 -0.719685E+02  0.395E+00    2.22       0.0  T
   2    -72.0882539 -0.119800E+00  0.240E+00    2.14       1.0  T
   3    -72.1061915 -0.179376E-01  0.142E+00    2.40       1.0  T
   4    -72.1235105 -0.173189E-01  0.452E-01    2.24       1.0  T
   5    -72.1299207 -0.641024E-02  0.109E-01    2.26       1.0  T
   6    -72.1301177 -0.197016E-03  0.532E-02    2.26       1.0  T
   7    -72.1301547 -0.369661E-04  0.231E-02    2.27       1.0  T
   8    -72.1301567 -0.193875E-05  0.945E-03    2.27       1.6  T
   9    -72.1301587 -0.205049E-05  0.420E-03    2.27       3.7  T
  10    -72.1301589 -0.159748E-06  0.164E-03    2.27       9.4  T
  11    -72.1301589 -0.539661E-07  0.726E-04    2.27      21.2  T
  12    -72.1301589 -0.810081E-08  0.303E-04    2.27      51.0  T

   *** convergence criteria satisfied after 12 iterations ***

         #    Occupation            Energy/Eh            Energy/eV
      -------------------------------------------------------------
         1        2.0000           -0.8202942             -22.3213
       ...           ...                  ...                  ...
        57        2.0000           -0.4389469             -11.9444
        58        2.0000           -0.4240061             -11.5378
        59        2.0000           -0.4130605             -11.2399
        60        2.0000           -0.3986204             -10.8470
        61        2.0000           -0.3870226             -10.5314
        62        2.0000           -0.3742091             -10.1827
        63        2.0000           -0.3604666              -9.8088 (HOMO)
        64                         -0.2771317              -7.5411 (LUMO)
        65                         -0.2642842              -7.1915
        66                         -0.2328154              -6.3352
        67                         -0.2086263              -5.6770
        68                         -0.1448566              -3.9417
       ...                                ...                  ...
       114                          0.6889094              18.7462
      -------------------------------------------------------------
                  HL-Gap            0.0833349 Eh            2.2677 eV
             Fermi-level           -0.3187992 Eh           -8.6750 eV

 SCC (total)                   0 d,  0 h,  0 min,  0.060 sec
 SCC setup                      ...        0 min,  0.000 sec (  0.635%)
 Dispersion                     ...        0 min,  0.000 sec (  0.711%)
 classical contributions        ...        0 min,  0.000 sec (  0.245%)
 integral evaluation            ...        0 min,  0.008 sec ( 13.401%)
 iterations                     ...        0 min,  0.027 sec ( 45.133%)
 molecular gradient             ...        0 min,  0.024 sec ( 39.565%)
 printout                       ...        0 min,  0.000 sec (  0.298%)

         :::::::::::::::::::::::::::::::::::::::::::::::::::::
         ::                     SUMMARY                     ::
         :::::::::::::::::::::::::::::::::::::::::::::::::::::
         :: total energy             -71.289420336730 Eh    ::
         :: gradient norm              0.084575003461 Eh/a0 ::
         :: HOMO-LUMO gap              2.267657504580 eV    ::
         ::.................................................::
         :: SCC energy               -72.129785419435 Eh    ::
         :: -> isotropic ES            0.106574620537 Eh    ::
         :: -> anisotropic ES          0.008053628603 Eh    ::
         :: -> anisotropic XC          0.020236314788 Eh    ::
         :: -> dispersion             -0.046005165053 Eh    ::
         :: repulsion energy           0.840365082705 Eh    ::
         :: add. restraining           0.000000000000 Eh    ::
         :: total charge               0.000000000000 e     ::
         :::::::::::::::::::::::::::::::::::::::::::::::::::::

      ----------------------------------------------------------- 
     |                   =====================                   |
     |                        A N C O P T                        |
     |                   =====================                   |
     |               Approximate Normal Coordinate               |
     |                Rational Function Optimizer                |
      ----------------------------------------------------------- 
      ----------------------------------------------------------- 
     |                   =====================                   |
     |                        A N C O P T                        |
     |                   =====================                   |
     |               Approximate Normal Coordinate               |
     |                Rational Function Optimizer                |
      ----------------------------------------------------------- 

          ...................................................
          :                      SETUP                      :
          :.................................................:
          :   optimization level            normal          :
          :   max. optcycles                   200          :
          :   ANC micro-cycles                  20          :
          :   degrees of freedom               120          :
          :.................................................:
          :   RF solver                   davidson          :
          :   write xtbopt.log                true          :
          :   linear?                        false          :
          :   energy convergence         0.5000000E-05 Eh   :
          :   grad. convergence          0.1000000E-02 Eh/α :
          :   maxmium RF displ.          1.0000000          :
          :   Hlow (freq-cutoff)         0.1000000E-01      :
          :   Hmax (freq-cutoff)         5.0000000          :
          :   S6 in model hess.         20.0000000          :
          ...................................................

generating ANC from exact Hessian ...
Using Lindh-Hessian (1995)
 Shifting diagonal of input Hessian by    9.6806283796446145E-003
 Lowest  eigenvalues of input Hessian
    0.000000    0.000000    0.000000    0.000000    0.000000    0.000000
    0.010000    0.010236    0.010993    0.011682    0.011863    0.012245
    0.012989    0.014326    0.015919    0.017367    0.019138    0.020614
 Highest eigenvalues
    1.876472    1.980860    2.005387    2.098474    2.180625    2.354770


........................................................................
.............................. CYCLE    1 ..............................
........................................................................

 iter      E             dE          RMSdq      gap      omega  full diag
   1    -72.1301589 -0.721302E+02  0.123E-04    2.27       0.0  T
   2    -72.1301589 -0.136225E-09  0.776E-05    2.27     198.8  T
   3    -72.1301589 -0.791687E-10  0.466E-05    2.27     330.9  T
     SCC iter.                  ...        0 min,  0.007 sec
     gradient                   ...        0 min,  0.024 sec
 * total energy  :   -71.2894203 Eh     change       -0.1366161E-08 Eh
   gradient norm :     0.0845782 Eh/α   predicted     0.0000000E+00 (-100.00%)
   displ. norm   :     0.3711084 α      lambda       -0.1608636E-01
   maximum displ.:     0.2028386 α      in ANC's #24, #14, #18, ...

........................................................................
.............................. CYCLE    2 ..............................
........................................................................

 iter      E             dE          RMSdq      gap      omega  full diag
   1    -72.1705246 -0.721705E+02  0.241E-01    2.23       0.0  T
   2    -72.1709268 -0.402247E-03  0.159E-01    2.26       1.0  T
   3    -72.1710186 -0.918397E-04  0.897E-02    2.25       1.0  T
   4    -72.1711050 -0.863966E-04  0.287E-02    2.24       1.0  T
   5    -72.1711325 -0.274583E-04  0.580E-03    2.25       2.7  T
   6    -72.1711332 -0.665146E-06  0.255E-03    2.25       6.1  T
   7    -72.1711332 -0.536385E-07  0.111E-03    2.25      13.9  T
   8    -72.1711332 -0.813158E-08  0.410E-04    2.25      37.6  T
   9    -72.1711332 -0.312774E-08  0.146E-04    2.25     105.9  T
     SCC iter.                  ...        0 min,  0.019 sec
     gradient                   ...        0 min,  0.024 sec
 * total energy  :   -71.3007342 Eh     change       -0.1131389E-01 Eh
   gradient norm :     0.0349501 Eh/α   predicted    -0.9157174E-02 ( -19.06%)
   displ. norm   :     0.3436976 α      lambda       -0.5698530E-02
   maximum displ.:     0.1835034 α      in ANC's #24, #14, #18, ...

........................................................................
.............................. CYCLE    3 ..............................
........................................................................

 iter      E             dE          RMSdq      gap      omega  full diag
   1    -72.1972544 -0.721973E+02  0.170E-01    2.22       0.0  T
   2    -72.1975359 -0.281435E-03  0.114E-01    2.27       1.0  T
   3    -72.1976270 -0.911178E-04  0.641E-02    2.26       1.0  T
   4    -72.1976477 -0.206955E-04  0.235E-02    2.26       1.0  T
   5    -72.1976645 -0.168109E-04  0.468E-03    2.26       3.3  T
   6    -72.1976650 -0.519771E-06  0.191E-03    2.26       8.1  T
   7    -72.1976651 -0.378293E-07  0.818E-04    2.26      18.9  T
   8    -72.1976651 -0.402221E-08  0.336E-04    2.26      46.0  T
     SCC iter.                  ...        0 min,  0.017 sec
     gradient                   ...        0 min,  0.024 sec
 * total energy  :   -71.3039749 Eh     change       -0.3240659E-02 Eh
   gradient norm :     0.0094175 Eh/α   predicted    -0.3185844E-02 (  -1.69%)
   displ. norm   :     0.1761730 α      lambda       -0.6301022E-03
   maximum displ.:     0.0816110 α      in ANC's #6, #4, #14, ...

........................................................................
.............................. CYCLE    4 ..............................
........................................................................

 iter      E             dE          RMSdq      gap      omega  full diag
   1    -72.2006441 -0.722006E+02  0.535E-02    2.25       0.0  T
   2    -72.2006586 -0.145346E-04  0.317E-02    2.27       1.0  T
   3    -72.2006585  0.562452E-07  0.181E-02    2.26       1.0  T
   4    -72.2006635 -0.499346E-05  0.409E-03    2.26       3.8  T
   5    -72.2006641 -0.557748E-06  0.127E-03    2.26      12.2  T
   6    -72.2006641 -0.288336E-07  0.665E-04    2.26      23.2  T
   7    -72.2006641 -0.486338E-08  0.243E-04    2.26      63.5  T
     SCC iter.                  ...        0 min,  0.015 sec
     gradient                   ...        0 min,  0.024 sec
 * total energy  :   -71.3044332 Eh     change       -0.4582684E-03 Eh
   gradient norm :     0.0061735 Eh/α   predicted    -0.3248351E-03 ( -29.12%)
   displ. norm   :     0.2571222 α      lambda       -0.5012428E-03
   maximum displ.:     0.1505161 α      in ANC's #6, #4, #3, ...

........................................................................
.............................. CYCLE    5 ..............................
........................................................................

 iter      E             dE          RMSdq      gap      omega  full diag
   1    -72.2011188 -0.722011E+02  0.641E-02    2.26       0.0  T
   2    -72.2011310 -0.122524E-04  0.370E-02    2.28       1.0  T
   3    -72.2011264  0.464127E-05  0.198E-02    2.27       1.0  T
   4    -72.2011353 -0.888251E-05  0.331E-03    2.28       4.7  T
   5    -72.2011356 -0.342033E-06  0.125E-03    2.28      12.4  T
   6    -72.2011356 -0.128100E-07  0.692E-04    2.28      22.3  T
   7    -72.2011356 -0.906816E-08  0.244E-04    2.28      63.3  T
     SCC iter.                  ...        0 min,  0.015 sec
     gradient                   ...        0 min,  0.024 sec
 * total energy  :   -71.3047609 Eh     change       -0.3277066E-03 Eh
   gradient norm :     0.0038838 Eh/α   predicted    -0.2671934E-03 ( -18.47%)
   displ. norm   :     0.2107547 α      lambda       -0.2179692E-03
   maximum displ.:     0.1386950 α      in ANC's #6, #4, #3, ...

........................................................................
.............................. CYCLE    6 ..............................
........................................................................

 iter      E             dE          RMSdq      gap      omega  full diag
   1    -72.2005570 -0.722006E+02  0.503E-02    2.28       0.0  T
   2    -72.2005595 -0.255801E-05  0.292E-02    2.29       1.0  T
   3    -72.2005562  0.332604E-05  0.108E-02    2.28       1.4  T
   4    -72.2005604 -0.418855E-05  0.171E-03    2.29       9.0  T
   5    -72.2005605 -0.753351E-07  0.774E-04    2.29      19.9  T
   6    -72.2005605 -0.423307E-08  0.415E-04    2.29      37.2  T
     SCC iter.                  ...        0 min,  0.013 sec
     gradient                   ...        0 min,  0.024 sec
 * total energy  :   -71.3049173 Eh     change       -0.1564558E-03 Eh
   gradient norm :     0.0039859 Eh/α   predicted    -0.1138256E-03 ( -27.25%)
   displ. norm   :     0.1811460 α      lambda       -0.1579553E-03
   maximum displ.:     0.1187171 α      in ANC's #6, #4, #3, ...

........................................................................
.............................. CYCLE    7 ..............................
........................................................................

 iter      E             dE          RMSdq      gap      omega  full diag
   1    -72.2004083 -0.722004E+02  0.434E-02    2.29       0.0  T
   2    -72.2004087 -0.457745E-06  0.255E-02    2.29       1.0  T
   3    -72.2004085  0.239786E-06  0.328E-03    2.29       4.7  T
   4    -72.2004089 -0.386580E-06  0.983E-04    2.30      15.7  T
   5    -72.2004089 -0.940808E-08  0.506E-04    2.29      30.5  T
     SCC iter.                  ...        0 min,  0.011 sec
     gradient                   ...        0 min,  0.024 sec
 * total energy  :   -71.3050376 Eh     change       -0.1202454E-03 Eh
   gradient norm :     0.0031736 Eh/α   predicted    -0.8157109E-04 ( -32.16%)
   displ. norm   :     0.1829081 α      lambda       -0.1233416E-03
   maximum displ.:     0.1182518 α      in ANC's #6, #4, #3, ...

........................................................................
.............................. CYCLE    8 ..............................
........................................................................

 iter      E             dE          RMSdq      gap      omega  full diag
   1    -72.2004792 -0.722005E+02  0.433E-02    2.30       0.0  T
   2    -72.2004797 -0.420024E-06  0.255E-02    2.30       1.0  T
   3    -72.2004792  0.431159E-06  0.392E-03    2.30       3.9  T
   4    -72.2004798 -0.583352E-06  0.103E-03    2.30      15.0  T
   5    -72.2004798 -0.154109E-07  0.551E-04    2.30      28.0  T
   6    -72.2004798 -0.232434E-08  0.206E-04    2.30      75.0  T
     SCC iter.                  ...        0 min,  0.013 sec
     gradient                   ...        0 min,  0.024 sec
 * total energy  :   -71.3051275 Eh     change       -0.8990949E-04 Eh
   gradient norm :     0.0025610 Eh/α   predicted    -0.6373516E-04 ( -29.11%)
   displ. norm   :     0.1667475 α      lambda       -0.7377518E-04
   maximum displ.:     0.1042383 α      in ANC's #6, #4, #3, ...

........................................................................
.............................. CYCLE    9 ..............................
........................................................................

 iter      E             dE          RMSdq      gap      omega  full diag
   1    -72.2005841 -0.722006E+02  0.378E-02    2.31       0.0  T
   2    -72.2005846 -0.505069E-06  0.221E-02    2.31       1.0  T
   3    -72.2005842  0.459773E-06  0.455E-03    2.31       3.4  T
   4    -72.2005848 -0.618316E-06  0.903E-04    2.31      17.1  T
   5    -72.2005848 -0.899435E-08  0.466E-04    2.31      33.1  T
     SCC iter.                  ...        0 min,  0.011 sec
     gradient                   ...        0 min,  0.024 sec
 * total energy  :   -71.3051808 Eh     change       -0.5327826E-04 Eh
   gradient norm :     0.0020442 Eh/α   predicted    -0.3791694E-04 ( -28.83%)
   displ. norm   :     0.1448793 α      lambda       -0.4407820E-04
   maximum displ.:     0.0846169 α      in ANC's #6, #4, #3, ...

........................................................................
.............................. CYCLE   10 ..............................
........................................................................

 iter      E             dE          RMSdq      gap      omega  full diag
   1    -72.2008884 -0.722009E+02  0.325E-02    2.31       0.0  T
   2    -72.2008890 -0.549300E-06  0.190E-02    2.31       1.0  T
   3    -72.2008884  0.601389E-06  0.512E-03    2.31       3.0  T
   4    -72.2008892 -0.772879E-06  0.851E-04    2.31      18.1  T
   5    -72.2008892 -0.112311E-07  0.412E-04    2.31      37.5  T
     SCC iter.                  ...        0 min,  0.011 sec
     gradient                   ...        0 min,  0.024 sec
 * total energy  :   -71.3052108 Eh     change       -0.3008003E-04 Eh
   gradient norm :     0.0014907 Eh/α   predicted    -0.2250417E-04 ( -25.19%)
   displ. norm   :     0.1270139 α      lambda       -0.1946307E-04
   maximum displ.:     0.0602997 α      in ANC's #4, #6, #3, ...

........................................................................
.............................. CYCLE   11 ..............................
........................................................................

 iter      E             dE          RMSdq      gap      omega  full diag
   1    -72.2014876 -0.722015E+02  0.284E-02    2.31       0.0  T
   2    -72.2014882 -0.606064E-06  0.167E-02    2.31       1.0  T
   3    -72.2014874  0.806768E-06  0.543E-03    2.31       2.8  T
   4    -72.2014883 -0.994307E-06  0.934E-04    2.31      16.5  T
   5    -72.2014884 -0.248376E-07  0.399E-04    2.31      38.7  T
     SCC iter.                  ...        0 min,  0.011 sec
     gradient                   ...        0 min,  0.024 sec
 * total energy  :   -71.3052268 Eh     change       -0.1598281E-04 Eh
   gradient norm :     0.0010754 Eh/α   predicted    -0.9804359E-05 ( -38.66%)
   displ. norm   :     0.0366154 α      lambda       -0.6448013E-05
   maximum displ.:     0.0175580 α      in ANC's #6, #8, #2, ...

........................................................................
.............................. CYCLE   12 ..............................
........................................................................

 iter      E             dE          RMSdq      gap      omega  full diag
   1    -72.2016682 -0.722017E+02  0.883E-03    2.31       0.0  T
   2    -72.2016683 -0.629330E-07  0.526E-03    2.31       2.9  T
   3    -72.2016682  0.102639E-06  0.170E-03    2.31       9.1  T
   4    -72.2016683 -0.124637E-06  0.306E-04    2.31      50.5  T
   5    -72.2016683 -0.235561E-08  0.156E-04    2.31      98.6  T
     SCC iter.                  ...        0 min,  0.011 sec
     gradient                   ...        0 min,  0.024 sec
 * total energy  :   -71.3052339 Eh     change       -0.7120329E-05 Eh
   gradient norm :     0.0006415 Eh/α   predicted    -0.3227290E-05 ( -54.67%)
   displ. norm   :     0.0503613 α      lambda       -0.5466395E-05
   maximum displ.:     0.0292571 α      in ANC's #2, #5, #8, ...

........................................................................
.............................. CYCLE   13 ..............................
........................................................................

 iter      E             dE          RMSdq      gap      omega  full diag
   1    -72.2012323 -0.722012E+02  0.128E-02    2.31       0.0  T
   2    -72.2012324 -0.710602E-07  0.752E-03    2.31       2.1  T
   3    -72.2012323  0.869669E-07  0.171E-03    2.31       9.0  T
   4    -72.2012324 -0.111655E-06  0.399E-04    2.31      38.6  T
   5    -72.2012324 -0.286974E-08  0.219E-04    2.31      70.5  T
     SCC iter.                  ...        0 min,  0.011 sec
     gradient                   ...        0 min,  0.024 sec
 * total energy  :   -71.3052394 Eh     change       -0.5417467E-05 Eh
   gradient norm :     0.0005002 Eh/α   predicted    -0.2739679E-05 ( -49.43%)
   displ. norm   :     0.0371420 α      lambda       -0.2637051E-05
   maximum displ.:     0.0236843 α      in ANC's #2, #3, #5, ...

........................................................................
.............................. CYCLE   14 ..............................
........................................................................

 iter      E             dE          RMSdq      gap      omega  full diag
   1    -72.2013361 -0.722013E+02  0.103E-02    2.32       0.0  T
   2    -72.2013361 -0.441020E-07  0.605E-03    2.32       2.6  T
   3    -72.2013361  0.322236E-07  0.116E-03    2.32      13.4  T
   4    -72.2013361 -0.465118E-07  0.298E-04    2.32      51.8  T
   5    -72.2013361 -0.128297E-08  0.174E-04    2.32      88.5  T
     SCC iter.                  ...        0 min,  0.011 sec
     gradient                   ...        0 min,  0.026 sec
 * total energy  :   -71.3052425 Eh     change       -0.3095752E-05 Eh
   gradient norm :     0.0004902 Eh/α   predicted    -0.1321095E-05 ( -57.33%)
   displ. norm   :     0.0501253 α      lambda       -0.3274355E-05
   maximum displ.:     0.0325060 α      in ANC's #2, #3, #12, ...

   *** GEOMETRY OPTIMIZATION CONVERGED AFTER 14 ITERATIONS ***

------------------------------------------------------------------------
 total energy gain   :        -0.0158221 Eh       -9.9285 kcal/mol
 total RMSD          :         0.2567439 a0        0.1359 Å
 total power (kW/mol):        -2.9672114 (step)  -63.0931 (real)
------------------------------------------------------------------------

 ANCopt (total)                0 d,  0 h,  0 min,  0.658 sec
 optimizer setup                ...        0 min,  0.000 sec (  0.011%)
 model hessian                  ...        0 min,  0.016 sec (  2.436%)
 ANC generation                 ...        0 min,  0.001 sec (  0.227%)
 coordinate transformation      ...        0 min,  0.000 sec (  0.015%)
 single point calculation       ...        0 min,  0.636 sec ( 96.584%)
 optimization log               ...        0 min,  0.003 sec (  0.500%)
 hessian update                 ...        0 min,  0.000 sec (  0.027%)
 rational function              ...        0 min,  0.001 sec (  0.129%)

================
 final structure:
================
42
 xtb: 6.7.1 (edcfbbe)
O           -5.78160896096215       -2.03813522411624       -1.21524072788135
C           -5.22541855575652       -1.11474338399197       -0.68804812661462
O           -5.93536396358622       -0.09021212425507       -0.14156385678711
C           -3.77383550298357       -0.93153229071038       -0.52662103984705
C           -3.31233146880144       -0.06370225779111        0.41373120393928
N           -2.00939306674378        0.16876103537660        0.66729290476343
C           -1.03771430629603       -0.55155772602947       -0.01138768515812
C            0.31394183179287       -0.38909091479070        0.28664609195540
C            1.31980359449699       -1.08365962481728       -0.38941836126533
N            2.64859198328629       -0.97205106627550       -0.05702132801755
C            3.06182224328251       -0.32045134672363        1.16846108290367
C            3.36666426844839        1.16951831125452        0.93272068861251
N            4.36092611002912        1.35398679615300       -0.10793133407720
C            3.97095921576334        0.65509795332754       -1.31865948752612
C            3.67137582994461       -0.83678409693267       -1.07901951061573
C            0.88269070401251       -1.98368204540494       -1.38779467315869
F            1.78765052763745       -2.74621258002898       -2.05155070446214
C           -0.43766434274994       -2.15393182373285       -1.69575981609462
C           -1.43229639779157       -1.44404557932073       -1.01803207722574
C           -2.84134790892073       -1.67836761163778       -1.37722811602591
O           -3.16299050184673       -2.40505702755684       -2.29759621942288
C           -1.64785240162512        1.13263609892098        1.66481595224107
C           -2.35954794149241        2.45161128250505        1.69996750730162
C           -0.93470475320185        2.38820590294486        1.24730067961562
H           -6.87910201257988       -0.26546141843880       -0.27837078566338
H           -4.01228758151800        0.48473337179478        1.02760397199203
H            0.58940082350435        0.30836871930157        1.05711069613956
H            3.98154606483941       -0.81936945933338        1.49978471357147
H            2.30823622975102       -0.46335920813712        1.94231212209370
H            2.45881007675859        1.68755850905269        0.60893586310136
H            3.72636227813673        1.63512656732466        1.85224029898030
H            5.25989694652599        1.00366075375771        0.21211807491740
H            3.07000963455260        1.14339043945865       -1.70458550139290
H            4.76717826827717        0.76196421197412       -2.05702177165657
H            3.36075291453399       -1.29929070600679       -2.01086055814918
H            4.57617002478102       -1.34503889554523       -0.72530325320216
H           -0.73769173984966       -2.85703359375933       -2.45712217211124
H           -1.36745236291287        0.68376168734889        2.61389343154945
H           -3.11197333036586        2.64375312245870        0.95126876773973
H           -2.58231261166813        2.88107174814025        2.66413413083621
H           -0.16132381362408        2.77827502596367        1.89126233874355
H           -0.73857604507861        2.52128846827852        0.19453658535817

 Bond Distances (Angstroems)
 ---------------------------
O1-C2=1.2000         C2-O1=1.2000         C2-O3=1.3610         C2-C4=1.4720         O3-C2=1.3610         O3-H25=0.9696        
C4-C2=1.4720         C4-C5=1.3603         C4-C20=1.4666        C5-C4=1.3603         C5-N6=1.3476         C5-H26=1.0805        
N6-C5=1.3476         N6-C7=1.3869         N6-C22=1.4335        C7-N6=1.3869         C7-C8=1.3936         C7-C19=1.4020        
C8-C7=1.3936         C8-C9=1.3969         C8-H27=1.0751        C9-C8=1.3969         C9-N10=1.3743        C9-C16=1.4135        
N10-C9=1.3743        N10-C11=1.4482       N10-C15=1.4522       C11-N10=1.4482       C11-C12=1.5390       C11-H28=1.0975       
C11-H29=1.0896       C12-C11=1.5390       C12-N13=1.4510       C12-H30=1.0943       C12-H31=1.0916       N13-C12=1.4510       
N13-C14=1.4513       N13-H32=1.0165       C14-N13=1.4513       C14-C15=1.5404       C14-H33=1.0950       C14-H34=1.0911       
C15-N10=1.4522       C15-C14=1.5404       C15-H35=1.0857       C15-H36=1.0964       C16-C9=1.4135        C16-F17=1.3568       
C16-C18=1.3664       F17-C16=1.3568       C18-C16=1.3664       C18-C19=1.3973       C18-H37=1.0789       C19-C7=1.4020        
C19-C18=1.3973       C19-C20=1.4729       C20-C4=1.4666        C20-C19=1.4729       C20-O21=1.2160       O21-C20=1.2160       
C22-N6=1.4335        C22-C23=1.4991       C22-C24=1.5031       C22-H38=1.0867       C23-C22=1.4991       C23-C24=1.4964       
C23-H39=1.0787       C23-H40=1.0787       C24-C22=1.5031       C24-C23=1.4964       C24-H41=1.0793       C24-H42=1.0791       
H25-O3=0.9696        H26-C5=1.0805        H27-C8=1.0751        H28-C11=1.0975       H29-C11=1.0896       H30-C12=1.0943       
H31-C12=1.0916       H32-N13=1.0165       H33-C14=1.0950       H34-C14=1.0911       H35-C15=1.0857       H36-C15=1.0964       
H37-C18=1.0789       H38-C22=1.0867       H39-C23=1.0787       H40-C23=1.0787       H41-C24=1.0793       H42-C24=1.0791       
 C  H  Rav=1.0862 sigma=0.0073  Rmin=1.0751  Rmax=1.0975    16
 C  C  Rav=1.4480 sigma=0.0590  Rmin=1.3603  Rmax=1.5404    15
 N  H  Rav=1.0165 sigma=0.0000  Rmin=1.0165  Rmax=1.0165     1
 N  C  Rav=1.4181 sigma=0.0393  Rmin=1.3476  Rmax=1.4522     8
 O  H  Rav=0.9696 sigma=0.0000  Rmin=0.9696  Rmax=0.9696     1
 O  C  Rav=1.2590 sigma=0.0724  Rmin=1.2000  Rmax=1.3610     3
 F  C  Rav=1.3568 sigma=0.0000  Rmin=1.3568  Rmax=1.3568     1

 selected bond angles (degree)
 --------------------
O3-C2-O1=120.92                C4-C2-O1=126.94                C4-C2-O3=112.13                H25-O3-C2=108.36               
C5-C4-C2=119.33                C20-C4-C2=120.00               C20-C4-C5=120.67               N6-C5-C4=124.62                
H26-C5-C4=119.79               H26-C5-N6=115.59               C7-N6-C5=119.72                C22-N6-C5=119.39               
C22-N6-C7=120.87               C8-C7-N6=120.95                C19-C7-N6=119.00               C19-C7-C8=120.05               
C9-C8-C7=122.47                H27-C8-C7=118.51               H27-C8-C9=119.01               N10-C9-C8=122.60               
C16-C9-C8=115.84               C16-C9-N10=121.44              C11-N10-C9=121.14              C15-N10-C9=121.22              
C15-N10-C11=110.65             

 selected dihedral angles (degree)
 ---------------------------------
H25-O3-C2-O1=359.32           H25-O3-C2-C4=179.98           C5-C4-C2-O1=199.33            C5-C4-C2-O3= 18.62            
C20-C4-C2-O1= 19.48           C20-C4-C2-O3=198.77           N6-C5-C4-C2=178.82            N6-C5-C4-C20=358.67           
H26-C5-C4-C2=359.69           H26-C5-C4-C20=179.54          C7-N6-C5-C4=356.77            C7-N6-C5-H26=175.94           
C22-N6-C5-C4=178.55           C22-N6-C5-H26=357.71          C8-C7-N6-C5=183.83            C8-C7-N6-C22=  2.03           
C19-C7-N6-C5=  4.42           C19-C7-N6-C22=182.62          C9-C8-C7-N6=180.93            C9-C8-C7-C19=  0.34           
H27-C8-C7-N6=  0.04           H27-C8-C7-C19=179.46          N10-C9-C8-C7=183.07           N10-C9-C8-H27=  3.96          
C16-C9-C8-C7=359.06           C16-C9-C8-H27=179.95          C11-N10-C9-C8= 11.54          C11-N10-C9-C16=195.78         
C15-N10-C9-C8=223.55          C15-N10-C9-C16= 47.78         
           -------------------------------------------------
          |                Final Singlepoint                |
           -------------------------------------------------

          ...................................................
          :                      SETUP                      :
          :.................................................:
          :  # basis functions                 114          :
          :  # atomic orbitals                 114          :
          :  # shells                           66          :
          :  # electrons                       126          :
          :  max. iterations                   250          :
          :  Hamiltonian                  GFN2-xTB          :
          :  restarted?                      false          :
          :  GBSA solvation                  false          :
          :  PC potential                    false          :
          :  electronic temp.          300.0000000     K    :
          :  accuracy                    1.0000000          :
          :  -> integral cutoff          0.2500000E+02      :
          :  -> integral neglect         0.1000000E-07      :
          :  -> SCF convergence          0.1000000E-05 Eh   :
          :  -> wf. convergence          0.1000000E-03 e    :
          :  Broyden damping             0.4000000          :
          :  net charge                          0          :
          :  unpaired electrons                  0          :
          ...................................................

 iter      E             dE          RMSdq      gap      omega  full diag
   1    -72.2013361 -0.722013E+02  0.712E-05    2.32       0.0  T
   2    -72.2013361 -0.248974E-10  0.488E-05    2.32     316.2  T
   3    -72.2013361 -0.157740E-10  0.330E-05    2.32     468.2  T

   *** convergence criteria satisfied after 3 iterations ***

         #    Occupation            Energy/Eh            Energy/eV
      -------------------------------------------------------------
         1        2.0000           -0.8162488             -22.2113
       ...           ...                  ...                  ...
        57        2.0000           -0.4398778             -11.9697
        58        2.0000           -0.4238915             -11.5347
        59        2.0000           -0.4111918             -11.1891
        60        2.0000           -0.3974644             -10.8156
        61        2.0000           -0.3844825             -10.4623
        62        2.0000           -0.3700451             -10.0694
        63        2.0000           -0.3576087              -9.7310 (HOMO)
        64                         -0.2725324              -7.4160 (LUMO)
        65                         -0.2592550              -7.0547
        66                         -0.2241781              -6.1002
        67                         -0.2025988              -5.5130
        68                         -0.1389759              -3.7817
       ...                                ...                  ...
       114                          0.7201294              19.5957
      -------------------------------------------------------------
                  HL-Gap            0.0850763 Eh            2.3150 eV
             Fermi-level           -0.3150705 Eh           -8.5735 eV

 SCC (total)                   0 d,  0 h,  0 min,  0.039 sec
 SCC setup                      ...        0 min,  0.000 sec (  0.761%)
 Dispersion                     ...        0 min,  0.000 sec (  0.757%)
 classical contributions        ...        0 min,  0.000 sec (  0.354%)
 integral evaluation            ...        0 min,  0.008 sec ( 20.039%)
 iterations                     ...        0 min,  0.007 sec ( 16.629%)
 molecular gradient             ...        0 min,  0.024 sec ( 61.065%)
 printout                       ...        0 min,  0.000 sec (  0.377%)

         :::::::::::::::::::::::::::::::::::::::::::::::::::::
         ::                     SUMMARY                     ::
         :::::::::::::::::::::::::::::::::::::::::::::::::::::
         :: total energy             -71.305242452727 Eh    ::
         :: gradient norm              0.000488561444 Eh/a0 ::
         :: HOMO-LUMO gap              2.315043907198 eV    ::
         ::.................................................::
         :: SCC energy               -72.200953354377 Eh    ::
         :: -> isotropic ES            0.106721535336 Eh    ::
         :: -> anisotropic ES          0.007251717062 Eh    ::
         :: -> anisotropic XC          0.019127659034 Eh    ::
         :: -> dispersion             -0.047041555402 Eh    ::
         :: repulsion energy           0.895710901651 Eh    ::
         :: add. restraining           0.000000000000 Eh    ::
         :: total charge              -0.000000000000 e     ::
         :::::::::::::::::::::::::::::::::::::::::::::::::::::

           -------------------------------------------------
          |                Property Printout                |
           -------------------------------------------------

    * Orbital Energies and Occupations

         #    Occupation            Energy/Eh            Energy/eV
      -------------------------------------------------------------
         1        2.0000           -0.8162488             -22.2113
       ...           ...                  ...                  ...
        51        2.0000           -0.4650630             -12.6550
        52        2.0000           -0.4624825             -12.5848
        53        2.0000           -0.4619816             -12.5712
        54        2.0000           -0.4599940             -12.5171
        55        2.0000           -0.4576658             -12.4537
        56        2.0000           -0.4454863             -12.1223
        57        2.0000           -0.4398778             -11.9697
        58        2.0000           -0.4238915             -11.5347
        59        2.0000           -0.4111918             -11.1891
        60        2.0000           -0.3974644             -10.8156
        61        2.0000           -0.3844825             -10.4623
        62        2.0000           -0.3700451             -10.0694
        63        2.0000           -0.3576087              -9.7310 (HOMO)
        64                         -0.2725324              -7.4160 (LUMO)
        65                         -0.2592550              -7.0547
        66                         -0.2241781              -6.1002
        67                         -0.2025988              -5.5130
        68                         -0.1389759              -3.7817
        69                         -0.0984089              -2.6778
        70                         -0.0772681              -2.1026
        71                         -0.0292454              -0.7958
        72                         -0.0147529              -0.4014
        73                          0.0332646               0.9052
        74                          0.0362395               0.9861
       ...                                ...                  ...
       114                          0.7201294              19.5957
      -------------------------------------------------------------
                  HL-Gap            0.0850763 Eh            2.3150 eV
             Fermi-level           -0.3150705 Eh           -8.5735 eV

     #   Z          covCN         q      C6AA      α(0)
     1   8 O        0.856    -0.387    21.415     6.204
     2   6 C        2.698     0.358    20.922     7.486
     3   8 O        1.659    -0.411    21.066     6.196
     4   6 C        2.955    -0.076    29.890     8.967
     5   6 C        2.875     0.028    27.370     8.576
     6   7 N        2.746    -0.011    21.460     6.880
     7   6 C        2.932     0.051    26.864     8.500
     8   6 C        2.928    -0.092    30.314     9.029
     9   6 C        2.904     0.056    26.749     8.480
    10   7 N        2.737    -0.094    23.087     7.136
    11   6 C        3.759    -0.008    20.771     6.497
    12   6 C        3.751     0.005    20.551     6.465
    13   7 N        2.678    -0.256    26.647     7.667
    14   6 C        3.752     0.004    20.569     6.468
    15   6 C        3.758    -0.009    20.786     6.500
    16   6 C        2.784     0.140    24.934     8.179
    17   9 F        0.787    -0.231    11.563     4.017
    18   6 C        2.921    -0.041    29.016     8.834
    19   6 C        2.982    -0.041    29.023     8.837
    20   6 C        2.830     0.223    23.307     7.911
    21   8 O        0.857    -0.389    21.457     6.210
    22   6 C        3.811     0.029    20.081     6.379
    23   6 C        3.806    -0.070    21.842     6.653
    24   6 C        3.806    -0.068    21.793     6.646
    25   1 H        0.804     0.326     0.648     1.265
    26   1 H        0.926     0.077     2.015     2.220
    27   1 H        0.926     0.046     2.365     2.405
    28   1 H        0.924     0.042     2.423     2.434
    29   1 H        0.925     0.043     2.409     2.427
    30   1 H        0.924     0.040     2.447     2.446
    31   1 H        0.924     0.037     2.490     2.468
    32   1 H        0.860     0.138     1.484     1.908
    33   1 H        0.924     0.040     2.446     2.446
    34   1 H        0.924     0.042     2.427     2.436
    35   1 H        0.925     0.068     2.107     2.270
    36   1 H        0.924     0.040     2.452     2.449
    37   1 H        0.926     0.093     1.850     2.127
    38   1 H        0.925     0.046     2.374     2.409
    39   1 H        0.926     0.058     2.218     2.329
    40   1 H        0.926     0.053     2.286     2.364
    41   1 H        0.926     0.048     2.349     2.397
    42   1 H        0.926     0.054     2.271     2.357

 Mol. C6AA /au·bohr⁶  :      20024.921011
 Mol. C8AA /au·bohr⁸  :     469111.811017
 Mol. α(0) /au        :        215.875186


Wiberg/Mayer (AO) data.
largest (>0.10) Wiberg bond orders for each atom

 ---------------------------------------------------------------------------
     #   Z sym  total        # sym  WBO       # sym  WBO       # sym  WBO
 ---------------------------------------------------------------------------
     1   8 O    2.057 --     2 C    1.762     3 O    0.163
     2   6 C    3.919 --     1 O    1.762     3 O    1.074     4 C    1.029
     3   8 O    2.147 --     2 C    1.074    25 H    0.871     1 O    0.163
     4   6 C    3.972 --     5 C    1.559    20 C    1.070     2 C    1.029
     5   6 C    3.963 --     4 C    1.559     6 N    1.252    26 H    0.953
     6   7 N    3.614 --     5 C    1.252     7 C    1.102    22 C    0.983
     7   6 C    3.962 --     8 C    1.363    19 C    1.303     6 N    1.102
     8   6 C    3.970 --     9 C    1.363     7 C    1.363    27 H    0.957
     9   6 C    3.977 --     8 C    1.363    16 C    1.251    10 N    1.169
    10   7 N    3.385 --     9 C    1.169    11 C    0.998    15 C    0.986
    11   6 C    3.980 --    10 N    0.998    12 C    0.980    29 H    0.969
                            28 H    0.967
    12   6 C    3.986 --    13 N    1.020    11 C    0.980    31 H    0.974
                            30 H    0.970
    13   7 N    3.078 --    12 C    1.020    14 C    1.019    32 H    0.956
    14   6 C    3.984 --    13 N    1.019    15 C    0.979    34 H    0.973
                            33 H    0.972
    15   6 C    3.972 --    10 N    0.986    14 C    0.979    36 H    0.970
                            35 H    0.968
    16   6 C    3.875 --    18 C    1.484     9 C    1.251    17 F    0.946
    17   9 F    1.076 --    16 C    0.946
    18   6 C    3.982 --    16 C    1.484    19 C    1.335    37 H    0.957
    19   6 C    3.976 --    18 C    1.335     7 C    1.303    20 C    1.054
    20   6 C    3.954 --    21 O    1.725     4 C    1.070    19 C    1.054
    21   8 O    2.031 --    20 C    1.725
    22   6 C    3.920 --     6 N    0.983    23 C    0.973    24 C    0.963
                            38 H    0.959
    23   6 C    3.943 --    24 C    0.985    40 H    0.979    39 H    0.976
                            22 C    0.973
    24   6 C    3.941 --    23 C    0.985    41 H    0.979    42 H    0.979
                            22 C    0.963
    25   1 H    0.893 --     3 O    0.871
    26   1 H    0.994 --     5 C    0.953
    27   1 H    0.997 --     8 C    0.957
    28   1 H    0.997 --    11 C    0.967
    29   1 H    0.998 --    11 C    0.969
    30   1 H    0.998 --    12 C    0.970
    31   1 H    0.998 --    12 C    0.974
    32   1 H    0.981 --    13 N    0.956
    33   1 H    0.998 --    14 C    0.972
    34   1 H    0.998 --    14 C    0.973
    35   1 H    0.995 --    15 C    0.968
    36   1 H    0.997 --    15 C    0.970
    37   1 H    0.990 --    18 C    0.957
    38   1 H    0.995 --    22 C    0.959
    39   1 H    0.997 --    23 C    0.976
    40   1 H    0.997 --    23 C    0.979
    41   1 H    0.997 --    24 C    0.979
    42   1 H    0.997 --    24 C    0.979
 ---------------------------------------------------------------------------

Topologies differ in total number of bonds
Writing topology from bond orders to xtbtopo.mol

molecular dipole:
                 x           y           z       tot (Debye)
 q only:        2.134       2.687       2.465
   full:        2.057       2.674       2.842      11.212
molecular quadrupole (traceless):
                xx          xy          yy          xz          yz          zz
 q only:        2.174     -24.148      -6.461     -18.462     -11.029       4.287
  q+dip:        8.599     -29.953     -13.811     -17.861     -12.564       5.211
   full:        6.745     -29.849     -12.612     -18.948     -15.063       5.866

           -------------------------------------------------
          |                Geometry Summary                 |
           -------------------------------------------------

      molecular mass/u    :      331.3421713
   center of mass at/Å    :       -0.5930555      -0.4904966      -0.3260399
  moments of inertia/u·Å² :        0.1145547E+04   0.3473027E+04   0.4425826E+04
rotational constants/cm⁻¹ :        0.1471580E-01   0.4853874E-02   0.3808923E-02

 * 41 selected distances

     #   Z          #   Z                                           value/Å
     1   8 O        2   6 C                                       1.1999719
     2   6 C        3   8 O                                       1.3610041
     4   6 C        5   6 C                                       1.3602859
     5   6 C        6   7 N                                       1.3475836
     6   7 N        7   6 C                                       1.3869486
     7   6 C        8   6 C                                       1.3936263
     8   6 C        9   6 C                                       1.3968705
     9   6 C       10   7 N                                       1.3742719
    10   7 N       11   6 C                                       1.4481536
    11   6 C       12   6 C                                       1.5389971
    12   6 C       13   7 N                                       1.4510487
    13   7 N       14   6 C                                       1.4513383
    10   7 N       15   6 C                                       1.4521930
    14   6 C       15   6 C                                       1.5404188 (max)
     9   6 C       16   6 C                                       1.4134581
    16   6 C       18   6 C                                       1.3664426
     7   6 C       19   6 C                                       1.4019853
    18   6 C       19   6 C                                       1.3973356
    20   6 C       21   8 O                                       1.2159808
     6   7 N       22   6 C                                       1.4334641
    22   6 C       23   6 C                                       1.4991471
    22   6 C       24   6 C                                       1.5031149
    23   6 C       24   6 C                                       1.4963643
     3   8 O       25   1 H                                       0.9695721 (min)
     5   6 C       26   1 H                                       1.0805370
     8   6 C       27   1 H                                       1.0751481
    11   6 C       28   1 H                                       1.0975367
    11   6 C       29   1 H                                       1.0895688
    12   6 C       30   1 H                                       1.0942585
    12   6 C       31   1 H                                       1.0916457
    13   7 N       32   1 H                                       1.0165179
    14   6 C       33   1 H                                       1.0950246
    14   6 C       34   1 H                                       1.0911298
    15   6 C       35   1 H                                       1.0856919
    15   6 C       36   1 H                                       1.0963991
    18   6 C       37   1 H                                       1.0789075
    22   6 C       38   1 H                                       1.0866741
    23   6 C       39   1 H                                       1.0787087
    23   6 C       40   1 H                                       1.0787390
    24   6 C       41   1 H                                       1.0793326
    24   6 C       42   1 H                                       1.0791153

 * 6 distinct bonds (by element types)

   Z      Z             #   av. dist./Å        max./Å        min./Å
   1 H    6 C          16     1.0861511     1.0975367     1.0751481
   6 C    6 C          12     1.4423372     1.5404188     1.3602859
   1 H    7 N           1     1.0165179     1.0165179     1.0165179
   6 C    7 N           8     1.4181252     1.4521930     1.3475836
   1 H    8 O           1     0.9695721     0.9695721     0.9695721
   6 C    8 O           3     1.2589856     1.3610041     1.1999719


optimized geometry written to: xtbopt.xyz


           -------------------------------------------------
          | TOTAL ENERGY              -71.305242452727 Eh   |
          | GRADIENT NORM               0.000488561444 Eh/α |
          | HOMO-LUMO GAP               2.315043907198 eV   |
           -------------------------------------------------

------------------------------------------------------------------------
 * finished run on 2025/05/15 at 16:05:59.940     
------------------------------------------------------------------------
 total:
 * wall-time:     0 d,  0 h,  0 min,  0.776 sec
 *  cpu-time:     0 d,  0 h,  0 min,  0.765 sec
 * ratio c/w:     0.986 speedup
 SCF:
 * wall-time:     0 d,  0 h,  0 min,  0.061 sec
 *  cpu-time:     0 d,  0 h,  0 min,  0.060 sec
 * ratio c/w:     0.995 speedup
 ANC optimizer:
 * wall-time:     0 d,  0 h,  0 min,  0.701 sec
 *  cpu-time:     0 d,  0 h,  0 min,  0.692 sec
 * ratio c/w:     0.987 speedup



----- Single-point -----
      -----------------------------------------------------------      
     |                   =====================                   |     
     |                           x T B                           |     
     |                   =====================                   |     
     |                         S. Grimme                         |     
     |          Mulliken Center for Theoretical Chemistry        |     
     |                    University of Bonn                     |     
      -----------------------------------------------------------      

   * xtb version 6.7.1 (edcfbbe) compiled by 'conda@3ef47c1a292c' on 2024-11-25

   xtb is free software: you can redistribute it and/or modify it under
   the terms of the GNU Lesser General Public License as published by
   the Free Software Foundation, either version 3 of the License, or
   (at your option) any later version.
   
   xtb is distributed in the hope that it will be useful,
   but WITHOUT ANY WARRANTY; without even the implied warranty of
   MERCHANTABILITY or FITNESS FOR A PARTICULAR PURPOSE.  See the
   GNU Lesser General Public License for more details.
   
   Cite this work as:
   * C. Bannwarth, E. Caldeweyher, S. Ehlert, A. Hansen, P. Pracht,
     J. Seibert, S. Spicher, S. Grimme, WIREs Comput. Mol. Sci., 2020, 11,
     e01493. DOI: 10.1002/wcms.1493
   
   for GFN2-xTB:
   * C. Bannwarth, S. Ehlert and S. Grimme., J. Chem. Theory Comput., 2019,
     15, 1652-1671. DOI: 10.1021/acs.jctc.8b01176
   for GFN1-xTB:
   * S. Grimme, C. Bannwarth, P. Shushkov, J. Chem. Theory Comput., 2017,
     13, 1989-2009. DOI: 10.1021/acs.jctc.7b00118
   for GFN0-xTB:
   * P. Pracht, E. Caldeweyher, S. Ehlert, S. Grimme, ChemRxiv, 2019, preprint.
     DOI: 10.26434/chemrxiv.8326202.v1
   for GFN-FF:
   * S. Spicher and S. Grimme, Angew. Chem. Int. Ed., 2020, 59, 15665-15673.
     DOI: 10.1002/anie.202004239
   
   for ALPB and GBSA implicit solvation:
   * S. Ehlert, M. Stahn, S. Spicher, S. Grimme, J. Chem. Theory Comput.,
     2021, 17, 4250-4261. DOI: 10.1021/acs.jctc.1c00471
   
   for ddCOSMO and CPCM-X implicit solvation:
   * M. Stahn, S. Ehlert, S. Grimme, J. Phys. Chem. A,
     2023, XX, XXXX-XXXX. DOI: 10.1021/acs.jpca.3c04382
   
   for DFT-D4:
   * E. Caldeweyher, C. Bannwarth and S. Grimme, J. Chem. Phys., 2017,
     147, 034112. DOI: 10.1063/1.4993215
   * E. Caldeweyher, S. Ehlert, A. Hansen, H. Neugebauer, S. Spicher,
     C. Bannwarth and S. Grimme, J. Chem. Phys., 2019, 150, 154122.
     DOI: 10.1063/1.5090222
   * E. Caldeweyher, J.-M. Mewes, S. Ehlert and S. Grimme, Phys. Chem. Chem. Phys.
     2020, 22, 8499-8512. DOI: 10.1039/D0CP00502A
   
   for sTDA-xTB:
   * S. Grimme and C. Bannwarth, J. Chem. Phys., 2016, 145, 054103.
     DOI: 10.1063/1.4959605
   
   in the mass-spec context:
   * V. Asgeirsson, C. Bauer and S. Grimme, Chem. Sci., 2017, 8, 4879.
     DOI: 10.1039/c7sc00601b
   * J. Koopman and S. Grimme, ACS Omega 2019, 4, 12, 15120-15133.
     DOI: 10.1021/acsomega.9b02011
   
   for metadynamics refer to:
   * S. Grimme, J. Chem. Theory Comput., 2019, 155, 2847-2862
     DOI: 10.1021/acs.jctc.9b00143
   
   for SPH calculations refer to:
   * S. Spicher and S. Grimme, J. Chem. Theory Comput., 2021, 17, 1701-1714
     DOI: 10.1021/acs.jctc.0c01306
   
   for ONIOM refer to:
   * C. Plett, A. Katbashev, S. Ehlert, S. Grimme, M. Bursch,
     Phys. Chem. Chem. Phys., 2023, 25, 17860-17868. DOI: 10.1039/D3CP02178E
   
   for DIPRO refer to:
   * J. Kohn, N. Gildemeister, S. Grimme, D. Fazzi, A. Hansen,
     J. Chem. Phys., 2023, just accepted.
   
   for PTB refer to:
   * S. Grimme, M. Mueller, A. Hansen, J. Chem. Phys., 2023, 158, 124111.
     DOI: 10.1063/5.0137838
   
   with help from (in alphabetical order)
   P. Atkinson, C. Bannwarth, F. Bohle, G. Brandenburg, E. Caldeweyher
   M. Checinski, S. Dohm, S. Ehlert, S. Ehrlich, I. Gerasimov, C. Hölzer
   A. Katbashev, J. Kohn, J. Koopman, C. Lavigne, S. Lehtola, F. März, M. Müller,
   F. Musil, H. Neugebauer, J. Pisarek, C. Plett, P. Pracht, F. Pultar,
   J. Seibert, P. Shushkov, S. Spicher, M. Stahn, M. Steiner, T. Strunk,
   J. Stückrath, T. Rose, and J. Unsleber
   
 * started run on 2025/05/15 at 16:05:59.959     
   ID    Z sym.   atoms
    1    8 O      1, 3, 21
    2    6 C      2, 4, 5, 7-9, 11, 12, 14-16, 18-20, 22-24
    3    7 N      6, 10, 13
    4    9 F      17
    5    1 H      25-42

           -------------------------------------------------
          |                Calculation Setup                |
           -------------------------------------------------

          program call               : xtb /rds/general/user/hgt20/home/callum/QDESCP/Ciprofloxacin_rdkit_conf_21/Ciprofloxacin_rdkit_conf_21.xyz --acc 1 --gfn 2 --chrg 0 --uhf 0 --etemp 300 --input /rds/general/user/hgt20/home/callum/QDESCP/Ciprofloxacin_rdkit_conf_21/Ciprofloxacin_rdkit_conf_21_xtb.inp -P 1
          hostname                   : login-c
          coordinate file            : /rds/general/user/hgt20/home/callum/QDESCP/Ciprofloxacin_rdkit_conf_21/Ciprofloxacin_rdkit_conf_21.xyz
          omp threads                :                     1


           -------------------------------------------------
          |                 G F N 2 - x T B                 |
           -------------------------------------------------

        Reference                      10.1021/acs.jctc.8b01176
      * Hamiltonian:
        H0-scaling (s, p, d)           1.850000    2.230000    2.230000
        zeta-weighting                 0.500000
      * Dispersion:
        s8                             2.700000
        a1                             0.520000
        a2                             5.000000
        s9                             5.000000
      * Repulsion:
        kExp                           1.500000    1.000000
        rExp                           1.000000
      * Coulomb:
        alpha                          2.000000
        third order                    shell-resolved
        anisotropic                    true
        a3                             3.000000
        a5                             4.000000
        cn-shift                       1.200000
        cn-exp                         4.000000
        max-rad                        5.000000

q/qsh data taken from xtbrestart
CAMM data taken from xtbrestart

          ...................................................
          :                      SETUP                      :
          :.................................................:
          :  # basis functions                 114          :
          :  # atomic orbitals                 114          :
          :  # shells                           66          :
          :  # electrons                       126          :
          :  max. iterations                   250          :
          :  Hamiltonian                  GFN2-xTB          :
          :  restarted?                       true          :
          :  GBSA solvation                  false          :
          :  PC potential                    false          :
          :  electronic temp.          300.0000000     K    :
          :  accuracy                    1.0000000          :
          :  -> integral cutoff          0.2500000E+02      :
          :  -> integral neglect         0.1000000E-07      :
          :  -> SCF convergence          0.1000000E-05 Eh   :
          :  -> wf. convergence          0.1000000E-03 e    :
          :  Broyden damping             0.4000000          :
          :  net charge                          0          :
          :  unpaired electrons                  0          :
          ...................................................

 iter      E             dE          RMSdq      gap      omega  full diag
   1    -72.2013361 -0.722013E+02  0.609E-06    2.32       0.0  T
   2    -72.2013361 -0.468958E-12  0.403E-06    2.32    3829.0  T
   3    -72.2013361 -0.738964E-12  0.186E-06    2.32    8292.6  T

   *** convergence criteria satisfied after 3 iterations ***

         #    Occupation            Energy/Eh            Energy/eV
      -------------------------------------------------------------
         1        2.0000           -0.8162487             -22.2113
       ...           ...                  ...                  ...
        57        2.0000           -0.4398778             -11.9697
        58        2.0000           -0.4238915             -11.5347
        59        2.0000           -0.4111917             -11.1891
        60        2.0000           -0.3974644             -10.8156
        61        2.0000           -0.3844825             -10.4623
        62        2.0000           -0.3700449             -10.0694
        63        2.0000           -0.3576087              -9.7310 (HOMO)
        64                         -0.2725325              -7.4160 (LUMO)
        65                         -0.2592549              -7.0547
        66                         -0.2241782              -6.1002
        67                         -0.2025987              -5.5130
        68                         -0.1389758              -3.7817
       ...                                ...                  ...
       114                          0.7201295              19.5957
      -------------------------------------------------------------
                  HL-Gap            0.0850762 Eh            2.3150 eV
             Fermi-level           -0.3150706 Eh           -8.5735 eV

 SCC (total)                   0 d,  0 h,  0 min,  0.044 sec
 SCC setup                      ...        0 min,  0.000 sec (  0.863%)
 Dispersion                     ...        0 min,  0.000 sec (  1.058%)
 classical contributions        ...        0 min,  0.000 sec (  0.337%)
 integral evaluation            ...        0 min,  0.008 sec ( 18.842%)
 iterations                     ...        0 min,  0.008 sec ( 18.110%)
 molecular gradient             ...        0 min,  0.026 sec ( 60.260%)
 printout                       ...        0 min,  0.000 sec (  0.516%)

         :::::::::::::::::::::::::::::::::::::::::::::::::::::
         ::                     SUMMARY                     ::
         :::::::::::::::::::::::::::::::::::::::::::::::::::::
         :: total energy             -71.305242452741 Eh    ::
         :: gradient norm              0.000488821173 Eh/a0 ::
         :: HOMO-LUMO gap              2.315041338245 eV    ::
         ::.................................................::
         :: SCC energy               -72.200953354392 Eh    ::
         :: -> isotropic ES            0.106721180422 Eh    ::
         :: -> anisotropic ES          0.007251748450 Eh    ::
         :: -> anisotropic XC          0.019127654873 Eh    ::
         :: -> dispersion             -0.047041556971 Eh    ::
         :: repulsion energy           0.895710901651 Eh    ::
         :: add. restraining           0.000000000000 Eh    ::
         :: total charge               0.000000000000 e     ::
         :::::::::::::::::::::::::::::::::::::::::::::::::::::

           -------------------------------------------------
          |                Property Printout                |
           -------------------------------------------------

    * Orbital Energies and Occupations

         #    Occupation            Energy/Eh            Energy/eV
      -------------------------------------------------------------
         1        2.0000           -0.8162487             -22.2113
       ...           ...                  ...                  ...
        51        2.0000           -0.4650631             -12.6550
        52        2.0000           -0.4624825             -12.5848
        53        2.0000           -0.4619817             -12.5712
        54        2.0000           -0.4599941             -12.5171
        55        2.0000           -0.4576659             -12.4537
        56        2.0000           -0.4454863             -12.1223
        57        2.0000           -0.4398778             -11.9697
        58        2.0000           -0.4238915             -11.5347
        59        2.0000           -0.4111917             -11.1891
        60        2.0000           -0.3974644             -10.8156
        61        2.0000           -0.3844825             -10.4623
        62        2.0000           -0.3700449             -10.0694
        63        2.0000           -0.3576087              -9.7310 (HOMO)
        64                         -0.2725325              -7.4160 (LUMO)
        65                         -0.2592549              -7.0547
        66                         -0.2241782              -6.1002
        67                         -0.2025987              -5.5130
        68                         -0.1389758              -3.7817
        69                         -0.0984090              -2.6778
        70                         -0.0772681              -2.1026
        71                         -0.0292457              -0.7958
        72                         -0.0147529              -0.4014
        73                          0.0332646               0.9052
        74                          0.0362395               0.9861
       ...                                ...                  ...
       114                          0.7201295              19.5957
      -------------------------------------------------------------
                  HL-Gap            0.0850762 Eh            2.3150 eV
             Fermi-level           -0.3150706 Eh           -8.5735 eV

     #   Z          covCN         q      C6AA      α(0)
     1   8 O        0.856    -0.387    21.415     6.204
     2   6 C        2.698     0.358    20.922     7.486
     3   8 O        1.659    -0.411    21.066     6.196
     4   6 C        2.955    -0.076    29.890     8.967
     5   6 C        2.875     0.028    27.370     8.576
     6   7 N        2.746    -0.011    21.460     6.880
     7   6 C        2.932     0.051    26.864     8.500
     8   6 C        2.928    -0.092    30.314     9.029
     9   6 C        2.904     0.056    26.749     8.480
    10   7 N        2.737    -0.094    23.087     7.136
    11   6 C        3.759    -0.008    20.771     6.497
    12   6 C        3.751     0.005    20.551     6.465
    13   7 N        2.678    -0.256    26.647     7.667
    14   6 C        3.752     0.004    20.569     6.468
    15   6 C        3.758    -0.009    20.786     6.500
    16   6 C        2.784     0.140    24.934     8.179
    17   9 F        0.787    -0.231    11.563     4.017
    18   6 C        2.921    -0.041    29.016     8.834
    19   6 C        2.982    -0.041    29.023     8.837
    20   6 C        2.830     0.223    23.307     7.911
    21   8 O        0.857    -0.389    21.457     6.210
    22   6 C        3.811     0.029    20.081     6.379
    23   6 C        3.806    -0.070    21.842     6.653
    24   6 C        3.806    -0.068    21.793     6.646
    25   1 H        0.804     0.326     0.648     1.265
    26   1 H        0.926     0.077     2.015     2.220
    27   1 H        0.926     0.046     2.365     2.405
    28   1 H        0.924     0.042     2.423     2.434
    29   1 H        0.925     0.043     2.409     2.427
    30   1 H        0.924     0.040     2.447     2.446
    31   1 H        0.924     0.037     2.490     2.468
    32   1 H        0.860     0.138     1.484     1.908
    33   1 H        0.924     0.040     2.446     2.446
    34   1 H        0.924     0.042     2.427     2.436
    35   1 H        0.925     0.068     2.107     2.270
    36   1 H        0.924     0.040     2.452     2.449
    37   1 H        0.926     0.093     1.850     2.127
    38   1 H        0.925     0.046     2.374     2.409
    39   1 H        0.926     0.058     2.218     2.329
    40   1 H        0.926     0.053     2.286     2.364
    41   1 H        0.926     0.048     2.349     2.397
    42   1 H        0.926     0.054     2.271     2.357

 Mol. C6AA /au·bohr⁶  :      20024.921325
 Mol. C8AA /au·bohr⁸  :     469111.814881
 Mol. α(0) /au        :        215.875187


Wiberg/Mayer (AO) data.
largest (>0.10) Wiberg bond orders for each atom

 ---------------------------------------------------------------------------
     #   Z sym  total        # sym  WBO       # sym  WBO       # sym  WBO
 ---------------------------------------------------------------------------
     1   8 O    2.057 --     2 C    1.762     3 O    0.163
     2   6 C    3.919 --     1 O    1.762     3 O    1.074     4 C    1.029
     3   8 O    2.147 --     2 C    1.074    25 H    0.871     1 O    0.163
     4   6 C    3.972 --     5 C    1.559    20 C    1.070     2 C    1.029
     5   6 C    3.963 --     4 C    1.559     6 N    1.252    26 H    0.953
     6   7 N    3.614 --     5 C    1.252     7 C    1.102    22 C    0.983
     7   6 C    3.962 --     8 C    1.363    19 C    1.303     6 N    1.102
     8   6 C    3.970 --     9 C    1.363     7 C    1.363    27 H    0.957
     9   6 C    3.977 --     8 C    1.363    16 C    1.251    10 N    1.169
    10   7 N    3.385 --     9 C    1.169    11 C    0.998    15 C    0.986
    11   6 C    3.980 --    10 N    0.998    12 C    0.980    29 H    0.969
                            28 H    0.967
    12   6 C    3.986 --    13 N    1.020    11 C    0.980    31 H    0.974
                            30 H    0.970
    13   7 N    3.078 --    12 C    1.020    14 C    1.019    32 H    0.956
    14   6 C    3.984 --    13 N    1.019    15 C    0.979    34 H    0.973
                            33 H    0.972
    15   6 C    3.972 --    10 N    0.986    14 C    0.979    36 H    0.970
                            35 H    0.968
    16   6 C    3.875 --    18 C    1.484     9 C    1.251    17 F    0.946
    17   9 F    1.076 --    16 C    0.946
    18   6 C    3.982 --    16 C    1.484    19 C    1.335    37 H    0.957
    19   6 C    3.976 --    18 C    1.335     7 C    1.303    20 C    1.054
    20   6 C    3.954 --    21 O    1.725     4 C    1.070    19 C    1.054
    21   8 O    2.031 --    20 C    1.725
    22   6 C    3.920 --     6 N    0.983    23 C    0.973    24 C    0.963
                            38 H    0.959
    23   6 C    3.943 --    24 C    0.985    40 H    0.979    39 H    0.976
                            22 C    0.973
    24   6 C    3.941 --    23 C    0.985    41 H    0.979    42 H    0.979
                            22 C    0.963
    25   1 H    0.893 --     3 O    0.871
    26   1 H    0.994 --     5 C    0.953
    27   1 H    0.997 --     8 C    0.957
    28   1 H    0.997 --    11 C    0.967
    29   1 H    0.998 --    11 C    0.969
    30   1 H    0.998 --    12 C    0.970
    31   1 H    0.998 --    12 C    0.974
    32   1 H    0.981 --    13 N    0.956
    33   1 H    0.998 --    14 C    0.972
    34   1 H    0.998 --    14 C    0.973
    35   1 H    0.995 --    15 C    0.968
    36   1 H    0.997 --    15 C    0.970
    37   1 H    0.990 --    18 C    0.957
    38   1 H    0.995 --    22 C    0.959
    39   1 H    0.997 --    23 C    0.976
    40   1 H    0.997 --    23 C    0.979
    41   1 H    0.997 --    24 C    0.979
    42   1 H    0.997 --    24 C    0.979
 ---------------------------------------------------------------------------

Topologies differ in total number of bonds
Writing topology from bond orders to xtbtopo.mol

molecular dipole:
                 x           y           z       tot (Debye)
 q only:        2.134       2.687       2.465
   full:        2.057       2.674       2.842      11.212
molecular quadrupole (traceless):
                xx          xy          yy          xz          yz          zz
 q only:        2.174     -24.148      -6.461     -18.462     -11.029       4.287
  q+dip:        8.599     -29.953     -13.811     -17.861     -12.564       5.211
   full:        6.745     -29.849     -12.612     -18.948     -15.063       5.866


           -------------------------------------------------
          | TOTAL ENERGY              -71.305242452741 Eh   |
          | GRADIENT NORM               0.000488821173 Eh/α |
          | HOMO-LUMO GAP               2.315041338245 eV   |
           -------------------------------------------------

------------------------------------------------------------------------
 * finished run on 2025/05/15 at 16:06:00.018     
------------------------------------------------------------------------
 total:
 * wall-time:     0 d,  0 h,  0 min,  0.058 sec
 *  cpu-time:     0 d,  0 h,  0 min,  0.057 sec
 * ratio c/w:     0.978 speedup
 SCF:
 * wall-time:     0 d,  0 h,  0 min,  0.044 sec
 *  cpu-time:     0 d,  0 h,  0 min,  0.044 sec
 * ratio c/w:     0.995 speedup



----- FOD -----
      -----------------------------------------------------------      
     |                   =====================                   |     
     |                           x T B                           |     
     |                   =====================                   |     
     |                         S. Grimme                         |     
     |          Mulliken Center for Theoretical Chemistry        |     
     |                    University of Bonn                     |     
      -----------------------------------------------------------      

   * xtb version 6.7.1 (edcfbbe) compiled by 'conda@3ef47c1a292c' on 2024-11-25

   xtb is free software: you can redistribute it and/or modify it under
   the terms of the GNU Lesser General Public License as published by
   the Free Software Foundation, either version 3 of the License, or
   (at your option) any later version.
   
   xtb is distributed in the hope that it will be useful,
   but WITHOUT ANY WARRANTY; without even the implied warranty of
   MERCHANTABILITY or FITNESS FOR A PARTICULAR PURPOSE.  See the
   GNU Lesser General Public License for more details.
   
   Cite this work as:
   * C. Bannwarth, E. Caldeweyher, S. Ehlert, A. Hansen, P. Pracht,
     J. Seibert, S. Spicher, S. Grimme, WIREs Comput. Mol. Sci., 2020, 11,
     e01493. DOI: 10.1002/wcms.1493
   
   for GFN2-xTB:
   * C. Bannwarth, S. Ehlert and S. Grimme., J. Chem. Theory Comput., 2019,
     15, 1652-1671. DOI: 10.1021/acs.jctc.8b01176
   for GFN1-xTB:
   * S. Grimme, C. Bannwarth, P. Shushkov, J. Chem. Theory Comput., 2017,
     13, 1989-2009. DOI: 10.1021/acs.jctc.7b00118
   for GFN0-xTB:
   * P. Pracht, E. Caldeweyher, S. Ehlert, S. Grimme, ChemRxiv, 2019, preprint.
     DOI: 10.26434/chemrxiv.8326202.v1
   for GFN-FF:
   * S. Spicher and S. Grimme, Angew. Chem. Int. Ed., 2020, 59, 15665-15673.
     DOI: 10.1002/anie.202004239
   
   for ALPB and GBSA implicit solvation:
   * S. Ehlert, M. Stahn, S. Spicher, S. Grimme, J. Chem. Theory Comput.,
     2021, 17, 4250-4261. DOI: 10.1021/acs.jctc.1c00471
   
   for ddCOSMO and CPCM-X implicit solvation:
   * M. Stahn, S. Ehlert, S. Grimme, J. Phys. Chem. A,
     2023, XX, XXXX-XXXX. DOI: 10.1021/acs.jpca.3c04382
   
   for DFT-D4:
   * E. Caldeweyher, C. Bannwarth and S. Grimme, J. Chem. Phys., 2017,
     147, 034112. DOI: 10.1063/1.4993215
   * E. Caldeweyher, S. Ehlert, A. Hansen, H. Neugebauer, S. Spicher,
     C. Bannwarth and S. Grimme, J. Chem. Phys., 2019, 150, 154122.
     DOI: 10.1063/1.5090222
[...]
     DOI: 10.1002/anie.202004239
   
   for ALPB and GBSA implicit solvation:
   * S. Ehlert, M. Stahn, S. Spicher, S. Grimme, J. Chem. Theory Comput.,
     2021, 17, 4250-4261. DOI: 10.1021/acs.jctc.1c00471
   
   for ddCOSMO and CPCM-X implicit solvation:
   * M. Stahn, S. Ehlert, S. Grimme, J. Phys. Chem. A,
     2023, XX, XXXX-XXXX. DOI: 10.1021/acs.jpca.3c04382
   
   for DFT-D4:
   * E. Caldeweyher, C. Bannwarth and S. Grimme, J. Chem. Phys., 2017,
     147, 034112. DOI: 10.1063/1.4993215
   * E. Caldeweyher, S. Ehlert, A. Hansen, H. Neugebauer, S. Spicher,
     C. Bannwarth and S. Grimme, J. Chem. Phys., 2019, 150, 154122.
     DOI: 10.1063/1.5090222
   * E. Caldeweyher, J.-M. Mewes, S. Ehlert and S. Grimme, Phys. Chem. Chem. Phys.
     2020, 22, 8499-8512. DOI: 10.1039/D0CP00502A
   
   for sTDA-xTB:
   * S. Grimme and C. Bannwarth, J. Chem. Phys., 2016, 145, 054103.
     DOI: 10.1063/1.4959605
   
   in the mass-spec context:
   * V. Asgeirsson, C. Bauer and S. Grimme, Chem. Sci., 2017, 8, 4879.
     DOI: 10.1039/c7sc00601b
   * J. Koopman and S. Grimme, ACS Omega 2019, 4, 12, 15120-15133.
     DOI: 10.1021/acsomega.9b02011
   
   for metadynamics refer to:
   * S. Grimme, J. Chem. Theory Comput., 2019, 155, 2847-2862
     DOI: 10.1021/acs.jctc.9b00143
   
   for SPH calculations refer to:
   * S. Spicher and S. Grimme, J. Chem. Theory Comput., 2021, 17, 1701-1714
     DOI: 10.1021/acs.jctc.0c01306
   
   for ONIOM refer to:
   * C. Plett, A. Katbashev, S. Ehlert, S. Grimme, M. Bursch,
     Phys. Chem. Chem. Phys., 2023, 25, 17860-17868. DOI: 10.1039/D3CP02178E
   
   for DIPRO refer to:
   * J. Kohn, N. Gildemeister, S. Grimme, D. Fazzi, A. Hansen,
     J. Chem. Phys., 2023, just accepted.
   
   for PTB refer to:
   * S. Grimme, M. Mueller, A. Hansen, J. Chem. Phys., 2023, 158, 124111.
     DOI: 10.1063/5.0137838
   
   with help from (in alphabetical order)
   P. Atkinson, C. Bannwarth, F. Bohle, G. Brandenburg, E. Caldeweyher
   M. Checinski, S. Dohm, S. Ehlert, S. Ehrlich, I. Gerasimov, C. Hölzer
   A. Katbashev, J. Kohn, J. Koopman, C. Lavigne, S. Lehtola, F. März, M. Müller,
   F. Musil, H. Neugebauer, J. Pisarek, C. Plett, P. Pracht, F. Pultar,
   J. Seibert, P. Shushkov, S. Spicher, M. Stahn, M. Steiner, T. Strunk,
   J. Stückrath, T. Rose, and J. Unsleber
   
 * started run on 2025/05/15 at 16:06:01.373     
   ID    Z sym.   atoms
    1    8 O      1, 3, 21
    2    6 C      2, 4, 5, 7-9, 11, 12, 14-16, 18-20, 22-24
    3    7 N      6, 10, 13
    4    9 F      17
    5    1 H      25-42

           -------------------------------------------------
          |                Calculation Setup                |
           -------------------------------------------------

          program call               : xtb /rds/general/user/hgt20/home/callum/QDESCP/Ciprofloxacin_rdkit_conf_21/Ciprofloxacin_rdkit_conf_21.xyz --acc 1 --gfn 2 --chrg 0 --uhf 2 --etemp 300 --input /rds/general/user/hgt20/home/callum/QDESCP/Ciprofloxacin_rdkit_conf_21/Ciprofloxacin_rdkit_conf_21_xtb.inp -P 1
          hostname                   : login-c
          coordinate file            : /rds/general/user/hgt20/home/callum/QDESCP/Ciprofloxacin_rdkit_conf_21/Ciprofloxacin_rdkit_conf_21.xyz
          omp threads                :                     1


           -------------------------------------------------
          |                 G F N 2 - x T B                 |
           -------------------------------------------------

        Reference                      10.1021/acs.jctc.8b01176
      * Hamiltonian:
        H0-scaling (s, p, d)           1.850000    2.230000    2.230000
        zeta-weighting                 0.500000
      * Dispersion:
        s8                             2.700000
        a1                             0.520000
        a2                             5.000000
        s9                             5.000000
      * Repulsion:
        kExp                           1.500000    1.000000
        rExp                           1.000000
      * Coulomb:
        alpha                          2.000000
        third order                    shell-resolved
        anisotropic                    true
        a3                             3.000000
        a5                             4.000000
        cn-shift                       1.200000
        cn-exp                         4.000000
        max-rad                        5.000000


          ...................................................
          :                      SETUP                      :
          :.................................................:
          :  # basis functions                 114          :
          :  # atomic orbitals                 114          :
          :  # shells                           66          :
          :  # electrons                       126          :
          :  max. iterations                   250          :
          :  Hamiltonian                  GFN2-xTB          :
          :  restarted?                      false          :
          :  GBSA solvation                  false          :
          :  PC potential                    false          :
          :  electronic temp.          300.0000000     K    :
          :  accuracy                    1.0000000          :
          :  -> integral cutoff          0.2500000E+02      :
          :  -> integral neglect         0.1000000E-07      :
          :  -> SCF convergence          0.1000000E-05 Eh   :
          :  -> wf. convergence          0.1000000E-03 e    :
          :  Broyden damping             0.4000000          :
          :  net charge                          0          :
          :  unpaired electrons                  2          :
          ...................................................

 iter      E             dE          RMSdq      gap      omega  full diag
   1    -71.8119895 -0.718120E+02  0.382E+00    0.19       0.0  T
   2    -71.8229684 -0.109790E-01  0.300E+00    0.18       1.0  T
   3    -71.9598027 -0.136834E+00  0.212E+00    0.59       1.0  T
   4    -71.9890002 -0.291975E-01  0.135E+00    0.31       1.0  T
   5    -71.9905101 -0.150989E-02  0.113E+00    0.21       1.0  T
   6    -72.0490173 -0.585072E-01  0.735E-01    0.26       1.0  T
   7    -72.0643678 -0.153506E-01  0.633E-01    0.17       1.0  T
   8    -72.0960252 -0.316573E-01  0.205E-01    0.13       1.0  T
   9    -72.0930444  0.298078E-02  0.266E-01    0.14       1.0  T
  10    -72.0872538  0.579061E-02  0.336E-01    0.13       1.0  T
  11    -72.0964354 -0.918166E-02  0.121E-01    0.12       1.0  T
  12    -72.0973371 -0.901657E-03  0.668E-02    0.13       1.0  T
  13    -72.0977219 -0.384769E-03  0.974E-03    0.13       1.6  T
  14    -72.0976891  0.327585E-04  0.212E-02    0.13       1.0  T
  15    -72.0977248 -0.356872E-04  0.524E-03    0.13       2.9  T
  16    -72.0977265 -0.176800E-05  0.275E-03    0.13       5.6  T
  17    -72.0977271 -0.538459E-06  0.889E-04    0.13      17.3  T
  18    -72.0977272 -0.655249E-07  0.194E-04    0.13      79.7  T

   *** convergence criteria satisfied after 18 iterations ***

         #    Occupation            Energy/Eh            Energy/eV
      -------------------------------------------------------------
         1        2.0000           -0.8134744             -22.1358
       ...           ...                  ...                  ...
        58        2.0000           -0.4114862             -11.1971
        59        2.0000           -0.4084651             -11.1149
        60        2.0000           -0.4035754             -10.9818
        61        1.9923           -0.3742634             -10.1842
        62        1.6819           -0.3703748             -10.0784
        63        1.3259           -0.3689599             -10.0399
        64        0.9256           -0.2553972              -6.9497 (HOMO)
        65        0.0744           -0.2506071              -6.8194 (LUMO)
        66                         -0.2097541              -5.7077
        67                         -0.1941423              -5.2829
        68                         -0.1266287              -3.4457
        69                         -0.0868464              -2.3632
       ...                                ...                  ...
       114                          0.7286349              19.8272
      -------------------------------------------------------------
                  HL-Gap            0.0047901 Eh            0.1303 eV
             Fermi-level           -0.3113263 Eh           -8.4716 eV

 transition dipole moment (au) for excitation:          63          64
     X       Y       Z   
  -1.1752  -0.2267  -0.3208  total (au/Debye):    1.239   3.150
 dE (eV)             :    3.090
 oscillator strength :  0.16439E+00

 SCC (total)                   0 d,  0 h,  0 min,  0.085 sec
 SCC setup                      ...        0 min,  0.000 sec (  0.425%)
 Dispersion                     ...        0 min,  0.000 sec (  0.563%)
 classical contributions        ...        0 min,  0.000 sec (  0.173%)
 integral evaluation            ...        0 min,  0.008 sec (  9.686%)
 iterations                     ...        0 min,  0.042 sec ( 49.042%)
 molecular gradient             ...        0 min,  0.027 sec ( 31.253%)
 printout                       ...        0 min,  0.008 sec (  8.847%)

         :::::::::::::::::::::::::::::::::::::::::::::::::::::
         ::                     SUMMARY                     ::
         :::::::::::::::::::::::::::::::::::::::::::::::::::::
         :: total energy             -71.201633467821 Eh    ::
         :: gradient norm              0.088505651916 Eh/a0 ::
         :: HOMO-LUMO gap              0.130344028126 eV    ::
         ::.................................................::
         :: SCC energy               -72.097344369471 Eh    ::
         :: -> isotropic ES            0.101001920644 Eh    ::
         :: -> anisotropic ES          0.006112832632 Eh    ::
         :: -> anisotropic XC          0.016609719214 Eh    ::
         :: -> dispersion             -0.047034502656 Eh    ::
         :: repulsion energy           0.895710901651 Eh    ::
         :: add. restraining           0.000000000000 Eh    ::
         :: total charge              -0.000000000000 e     ::
         :::::::::::::::::::::::::::::::::::::::::::::::::::::

           -------------------------------------------------
          |                Property Printout                |
           -------------------------------------------------

    * Orbital Energies and Occupations

         #    Occupation            Energy/Eh            Energy/eV
      -------------------------------------------------------------
         1        2.0000           -0.8134744             -22.1358
       ...           ...                  ...                  ...
        52        2.0000           -0.4587208             -12.4824
        53        2.0000           -0.4538659             -12.3503
        54        2.0000           -0.4531115             -12.3298
        55        2.0000           -0.4469692             -12.1627
        56        2.0000           -0.4421346             -12.0311
        57        2.0000           -0.4335382             -11.7972
        58        2.0000           -0.4114862             -11.1971
        59        2.0000           -0.4084651             -11.1149
        60        2.0000           -0.4035754             -10.9818
        61        1.9923           -0.3742634             -10.1842
        62        1.6819           -0.3703748             -10.0784
        63        1.3259           -0.3689599             -10.0399
        64        0.9256           -0.2553972              -6.9497 (HOMO)
        65        0.0744           -0.2506071              -6.8194 (LUMO)
        66                         -0.2097541              -5.7077
        67                         -0.1941423              -5.2829
        68                         -0.1266287              -3.4457
        69                         -0.0868464              -2.3632
        70                         -0.0658950              -1.7931
        71                         -0.0280253              -0.7626
        72                         -0.0109133              -0.2970
        73                          0.0158601               0.4316
        74                          0.0412431               1.1223
        75                          0.0423736               1.1530
       ...                                ...                  ...
       114                          0.7286349              19.8272
      -------------------------------------------------------------
                  HL-Gap            0.0047901 Eh            0.1303 eV
             Fermi-level           -0.3113263 Eh           -8.4716 eV

     #   Z          covCN         q      C6AA      α(0)
     1   8 O        0.856    -0.396    21.609     6.232
     2   6 C        2.698     0.354    20.989     7.498
     3   8 O        1.659    -0.408    20.998     6.186
     4   6 C        2.955    -0.070    29.752     8.947
     5   6 C        2.875    -0.011    28.281     8.718
     6   7 N        2.746    -0.027    21.768     6.929
     7   6 C        2.932     0.053    26.804     8.491
     8   6 C        2.928    -0.108    30.717     9.089
     9   6 C        2.904     0.030    27.326     8.571
    10   7 N        2.737    -0.063    22.452     7.037
    11   6 C        3.759    -0.010    20.799     6.502
    12   6 C        3.751     0.002    20.601     6.473
    13   7 N        2.678    -0.228    25.986     7.571
    14   6 C        3.752     0.001    20.617     6.475
    15   6 C        3.758    -0.012    20.833     6.507
    16   6 C        2.784     0.140    24.930     8.178
    17   9 F        0.787    -0.235    11.600     4.023
    18   6 C        2.921    -0.072    29.790     8.951
    19   6 C        2.982    -0.016    28.401     8.742
    20   6 C        2.830     0.198    23.797     7.994
    21   8 O        0.857    -0.345    20.605     6.086
    22   6 C        3.811     0.032    20.025     6.370
    23   6 C        3.806    -0.070    21.828     6.651
    24   6 C        3.806    -0.069    21.809     6.648
    25   1 H        0.804     0.324     0.653     1.269
    26   1 H        0.926     0.064     2.155     2.296
    27   1 H        0.926     0.035     2.518     2.481
    28   1 H        0.924     0.048     2.343     2.394
    29   1 H        0.925     0.059     2.212     2.326
    30   1 H        0.924     0.054     2.268     2.355
    31   1 H        0.924     0.047     2.353     2.399
    32   1 H        0.860     0.149     1.408     1.859
    33   1 H        0.924     0.053     2.282     2.362
    34   1 H        0.924     0.052     2.299     2.371
    35   1 H        0.925     0.081     1.972     2.196
    36   1 H        0.924     0.047     2.355     2.400
    37   1 H        0.926     0.076     2.018     2.222
    38   1 H        0.925     0.039     2.461     2.453
    39   1 H        0.926     0.058     2.219     2.329
    40   1 H        0.926     0.048     2.341     2.393
    41   1 H        0.926     0.040     2.442     2.444
    42   1 H        0.926     0.050     2.315     2.379

 Mol. C6AA /au·bohr⁶  :      20004.059784
 Mol. C8AA /au·bohr⁸  :     469125.779268
 Mol. α(0) /au        :        215.797750


Wiberg/Mayer (AO) data.
largest (>0.10) Wiberg bond orders for each atom

 ---------------------------------------------------------------------------
     #   Z sym  total        # sym  WBO       # sym  WBO       # sym  WBO
 ---------------------------------------------------------------------------
     1   8 O    2.024 --     2 C    1.723     3 O    0.147
     2   6 C    3.889 --     1 O    1.723     3 O    1.067     4 C    1.036
     3   8 O    2.129 --     2 C    1.067    25 H    0.872     1 O    0.147
     4   6 C    3.871 --     5 C    1.461    20 C    1.074     2 C    1.036
     5   6 C    3.858 --     4 C    1.461     6 N    1.176    26 H    0.948
     6   7 N    3.552 --     5 C    1.176     7 C    1.117    22 C    0.990
     7   6 C    3.942 --     8 C    1.372    19 C    1.271     6 N    1.117
     8   6 C    3.887 --     7 C    1.372     9 C    1.262    27 H    0.957
     9   6 C    3.905 --    16 C    1.283     8 C    1.262    10 N    1.132
    10   7 N    3.302 --     9 C    1.132    11 C    1.010    15 C    1.000
    11   6 C    3.967 --    10 N    1.010    29 H    0.966    28 H    0.964
                            12 C    0.962
    12   6 C    3.965 --    13 N    1.026    31 H    0.972    30 H    0.968
                            11 C    0.962
    13   7 N    3.098 --    14 C    1.026    12 C    1.026    32 H    0.952
    14   6 C    3.962 --    13 N    1.026    33 H    0.970    34 H    0.970
                            15 C    0.959
    15   6 C    3.956 --    10 N    1.000    36 H    0.967    35 H    0.965
                            14 C    0.959
    16   6 C    3.805 --    18 C    1.397     9 C    1.283    17 F    0.943
    17   9 F    1.066 --    16 C    0.943
    18   6 C    3.922 --    16 C    1.397    19 C    1.292    37 H    0.960
    19   6 C    3.842 --    18 C    1.292     7 C    1.271    20 C    1.040
    20   6 C    3.884 --    21 O    1.571     4 C    1.074    19 C    1.040
    21   8 O    1.889 --    20 C    1.571
    22   6 C    3.925 --     6 N    0.990    23 C    0.974    24 C    0.961
                            38 H    0.959
    23   6 C    3.943 --    24 C    0.983    40 H    0.980    39 H    0.976
                            22 C    0.974
    24   6 C    3.939 --    23 C    0.983    41 H    0.980    42 H    0.979
                            22 C    0.961
    25   1 H    0.894 --     3 O    0.872
    26   1 H    0.988 --     5 C    0.948
    27   1 H    0.997 --     8 C    0.957
    28   1 H    0.992 --    11 C    0.964
    29   1 H    0.995 --    11 C    0.966
    30   1 H    0.996 --    12 C    0.968
    31   1 H    0.995 --    12 C    0.972
    32   1 H    0.976 --    13 N    0.952
    33   1 H    0.996 --    14 C    0.970
    34   1 H    0.994 --    14 C    0.970
    35   1 H    0.992 --    15 C    0.965
    36   1 H    0.992 --    15 C    0.967
    37   1 H    0.992 --    18 C    0.960
    38   1 H    0.995 --    22 C    0.959
    39   1 H    0.996 --    23 C    0.976
    40   1 H    0.997 --    23 C    0.980
    41   1 H    0.998 --    24 C    0.980
    42   1 H    0.997 --    24 C    0.979
 ---------------------------------------------------------------------------

Topologies differ in total number of bonds
Writing topology from bond orders to xtbtopo.mol

molecular dipole:
                 x           y           z       tot (Debye)
 q only:        3.411       2.804       2.333
   full:        3.380       2.780       2.659      13.016
molecular quadrupole (traceless):
                xx          xy          yy          xz          yz          zz
 q only:        6.178     -22.035      -8.822     -17.113     -11.725       2.644
  q+dip:       12.943     -27.102     -16.135     -16.045     -13.008       3.192
   full:       11.505     -27.032     -15.099     -17.142     -15.032       3.594


           -------------------------------------------------
          | TOTAL ENERGY              -71.201633467821 Eh   |
          | GRADIENT NORM               0.088505651916 Eh/α |
          | HOMO-LUMO GAP               0.130344028126 eV   |
           -------------------------------------------------

------------------------------------------------------------------------
 * finished run on 2025/05/15 at 16:06:01.472     
------------------------------------------------------------------------
 total:
 * wall-time:     0 d,  0 h,  0 min,  0.099 sec
 *  cpu-time:     0 d,  0 h,  0 min,  0.097 sec
 * ratio c/w:     0.981 speedup
 SCF:
 * wall-time:     0 d,  0 h,  0 min,  0.086 sec
 *  cpu-time:     0 d,  0 h,  0 min,  0.085 sec
 * ratio c/w:     0.995 speedup


