42
 energy: -71.305242452727 gnorm: 0.000488561444 xtb: 6.7.1 (edcfbbe)
O           -5.78160896096215       -2.03813522411624       -1.21524072788135
C           -5.22541855575652       -1.11474338399197       -0.68804812661462
O           -5.93536396358622       -0.09021212425507       -0.14156385678711
C           -3.77383550298357       -0.93153229071038       -0.52662103984705
C           -3.31233146880144       -0.06370225779111        0.41373120393928
N           -2.00939306674378        0.16876103537660        0.66729290476343
C           -1.03771430629603       -0.55155772602947       -0.01138768515812
C            0.31394183179287       -0.38909091479070        0.28664609195540
C            1.31980359449699       -1.08365962481728       -0.38941836126533
N            2.64859198328629       -0.97205106627550       -0.05702132801755
C            3.06182224328251       -0.32045134672363        1.16846108290367
C            3.36666426844839        1.16951831125452        0.93272068861251
N            4.36092611002912        1.35398679615300       -0.10793133407720
C            3.97095921576334        0.65509795332754       -1.31865948752612
C            3.67137582994461       -0.83678409693267       -1.07901951061573
C            0.88269070401251       -1.98368204540494       -1.38779467315869
F            1.78765052763745       -2.74621258002898       -2.05155070446214
C           -0.43766434274994       -2.15393182373285       -1.69575981609462
C           -1.43229639779157       -1.44404557932073       -1.01803207722574
C           -2.84134790892073       -1.67836761163778       -1.37722811602591
O           -3.16299050184673       -2.40505702755684       -2.29759621942288
C           -1.64785240162512        1.13263609892098        1.66481595224107
C           -2.35954794149241        2.45161128250505        1.69996750730162
C           -0.93470475320185        2.38820590294486        1.24730067961562
H           -6.87910201257988       -0.26546141843880       -0.27837078566338
H           -4.01228758151800        0.48473337179478        1.02760397199203
H            0.58940082350435        0.30836871930157        1.05711069613956
H            3.98154606483941       -0.81936945933338        1.49978471357147
H            2.30823622975102       -0.46335920813712        1.94231212209370
H            2.45881007675859        1.68755850905269        0.60893586310136
H            3.72636227813673        1.63512656732466        1.85224029898030
H            5.25989694652599        1.00366075375771        0.21211807491740
H            3.07000963455260        1.14339043945865       -1.70458550139290
H            4.76717826827717        0.76196421197412       -2.05702177165657
H            3.36075291453399       -1.29929070600679       -2.01086055814918
H            4.57617002478102       -1.34503889554523       -0.72530325320216
H           -0.73769173984966       -2.85703359375933       -2.45712217211124
H           -1.36745236291287        0.68376168734889        2.61389343154945
H           -3.11197333036586        2.64375312245870        0.95126876773973
H           -2.58231261166813        2.88107174814025        2.66413413083621
H           -0.16132381362408        2.77827502596367        1.89126233874355
H           -0.73857604507861        2.52128846827852        0.19453658535817
