39
 energy: -51.133634554126 gnorm: 0.000155789286 xtb: 6.7.1 (edcfbbe)
C            1.14593812746106       -1.99677846047218       -1.41464254960991
C            2.16202120535177       -1.22430915298203       -0.62491798689388
C            3.46414504881969       -1.68147243844876       -0.50618559244891
C            4.39986742774150       -0.96188766009770        0.21556124748789
C            4.02857891458019        0.21000934663945        0.84543668839543
C            2.72831018562749        0.69235730655681        0.76273965307913
C            2.33553994245033        1.93103255004485        1.50196034452987
C            1.80306284194819       -0.02320453547786       -0.00122514928404
N            0.46931642358154        0.40855891611864       -0.13643218020135
C            0.00952403809795        1.60473598373573       -0.55799936181659
C           -1.51530151655516        1.60738488871735       -0.71481674600586
N           -2.13753245533994        0.45739872633502       -0.08484585175035
C           -3.33233950528278        0.00157589941753       -0.78196082351018
C           -2.96759869501409       -0.87242136403899       -1.97793702473853
C           -2.33463922130836        0.65174196941309        1.34664421804003
C           -2.26023645328878       -0.66917051717345        2.10636185239473
O            0.68202624981534        2.57668318689845       -0.82934560577274
H            1.61930559446365       -2.82885659035152       -1.92927093521024
H            0.66564174547170       -1.35786770370200       -2.15469578006331
H            0.37113382405289       -2.39988946375349       -0.76002497752000
H            3.74897495179196       -2.60435567700310       -0.99053221930686
H            5.41525776096923       -1.32091611979714        0.29329445245803
H            4.75545445908622        0.76155115161628        1.42383982193470
H            1.42137831342424        1.76140408064272        2.07080070456908
H            3.12517369877773        2.23753329533131        2.18310981370761
H            2.13801806678433        2.74018538470475        0.79953048855486
H           -0.25761853706309       -0.30146483077633       -0.09642390333387
H           -1.90031027106114        2.56729436872178       -0.33880101076030
H           -1.70990402252990        1.58623741686200       -1.79007921268955
H           -3.92969119354947       -0.59125037913732       -0.08707594411806
H           -3.95314160377885        0.84974242630433       -1.11264775222195
H           -3.87096696578581       -1.22155609999787       -2.47139188389255
H           -2.39394525010826       -1.73491490651320       -1.64835254400739
H           -2.37339958997746       -0.32163343547974       -2.70278298742769
H           -1.53787557607517        1.30578575681349        1.70821022324883
H           -3.29604240849288        1.14846868196714        1.55453370184658
H           -1.28345717793704       -1.12763182610774        1.97204490520203
H           -3.01843654378588       -1.36742322123589        1.76103728508007
H           -2.41623183336388       -0.49237695429777        3.16738262206468
