----- Optimization -----
      -----------------------------------------------------------      
     |                   =====================                   |     
     |                           x T B                           |     
     |                   =====================                   |     
     |                         S. Grimme                         |     
     |          Mulliken Center for Theoretical Chemistry        |     
     |                    University of Bonn                     |     
      -----------------------------------------------------------      

   * xtb version 6.7.1 (edcfbbe) compiled by 'conda@3ef47c1a292c' on 2024-11-25

   xtb is free software: you can redistribute it and/or modify it under
   the terms of the GNU Lesser General Public License as published by
   the Free Software Foundation, either version 3 of the License, or
   (at your option) any later version.
   
   xtb is distributed in the hope that it will be useful,
   but WITHOUT ANY WARRANTY; without even the implied warranty of
   MERCHANTABILITY or FITNESS FOR A PARTICULAR PURPOSE.  See the
   GNU Lesser General Public License for more details.
   
   Cite this work as:
   * C. Bannwarth, E. Caldeweyher, S. Ehlert, A. Hansen, P. Pracht,
     J. Seibert, S. Spicher, S. Grimme, WIREs Comput. Mol. Sci., 2020, 11,
     e01493. DOI: 10.1002/wcms.1493
   
   for GFN2-xTB:
   * C. Bannwarth, S. Ehlert and S. Grimme., J. Chem. Theory Comput., 2019,
     15, 1652-1671. DOI: 10.1021/acs.jctc.8b01176
   for GFN1-xTB:
   * S. Grimme, C. Bannwarth, P. Shushkov, J. Chem. Theory Comput., 2017,
     13, 1989-2009. DOI: 10.1021/acs.jctc.7b00118
   for GFN0-xTB:
   * P. Pracht, E. Caldeweyher, S. Ehlert, S. Grimme, ChemRxiv, 2019, preprint.
     DOI: 10.26434/chemrxiv.8326202.v1
   for GFN-FF:
   * S. Spicher and S. Grimme, Angew. Chem. Int. Ed., 2020, 59, 15665-15673.
     DOI: 10.1002/anie.202004239
   
   for ALPB and GBSA implicit solvation:
   * S. Ehlert, M. Stahn, S. Spicher, S. Grimme, J. Chem. Theory Comput.,
     2021, 17, 4250-4261. DOI: 10.1021/acs.jctc.1c00471
   
   for ddCOSMO and CPCM-X implicit solvation:
   * M. Stahn, S. Ehlert, S. Grimme, J. Phys. Chem. A,
     2023, XX, XXXX-XXXX. DOI: 10.1021/acs.jpca.3c04382
   
   for DFT-D4:
   * E. Caldeweyher, C. Bannwarth and S. Grimme, J. Chem. Phys., 2017,
     147, 034112. DOI: 10.1063/1.4993215
   * E. Caldeweyher, S. Ehlert, A. Hansen, H. Neugebauer, S. Spicher,
     C. Bannwarth and S. Grimme, J. Chem. Phys., 2019, 150, 154122.
     DOI: 10.1063/1.5090222
   * E. Caldeweyher, J.-M. Mewes, S. Ehlert and S. Grimme, Phys. Chem. Chem. Phys.
     2020, 22, 8499-8512. DOI: 10.1039/D0CP00502A
   
   for sTDA-xTB:
   * S. Grimme and C. Bannwarth, J. Chem. Phys., 2016, 145, 054103.
     DOI: 10.1063/1.4959605
   
   in the mass-spec context:
   * V. Asgeirsson, C. Bauer and S. Grimme, Chem. Sci., 2017, 8, 4879.
     DOI: 10.1039/c7sc00601b
   * J. Koopman and S. Grimme, ACS Omega 2019, 4, 12, 15120-15133.
     DOI: 10.1021/acsomega.9b02011
   
   for metadynamics refer to:
   * S. Grimme, J. Chem. Theory Comput., 2019, 155, 2847-2862
     DOI: 10.1021/acs.jctc.9b00143
   
   for SPH calculations refer to:
   * S. Spicher and S. Grimme, J. Chem. Theory Comput., 2021, 17, 1701-1714
     DOI: 10.1021/acs.jctc.0c01306
   
   for ONIOM refer to:
   * C. Plett, A. Katbashev, S. Ehlert, S. Grimme, M. Bursch,
     Phys. Chem. Chem. Phys., 2023, 25, 17860-17868. DOI: 10.1039/D3CP02178E
   
   for DIPRO refer to:
   * J. Kohn, N. Gildemeister, S. Grimme, D. Fazzi, A. Hansen,
     J. Chem. Phys., 2023, just accepted.
   
   for PTB refer to:
   * S. Grimme, M. Mueller, A. Hansen, J. Chem. Phys., 2023, 158, 124111.
     DOI: 10.1063/5.0137838
   
   with help from (in alphabetical order)
   P. Atkinson, C. Bannwarth, F. Bohle, G. Brandenburg, E. Caldeweyher
   M. Checinski, S. Dohm, S. Ehlert, S. Ehrlich, I. Gerasimov, C. Hölzer
   A. Katbashev, J. Kohn, J. Koopman, C. Lavigne, S. Lehtola, F. März, M. Müller,
   F. Musil, H. Neugebauer, J. Pisarek, C. Plett, P. Pracht, F. Pultar,
   J. Seibert, P. Shushkov, S. Spicher, M. Stahn, M. Steiner, T. Strunk,
   J. Stückrath, T. Rose, and J. Unsleber
   
 * started run on 2025/05/15 at 16:07:19.341     
   ID    Z sym.   atoms
    1    6 C      1-8, 10, 11, 13-16
    2    7 N      9, 12
    3    8 O      17
    4    1 H      18-39

           -------------------------------------------------
          |                Calculation Setup                |
           -------------------------------------------------

          program call               : xtb /rds/general/user/hgt20/home/callum/QDESCP/Lidocaine_rdkit_conf_3/Lidocaine_rdkit_conf_3.xyz --opt normal --acc 1 --gfn 2 --chrg 0 --uhf 0 -P 1
          hostname                   : login-c
          coordinate file            : /rds/general/user/hgt20/home/callum/QDESCP/Lidocaine_rdkit_conf_3/Lidocaine_rdkit_conf_3.xyz
          omp threads                :                     1


           -------------------------------------------------
          |                 G F N 2 - x T B                 |
           -------------------------------------------------

        Reference                      10.1021/acs.jctc.8b01176
      * Hamiltonian:
        H0-scaling (s, p, d)           1.850000    2.230000    2.230000
        zeta-weighting                 0.500000
      * Dispersion:
        s8                             2.700000
        a1                             0.520000
        a2                             5.000000
        s9                             5.000000
      * Repulsion:
        kExp                           1.500000    1.000000
        rExp                           1.000000
      * Coulomb:
        alpha                          2.000000
        third order                    shell-resolved
        anisotropic                    true
        a3                             3.000000
        a5                             4.000000
        cn-shift                       1.200000
        cn-exp                         4.000000
        max-rad                        5.000000


          ...................................................
          :                      SETUP                      :
          :.................................................:
          :  # basis functions                  90          :
          :  # atomic orbitals                  90          :
          :  # shells                           56          :
          :  # electrons                        94          :
          :  max. iterations                   250          :
          :  Hamiltonian                  GFN2-xTB          :
          :  restarted?                      false          :
          :  GBSA solvation                  false          :
          :  PC potential                    false          :
          :  electronic temp.          300.0000000     K    :
          :  accuracy                    1.0000000          :
          :  -> integral cutoff          0.2500000E+02      :
          :  -> integral neglect         0.1000000E-07      :
          :  -> SCF convergence          0.1000000E-05 Eh   :
          :  -> wf. convergence          0.1000000E-03 e    :
          :  Broyden damping             0.4000000          :
          :  net charge                          0          :
          :  unpaired electrons                  0          :
          ...................................................

 iter      E             dE          RMSdq      gap      omega  full diag
   1    -51.7370418 -0.517370E+02  0.351E+00    3.53       0.0  T
   2    -51.8252508 -0.882090E-01  0.202E+00    3.76       1.0  T
   3    -51.8277865 -0.253572E-02  0.986E-01    3.75       1.0  T
   4    -51.8300221 -0.223562E-02  0.229E-01    3.65       1.0  T
   5    -51.8315719 -0.154972E-02  0.896E-02    3.70       1.0  T
   6    -51.8317287 -0.156819E-03  0.436E-02    3.71       1.0  T
   7    -51.8317466 -0.179734E-04  0.198E-02    3.70       1.0  T
   8    -51.8317515 -0.482166E-05  0.508E-03    3.70       3.2  T
   9    -51.8317516 -0.977058E-07  0.228E-03    3.70       7.0  T
  10    -51.8317517 -0.851289E-07  0.109E-03    3.70      14.7  T
  11    -51.8317517 -0.614215E-08  0.408E-04    3.70      39.3  T
  12    -51.8317517 -0.789932E-09  0.983E-05    3.70     162.9  T

   *** convergence criteria satisfied after 12 iterations ***

         #    Occupation            Energy/Eh            Energy/eV
      -------------------------------------------------------------
         1        2.0000           -0.6891982             -18.7540
       ...           ...                  ...                  ...
        41        2.0000           -0.4314144             -11.7394
        42        2.0000           -0.4191445             -11.4055
        43        2.0000           -0.4178489             -11.3702
        44        2.0000           -0.3908879             -10.6366
        45        2.0000           -0.3807864             -10.3617
        46        2.0000           -0.3724278             -10.1343
        47        2.0000           -0.3660635              -9.9611 (HOMO)
        48                         -0.2299348              -6.2568 (LUMO)
        49                         -0.2162621              -5.8848
        50                         -0.1893967              -5.1537
        51                         -0.0916248              -2.4932
        52                         -0.0191448              -0.5210
       ...                                ...                  ...
        90                          0.6415236              17.4567
      -------------------------------------------------------------
                  HL-Gap            0.1361287 Eh            3.7042 eV
             Fermi-level           -0.2979992 Eh           -8.1090 eV

 SCC (total)                   0 d,  0 h,  0 min,  0.056 sec
 SCC setup                      ...        0 min,  0.000 sec (  0.496%)
 Dispersion                     ...        0 min,  0.000 sec (  0.657%)
 classical contributions        ...        0 min,  0.000 sec (  0.216%)
 integral evaluation            ...        0 min,  0.006 sec ( 10.319%)
 iterations                     ...        0 min,  0.031 sec ( 54.780%)
 molecular gradient             ...        0 min,  0.019 sec ( 33.282%)
 printout                       ...        0 min,  0.000 sec (  0.238%)

         :::::::::::::::::::::::::::::::::::::::::::::::::::::
         ::                     SUMMARY                     ::
         :::::::::::::::::::::::::::::::::::::::::::::::::::::
         :: total energy             -51.121792331955 Eh    ::
         :: gradient norm              0.062062823299 Eh/a0 ::
         :: HOMO-LUMO gap              3.704249857566 eV    ::
         ::.................................................::
         :: SCC energy               -51.831146575860 Eh    ::
         :: -> isotropic ES            0.046836467058 Eh    ::
         :: -> anisotropic ES          0.008855582332 Eh    ::
         :: -> anisotropic XC          0.029353973588 Eh    ::
         :: -> dispersion             -0.036164271872 Eh    ::
         :: repulsion energy           0.709354243905 Eh    ::
         :: add. restraining           0.000000000000 Eh    ::
         :: total charge              -0.000000000000 e     ::
         :::::::::::::::::::::::::::::::::::::::::::::::::::::

      ----------------------------------------------------------- 
     |                   =====================                   |
     |                        A N C O P T                        |
     |                   =====================                   |
     |               Approximate Normal Coordinate               |
     |                Rational Function Optimizer                |
      ----------------------------------------------------------- 
      ----------------------------------------------------------- 
     |                   =====================                   |
     |                        A N C O P T                        |
     |                   =====================                   |
     |               Approximate Normal Coordinate               |
     |                Rational Function Optimizer                |
      ----------------------------------------------------------- 

          ...................................................
          :                      SETUP                      :
          :.................................................:
          :   optimization level            normal          :
          :   max. optcycles                   200          :
          :   ANC micro-cycles                  20          :
          :   degrees of freedom               111          :
          :.................................................:
          :   RF solver                   davidson          :
          :   write xtbopt.log                true          :
          :   linear?                        false          :
          :   energy convergence         0.5000000E-05 Eh   :
          :   grad. convergence          0.1000000E-02 Eh/α :
          :   maxmium RF displ.          1.0000000          :
          :   Hlow (freq-cutoff)         0.1000000E-01      :
          :   Hmax (freq-cutoff)         5.0000000          :
          :   S6 in model hess.         20.0000000          :
          ...................................................

generating ANC from exact Hessian ...
Using Lindh-Hessian (1995)
 Shifting diagonal of input Hessian by    9.7057288671124030E-003
 Lowest  eigenvalues of input Hessian
    0.000000    0.000000    0.000000    0.000000    0.000000    0.000000
    0.010000    0.010080    0.010508    0.011072    0.011831    0.012524
    0.012993    0.014891    0.015201    0.015619    0.016341    0.017646
 Highest eigenvalues
    1.555124    1.800864    1.828294    1.933018    2.019498    2.253882


........................................................................
.............................. CYCLE    1 ..............................
........................................................................

 iter      E             dE          RMSdq      gap      omega  full diag
   1    -51.8317517 -0.518318E+02  0.502E-05    3.70       0.0  T
   2    -51.8317517 -0.150138E-10  0.291E-05    3.70     551.0  T
   3    -51.8317517 -0.905942E-11  0.189E-05    3.70     849.0  T
     SCC iter.                  ...        0 min,  0.005 sec
     gradient                   ...        0 min,  0.019 sec
 * total energy  :   -51.1217923 Eh     change       -0.1592966E-09 Eh
   gradient norm :     0.0620627 Eh/α   predicted     0.0000000E+00 (-100.00%)
   displ. norm   :     0.2904791 α      lambda       -0.9507405E-02
   maximum displ.:     0.0937721 α      in ANC's #11, #36, #35, ...

........................................................................
.............................. CYCLE    2 ..............................
........................................................................

 iter      E             dE          RMSdq      gap      omega  full diag
   1    -51.8715617 -0.518716E+02  0.182E-01    3.78       0.0  T
   2    -51.8716048 -0.430991E-04  0.110E-01    3.77       1.0  T
   3    -51.8715926  0.122255E-04  0.296E-02    3.77       1.0  T
   4    -51.8716124 -0.197476E-04  0.458E-03    3.76       3.5  T
   5    -51.8716126 -0.217330E-06  0.261E-03    3.76       6.1  T
   6    -51.8716126 -0.346320E-07  0.126E-03    3.76      12.7  T
   7    -51.8716127 -0.380452E-07  0.410E-04    3.76      39.1  T
   8    -51.8716127 -0.116430E-08  0.157E-04    3.76     101.8  T
     SCC iter.                  ...        0 min,  0.027 sec
     gradient                   ...        0 min,  0.019 sec
 * total energy  :   -51.1281531 Eh     change       -0.6360759E-02 Eh
   gradient norm :     0.0221116 Eh/α   predicted    -0.5154869E-02 ( -18.96%)
   displ. norm   :     0.2933871 α      lambda       -0.2534286E-02
   maximum displ.:     0.1449168 α      in ANC's #11, #8, #15, ...

........................................................................
.............................. CYCLE    3 ..............................
........................................................................

 iter      E             dE          RMSdq      gap      omega  full diag
   1    -51.8881949 -0.518882E+02  0.113E-01    3.76       0.0  T
   2    -51.8882211 -0.262776E-04  0.671E-02    3.77       1.0  T
   3    -51.8882174  0.376663E-05  0.204E-02    3.77       1.0  T
   4    -51.8882234 -0.599452E-05  0.514E-03    3.77       3.1  T
   5    -51.8882242 -0.845915E-06  0.175E-03    3.77       9.1  T
   6    -51.8882242 -0.252616E-07  0.829E-04    3.77      19.3  T
   7    -51.8882242 -0.606933E-08  0.263E-04    3.77      60.9  T
     SCC iter.                  ...        0 min,  0.010 sec
     gradient                   ...        0 min,  0.018 sec
 * total energy  :   -51.1297874 Eh     change       -0.1634284E-02 Eh
   gradient norm :     0.0081453 Eh/α   predicted    -0.1376868E-02 ( -15.75%)
   displ. norm   :     0.2970044 α      lambda       -0.9524628E-03
   maximum displ.:     0.1515464 α      in ANC's #11, #8, #1, ...

........................................................................
.............................. CYCLE    4 ..............................
........................................................................

 iter      E             dE          RMSdq      gap      omega  full diag
   1    -51.8907001 -0.518907E+02  0.829E-02    3.75       0.0  T
   2    -51.8907119 -0.117372E-04  0.478E-02    3.76       1.0  T
   3    -51.8907092  0.269332E-05  0.155E-02    3.76       1.0  T
   4    -51.8907132 -0.401437E-05  0.404E-03    3.76       4.0  T
   5    -51.8907137 -0.454862E-06  0.128E-03    3.76      12.5  T
   6    -51.8907137 -0.767558E-08  0.488E-04    3.76      32.8  T
   7    -51.8907137 -0.105403E-08  0.215E-04    3.76      74.5  T
     SCC iter.                  ...        0 min,  0.036 sec
     gradient                   ...        0 min,  0.019 sec
 * total energy  :   -51.1305342 Eh     change       -0.7468432E-03 Eh
   gradient norm :     0.0086395 Eh/α   predicted    -0.5182422E-03 ( -30.61%)
   displ. norm   :     0.4534273 α      lambda       -0.1076315E-02
   maximum displ.:     0.2019865 α      in ANC's #11, #8, #1, ...

........................................................................
.............................. CYCLE    5 ..............................
........................................................................

 iter      E             dE          RMSdq      gap      omega  full diag
   1    -51.8884742 -0.518885E+02  0.117E-01    3.74       0.0  T
   2    -51.8884868 -0.125321E-04  0.678E-02    3.75       1.0  T
   3    -51.8884782  0.853002E-05  0.212E-02    3.75       1.0  T
   4    -51.8884897 -0.114706E-04  0.419E-03    3.75       3.8  T
   5    -51.8884900 -0.337663E-06  0.169E-03    3.75       9.5  T
   6    -51.8884901 -0.121608E-07  0.673E-04    3.75      23.8  T
   7    -51.8884901 -0.182528E-08  0.296E-04    3.75      54.0  T
     SCC iter.                  ...        0 min,  0.010 sec
     gradient                   ...        0 min,  0.019 sec
 * total energy  :   -51.1312992 Eh     change       -0.7650094E-03 Eh
   gradient norm :     0.0120921 Eh/α   predicted    -0.6488047E-03 ( -15.19%)
   displ. norm   :     0.3554953 α      lambda       -0.6254345E-03
   maximum displ.:     0.1614757 α      in ANC's #1, #8, #11, ...

........................................................................
.............................. CYCLE    6 ..............................
........................................................................

 iter      E             dE          RMSdq      gap      omega  full diag
   1    -51.8872385 -0.518872E+02  0.826E-02    3.76       0.0  T
   2    -51.8872420 -0.351084E-05  0.483E-02    3.75       1.0  T
   3    -51.8872374  0.459549E-05  0.142E-02    3.75       1.1  T
   4    -51.8872433 -0.586837E-05  0.220E-03    3.75       7.3  T
   5    -51.8872433 -0.601560E-07  0.107E-03    3.75      14.9  T
   6    -51.8872433 -0.366546E-08  0.453E-04    3.75      35.3  T
   7    -51.8872433 -0.212945E-08  0.161E-04    3.75      99.4  T
     SCC iter.                  ...        0 min,  0.043 sec
     gradient                   ...        0 min,  0.019 sec
 * total energy  :   -51.1317531 Eh     change       -0.4538628E-03 Eh
   gradient norm :     0.0095920 Eh/α   predicted    -0.3522391E-03 ( -22.39%)
   displ. norm   :     0.3078907 α      lambda       -0.4575390E-03
   maximum displ.:     0.1672754 α      in ANC's #1, #2, #8, ...

........................................................................
.............................. CYCLE    7 ..............................
........................................................................

 iter      E             dE          RMSdq      gap      omega  full diag
   1    -51.8878885 -0.518879E+02  0.699E-02    3.77       0.0  T
   2    -51.8878912 -0.269243E-05  0.410E-02    3.76       1.0  T
   3    -51.8878892  0.202790E-05  0.971E-03    3.76       1.6  T
   4    -51.8878918 -0.260392E-05  0.199E-03    3.76       8.1  T
   5    -51.8878919 -0.749595E-07  0.863E-04    3.76      18.6  T
   6    -51.8878919 -0.252074E-08  0.384E-04    3.76      41.7  T
     SCC iter.                  ...        0 min,  0.009 sec
     gradient                   ...        0 min,  0.019 sec
 * total energy  :   -51.1320958 Eh     change       -0.3426878E-03 Eh
   gradient norm :     0.0062723 Eh/α   predicted    -0.2504572E-03 ( -26.91%)
   displ. norm   :     0.3288502 α      lambda       -0.3624260E-03
   maximum displ.:     0.1842830 α      in ANC's #1, #2, #16, ...

........................................................................
.............................. CYCLE    8 ..............................
........................................................................

 iter      E             dE          RMSdq      gap      omega  full diag
   1    -51.8888006 -0.518888E+02  0.703E-02    3.78       0.0  T
   2    -51.8888028 -0.224845E-05  0.414E-02    3.77       1.0  T
   3    -51.8888014  0.145135E-05  0.777E-03    3.77       2.1  T
   4    -51.8888032 -0.186391E-05  0.190E-03    3.77       8.4  T
   5    -51.8888033 -0.859369E-07  0.831E-04    3.77      19.3  T
   6    -51.8888033 -0.184542E-08  0.294E-04    3.77      54.5  T
     SCC iter.                  ...        0 min,  0.042 sec
     gradient                   ...        0 min,  0.019 sec
 * total energy  :   -51.1323693 Eh     change       -0.2735064E-03 Eh
   gradient norm :     0.0048092 Eh/α   predicted    -0.2008104E-03 ( -26.58%)
   displ. norm   :     0.3172685 α      lambda       -0.2735905E-03
   maximum displ.:     0.1803458 α      in ANC's #1, #2, #7, ...

........................................................................
.............................. CYCLE    9 ..............................
........................................................................

 iter      E             dE          RMSdq      gap      omega  full diag
   1    -51.8902885 -0.518903E+02  0.635E-02    3.78       0.0  T
   2    -51.8902898 -0.124500E-05  0.373E-02    3.78       1.0  T
   3    -51.8902888  0.975810E-06  0.547E-03    3.78       2.9  T
   4    -51.8902901 -0.124293E-05  0.148E-03    3.78      10.8  T
   5    -51.8902901 -0.574684E-07  0.687E-04    3.78      23.3  T
   6    -51.8902901 -0.143153E-08  0.209E-04    3.78      76.7  T
     SCC iter.                  ...        0 min,  0.009 sec
     gradient                   ...        0 min,  0.019 sec
 * total energy  :   -51.1325707 Eh     change       -0.2014612E-03 Eh
   gradient norm :     0.0043356 Eh/α   predicted    -0.1505658E-03 ( -25.26%)
   displ. norm   :     0.2974067 α      lambda       -0.1836220E-03
   maximum displ.:     0.1641211 α      in ANC's #1, #2, #7, ...

........................................................................
.............................. CYCLE   10 ..............................
........................................................................

 iter      E             dE          RMSdq      gap      omega  full diag
   1    -51.8905463 -0.518905E+02  0.547E-02    3.77       0.0  T
   2    -51.8905472 -0.911042E-06  0.323E-02    3.77       1.0  T
   3    -51.8905467  0.555970E-06  0.425E-03    3.78       3.8  T
   4    -51.8905474 -0.721183E-06  0.133E-03    3.77      12.1  T
   5    -51.8905474 -0.535489E-07  0.589E-04    3.77      27.2  T
   6    -51.8905474 -0.110096E-08  0.142E-04    3.77     113.1  T
     SCC iter.                  ...        0 min,  0.036 sec
     gradient                   ...        0 min,  0.019 sec
 * total energy  :   -51.1327067 Eh     change       -0.1359630E-03 Eh
   gradient norm :     0.0037955 Eh/α   predicted    -0.9993436E-04 ( -26.50%)
   displ. norm   :     0.2664769 α      lambda       -0.1605104E-03
   maximum displ.:     0.1415364 α      in ANC's #1, #2, #7, ...

........................................................................
.............................. CYCLE   11 ..............................
........................................................................

 iter      E             dE          RMSdq      gap      omega  full diag
   1    -51.8929553 -0.518930E+02  0.461E-02    3.77       0.0  T
   2    -51.8929565 -0.121226E-05  0.270E-02    3.77       1.0  T
   3    -51.8929561  0.348220E-06  0.461E-03    3.77       3.5  T
   4    -51.8929567 -0.516179E-06  0.124E-03    3.77      12.9  T
   5    -51.8929567 -0.273390E-07  0.560E-04    3.77      28.6  T
   6    -51.8929567 -0.150328E-08  0.227E-04    3.77      70.5  T
     SCC iter.                  ...        0 min,  0.009 sec
     gradient                   ...        0 min,  0.019 sec
 * total energy  :   -51.1328120 Eh     change       -0.1052560E-03 Eh
   gradient norm :     0.0061594 Eh/α   predicted    -0.8595487E-04 ( -18.34%)
   displ. norm   :     0.3175738 α      lambda       -0.1587470E-03
   maximum displ.:     0.1655483 α      in ANC's #1, #2, #7, ...

........................................................................
.............................. CYCLE   12 ..............................
........................................................................

 iter      E             dE          RMSdq      gap      omega  full diag
   1    -51.8906337 -0.518906E+02  0.584E-02    3.74       0.0  T
   2    -51.8906372 -0.354459E-05  0.342E-02    3.74       1.0  T
   3    -51.8906364  0.789161E-06  0.746E-03    3.74       2.1  T
   4    -51.8906376 -0.117766E-05  0.173E-03    3.74       9.2  T
   5    -51.8906377 -0.863539E-07  0.795E-04    3.74      20.1  T
   6    -51.8906377 -0.678095E-08  0.302E-04    3.74      53.0  T
     SCC iter.                  ...        0 min,  0.009 sec
     gradient                   ...        0 min,  0.040 sec
 * total energy  :   -51.1328978 Eh     change       -0.8587365E-04 Eh
   gradient norm :     0.0041873 Eh/α   predicted    -0.8738512E-04 (   1.76%)
   displ. norm   :     0.1801246 α      lambda       -0.1161015E-03
   maximum displ.:     0.0967363 α      in ANC's #2, #1, #7, ...

........................................................................
.............................. CYCLE   13 ..............................
........................................................................

 iter      E             dE          RMSdq      gap      omega  full diag
   1    -51.8918474 -0.518918E+02  0.372E-02    3.73       0.0  T
   2    -51.8918488 -0.140319E-05  0.220E-02    3.73       1.0  T
   3    -51.8918484  0.445326E-06  0.456E-03    3.74       3.5  T
   4    -51.8918490 -0.583762E-06  0.120E-03    3.73      13.3  T
   5    -51.8918490 -0.498915E-07  0.492E-04    3.73      32.6  T
   6    -51.8918490 -0.416309E-08  0.218E-04    3.73      73.5  T
     SCC iter.                  ...        0 min,  0.009 sec
     gradient                   ...        0 min,  0.019 sec
 * total energy  :   -51.1329803 Eh     change       -0.8248263E-04 Eh
   gradient norm :     0.0050905 Eh/α   predicted    -0.5993504E-04 ( -27.34%)
   displ. norm   :     0.2170780 α      lambda       -0.1317265E-03
   maximum displ.:     0.1226594 α      in ANC's #2, #1, #4, ...

........................................................................
.............................. CYCLE   14 ..............................
........................................................................

 iter      E             dE          RMSdq      gap      omega  full diag
   1    -51.8929255 -0.518929E+02  0.497E-02    3.72       0.0  T
   2    -51.8929283 -0.279882E-05  0.289E-02    3.72       1.0  T
   3    -51.8929282  0.694922E-07  0.555E-03    3.72       2.9  T
   4    -51.8929285 -0.306588E-06  0.123E-03    3.72      13.0  T
   5    -51.8929285 -0.231670E-07  0.651E-04    3.72      24.6  T
   6    -51.8929285 -0.360288E-08  0.223E-04    3.72      72.0  T
     SCC iter.                  ...        0 min,  0.009 sec
     gradient                   ...        0 min,  0.019 sec
 * total energy  :   -51.1330579 Eh     change       -0.7753070E-04 Eh
   gradient norm :     0.0041085 Eh/α   predicted    -0.6896995E-04 ( -11.04%)
   displ. norm   :     0.2007178 α      lambda       -0.9395724E-04
   maximum displ.:     0.1220787 α      in ANC's #2, #1, #16, ...

........................................................................
.............................. CYCLE   15 ..............................
........................................................................

 iter      E             dE          RMSdq      gap      omega  full diag
   1    -51.8918157 -0.518918E+02  0.435E-02    3.72       0.0  T
   2    -51.8918169 -0.114361E-05  0.254E-02    3.72       1.0  T
   3    -51.8918167  0.156932E-06  0.394E-03    3.71       4.1  T
   4    -51.8918170 -0.295787E-06  0.115E-03    3.71      14.0  T
   5    -51.8918171 -0.347086E-07  0.578E-04    3.71      27.7  T
   6    -51.8918171 -0.195584E-08  0.178E-04    3.72      89.9  T
     SCC iter.                  ...        0 min,  0.009 sec
     gradient                   ...        0 min,  0.019 sec
 * total energy  :   -51.1331189 Eh     change       -0.6103097E-04 Eh
   gradient norm :     0.0028416 Eh/α   predicted    -0.4887231E-04 ( -19.92%)
   displ. norm   :     0.1366176 α      lambda       -0.6569515E-04
   maximum displ.:     0.0858914 α      in ANC's #2, #1, #3, ...

........................................................................
.............................. CYCLE   16 ..............................
........................................................................

 iter      E             dE          RMSdq      gap      omega  full diag
   1    -51.8915481 -0.518915E+02  0.284E-02    3.72       0.0  T
   2    -51.8915485 -0.389301E-06  0.167E-02    3.72       1.0  T
   3    -51.8915484  0.665347E-07  0.235E-03    3.72       6.8  T
   4    -51.8915485 -0.129985E-06  0.757E-04    3.72      21.1  T
   5    -51.8915486 -0.945270E-08  0.379E-04    3.72      42.2  T
     SCC iter.                  ...        0 min,  0.007 sec
     gradient                   ...        0 min,  0.019 sec
 * total energy  :   -51.1331723 Eh     change       -0.5338018E-04 Eh
   gradient norm :     0.0024416 Eh/α   predicted    -0.3346093E-04 ( -37.32%)
   displ. norm   :     0.2048322 α      lambda       -0.9704625E-04
   maximum displ.:     0.1215504 α      in ANC's #2, #1, #3, ...

........................................................................
.............................. CYCLE   17 ..............................
........................................................................

 iter      E             dE          RMSdq      gap      omega  full diag
   1    -51.8915314 -0.518915E+02  0.389E-02    3.72       0.0  T
   2    -51.8915320 -0.564914E-06  0.230E-02    3.73       1.0  T
   3    -51.8915317  0.323649E-06  0.335E-03    3.73       4.8  T
   4    -51.8915321 -0.454205E-06  0.104E-03    3.73      15.4  T
   5    -51.8915321 -0.219962E-07  0.489E-04    3.73      32.8  T
   6    -51.8915322 -0.186750E-08  0.202E-04    3.73      79.1  T
     SCC iter.                  ...        0 min,  0.009 sec
     gradient                   ...        0 min,  0.019 sec
 * total energy  :   -51.1332441 Eh     change       -0.7182685E-04 Eh
   gradient norm :     0.0031150 Eh/α   predicted    -0.5056275E-04 ( -29.60%)
   displ. norm   :     0.2038827 α      lambda       -0.6502528E-04
   maximum displ.:     0.1241370 α      in ANC's #2, #1, #3, ...

........................................................................
.............................. CYCLE   18 ..............................
........................................................................

 iter      E             dE          RMSdq      gap      omega  full diag
   1    -51.8912747 -0.518913E+02  0.364E-02    3.73       0.0  T
   2    -51.8912750 -0.350265E-06  0.214E-02    3.73       1.0  T
   3    -51.8912747  0.337424E-06  0.319E-03    3.74       5.0  T
   4    -51.8912751 -0.438743E-06  0.809E-04    3.74      19.8  T
   5    -51.8912751 -0.128934E-07  0.389E-04    3.74      41.2  T
     SCC iter.                  ...        0 min,  0.007 sec
     gradient                   ...        0 min,  0.019 sec
 * total energy  :   -51.1332936 Eh     change       -0.4951174E-04 Eh
   gradient norm :     0.0032254 Eh/α   predicted    -0.3386789E-04 ( -31.60%)
   displ. norm   :     0.1899519 α      lambda       -0.5359543E-04
   maximum displ.:     0.1174879 α      in ANC's #2, #1, #3, ...

........................................................................
.............................. CYCLE   19 ..............................
........................................................................

 iter      E             dE          RMSdq      gap      omega  full diag
   1    -51.8917467 -0.518917E+02  0.340E-02    3.74       0.0  T
   2    -51.8917471 -0.333844E-06  0.200E-02    3.74       1.0  T
   3    -51.8917468  0.296030E-06  0.314E-03    3.74       5.1  T
   4    -51.8917471 -0.376586E-06  0.771E-04    3.74      20.8  T
   5    -51.8917472 -0.149849E-07  0.340E-04    3.74      47.1  T
     SCC iter.                  ...        0 min,  0.007 sec
     gradient                   ...        0 min,  0.026 sec
 * total energy  :   -51.1333367 Eh     change       -0.4310723E-04 Eh
   gradient norm :     0.0028810 Eh/α   predicted    -0.2776824E-04 ( -35.58%)
   displ. norm   :     0.2414428 α      lambda       -0.6296535E-04
   maximum displ.:     0.1529572 α      in ANC's #2, #1, #3, ...

........................................................................
.............................. CYCLE   20 ..............................
........................................................................

 iter      E             dE          RMSdq      gap      omega  full diag
   1    -51.8917935 -0.518918E+02  0.444E-02    3.74       0.0  T
   2    -51.8917940 -0.502568E-06  0.260E-02    3.74       1.0  T
   3    -51.8917936  0.331924E-06  0.356E-03    3.74       4.5  T
   4    -51.8917941 -0.442917E-06  0.953E-04    3.74      16.8  T
   5    -51.8917941 -0.209271E-07  0.415E-04    3.74      38.6  T
     SCC iter.                  ...        0 min,  0.007 sec
     gradient                   ...        0 min,  0.019 sec
 * total energy  :   -51.1333868 Eh     change       -0.5004197E-04 Eh
   gradient norm :     0.0027284 Eh/α   predicted    -0.3331981E-04 ( -33.42%)
   displ. norm   :     0.2953358 α      lambda       -0.7057797E-04
   maximum displ.:     0.1876994 α      in ANC's #2, #1, #3, ...
 * RMSD in coord.:     0.6595933 α      energy gain  -0.1159442E-01 Eh

generating ANC from exact Hessian ...
Using Lindh-Hessian (1995)
 Shifting diagonal of input Hessian by    9.6461591806303489E-003
 Lowest  eigenvalues of input Hessian
    0.000000    0.000000    0.000000    0.000000    0.000000    0.000000
    0.010000    0.010115    0.010623    0.011165    0.011797    0.012510
    0.013414    0.015471    0.015614    0.016220    0.017162    0.018058
 Highest eigenvalues
    1.629057    1.885740    1.916575    2.016193    2.122441    2.371212


........................................................................
.............................. CYCLE   21 ..............................
........................................................................

 iter      E             dE          RMSdq      gap      omega  full diag
   1    -51.8923761 -0.518924E+02  0.548E-02    3.73       0.0  T
   2    -51.8923766 -0.554335E-06  0.321E-02    3.73       1.0  T
   3    -51.8923764  0.188837E-06  0.321E-03    3.73       5.0  T
   4    -51.8923768 -0.342977E-06  0.107E-03    3.73      14.9  T
   5    -51.8923768 -0.177812E-07  0.520E-04    3.73      30.8  T
   6    -51.8923768 -0.115958E-08  0.133E-04    3.73     120.8  T
     SCC iter.                  ...        0 min,  0.009 sec
     gradient                   ...        0 min,  0.047 sec
 * total energy  :   -51.1334402 Eh     change       -0.5349108E-04 Eh
   gradient norm :     0.0030287 Eh/α   predicted     0.0000000E+00 (-100.00%)
   displ. norm   :     0.0301178 α      lambda       -0.2244685E-04
   maximum displ.:     0.0142030 α      in ANC's #1, #13, #12, ...

........................................................................
.............................. CYCLE   22 ..............................
........................................................................

 iter      E             dE          RMSdq      gap      omega  full diag
   1    -51.8923723 -0.518924E+02  0.828E-03    3.73       0.0  T
   2    -51.8923724 -0.106534E-06  0.480E-03    3.73       3.3  T
   3    -51.8923723  0.475581E-07  0.185E-03    3.73       8.6  T
   4    -51.8923724 -0.682667E-07  0.396E-04    3.73      40.4  T
   5    -51.8923724 -0.368416E-08  0.144E-04    3.73     111.3  T
     SCC iter.                  ...        0 min,  0.008 sec
     gradient                   ...        0 min,  0.019 sec
 * total energy  :   -51.1334617 Eh     change       -0.2149443E-04 Eh
   gradient norm :     0.0015698 Eh/α   predicted    -0.1317440E-04 ( -38.71%)
   displ. norm   :     0.1258064 α      lambda       -0.4377658E-04
   maximum displ.:     0.0669140 α      in ANC's #1, #13, #12, ...

........................................................................
.............................. CYCLE   23 ..............................
........................................................................

 iter      E             dE          RMSdq      gap      omega  full diag
   1    -51.8922535 -0.518923E+02  0.282E-02    3.73       0.0  T
   2    -51.8922543 -0.828922E-06  0.164E-02    3.73       1.0  T
   3    -51.8922537  0.592591E-06  0.560E-03    3.72       2.9  T
   4    -51.8922545 -0.789395E-06  0.109E-03    3.72      14.7  T
   5    -51.8922545 -0.257234E-07  0.434E-04    3.72      36.9  T
   6    -51.8922545 -0.829537E-09  0.173E-04    3.72      92.5  T
     SCC iter.                  ...        0 min,  0.009 sec
     gradient                   ...        0 min,  0.043 sec
 * total energy  :   -51.1334909 Eh     change       -0.2917557E-04 Eh
   gradient norm :     0.0029360 Eh/α   predicted    -0.2204267E-04 ( -24.45%)
   displ. norm   :     0.0247530 α      lambda       -0.1173676E-04
   maximum displ.:     0.0180892 α      in ANC's #1, #13, #12, ...

........................................................................
.............................. CYCLE   24 ..............................
........................................................................

 iter      E             dE          RMSdq      gap      omega  full diag
   1    -51.8923526 -0.518924E+02  0.570E-03    3.72       0.0  T
   2    -51.8923527 -0.301402E-07  0.332E-03    3.72       4.8  T
   3    -51.8923527  0.601636E-08  0.696E-04    3.72      23.0  T
   4    -51.8923527 -0.869696E-08  0.199E-04    3.72      80.5  T
     SCC iter.                  ...        0 min,  0.006 sec
     gradient                   ...        0 min,  0.019 sec
 * total energy  :   -51.1335014 Eh     change       -0.1048708E-04 Eh
   gradient norm :     0.0021254 Eh/α   predicted    -0.5872502E-05 ( -44.00%)
   displ. norm   :     0.0842526 α      lambda       -0.2996506E-04
   maximum displ.:     0.0589198 α      in ANC's #1, #13, #3, ...

........................................................................
.............................. CYCLE   25 ..............................
........................................................................

 iter      E             dE          RMSdq      gap      omega  full diag
   1    -51.8925071 -0.518925E+02  0.185E-02    3.72       0.0  T
   2    -51.8925074 -0.274700E-06  0.108E-02    3.72       1.5  T
   3    -51.8925073  0.576686E-07  0.208E-03    3.72       7.7  T
   4    -51.8925074 -0.794887E-07  0.603E-04    3.72      26.6  T
   5    -51.8925074 -0.112812E-07  0.210E-04    3.72      76.3  T
     SCC iter.                  ...        0 min,  0.007 sec
     gradient                   ...        0 min,  0.019 sec
 * total energy  :   -51.1335220 Eh     change       -0.2063046E-04 Eh
   gradient norm :     0.0007378 Eh/α   predicted    -0.1509119E-04 ( -26.85%)
   displ. norm   :     0.1094669 α      lambda       -0.1186286E-04
   maximum displ.:     0.0784234 α      in ANC's #1, #13, #3, ...

........................................................................
.............................. CYCLE   26 ..............................
........................................................................

 iter      E             dE          RMSdq      gap      omega  full diag
   1    -51.8924898 -0.518925E+02  0.225E-02    3.72       0.0  T
   2    -51.8924900 -0.165941E-06  0.132E-02    3.72       1.2  T
   3    -51.8924900  0.238465E-07  0.130E-03    3.72      12.3  T
   4    -51.8924900 -0.431632E-07  0.453E-04    3.72      35.4  T
   5    -51.8924900 -0.577563E-08  0.216E-04    3.72      74.2  T
     SCC iter.                  ...        0 min,  0.028 sec
     gradient                   ...        0 min,  0.019 sec
 * total energy  :   -51.1335345 Eh     change       -0.1242326E-04 Eh
   gradient norm :     0.0016613 Eh/α   predicted    -0.5963580E-05 ( -52.00%)
   displ. norm   :     0.0658821 α      lambda       -0.7775254E-05
   maximum displ.:     0.0493398 α      in ANC's #1, #13, #3, ...

........................................................................
.............................. CYCLE   27 ..............................
........................................................................

 iter      E             dE          RMSdq      gap      omega  full diag
   1    -51.8925640 -0.518926E+02  0.137E-02    3.72       0.0  T
   2    -51.8925640 -0.300744E-07  0.802E-03    3.72       2.0  T
   3    -51.8925640  0.139264E-07  0.884E-04    3.72      18.1  T
   4    -51.8925640 -0.220201E-07  0.244E-04    3.72      65.7  T
     SCC iter.                  ...        0 min,  0.006 sec
     gradient                   ...        0 min,  0.019 sec
 * total energy  :   -51.1335447 Eh     change       -0.1029604E-04 Eh
   gradient norm :     0.0010956 Eh/α   predicted    -0.3898708E-05 ( -62.13%)
   displ. norm   :     0.0789972 α      lambda       -0.1013537E-04
   maximum displ.:     0.0606612 α      in ANC's #1, #3, #4, ...

........................................................................
.............................. CYCLE   28 ..............................
........................................................................

 iter      E             dE          RMSdq      gap      omega  full diag
   1    -51.8926398 -0.518926E+02  0.167E-02    3.72       0.0  T
   2    -51.8926398 -0.686404E-07  0.977E-03    3.72       1.6  T
   3    -51.8926398  0.397487E-07  0.133E-03    3.72      12.1  T
   4    -51.8926398 -0.535168E-07  0.343E-04    3.72      46.6  T
   5    -51.8926398 -0.232591E-08  0.154E-04    3.72     103.9  T
     SCC iter.                  ...        0 min,  0.037 sec
     gradient                   ...        0 min,  0.019 sec
 * total energy  :   -51.1335575 Eh     change       -0.1276196E-04 Eh
   gradient norm :     0.0004025 Eh/α   predicted    -0.5083391E-05 ( -60.17%)
   displ. norm   :     0.0872467 α      lambda       -0.8800461E-05
   maximum displ.:     0.0672674 α      in ANC's #1, #3, #2, ...

........................................................................
.............................. CYCLE   29 ..............................
........................................................................

 iter      E             dE          RMSdq      gap      omega  full diag
   1    -51.8926340 -0.518926E+02  0.176E-02    3.73       0.0  T
   2    -51.8926340 -0.489246E-07  0.103E-02    3.73       1.5  T
   3    -51.8926340  0.167022E-07  0.959E-04    3.73      16.7  T
   4    -51.8926341 -0.281955E-07  0.305E-04    3.73      52.5  T
     SCC iter.                  ...        0 min,  0.006 sec
     gradient                   ...        0 min,  0.019 sec
 * total energy  :   -51.1335687 Eh     change       -0.1120459E-04 Eh
   gradient norm :     0.0007479 Eh/α   predicted    -0.4416039E-05 ( -60.59%)
   displ. norm   :     0.0760900 α      lambda       -0.6778164E-05
   maximum displ.:     0.0594387 α      in ANC's #1, #3, #2, ...

........................................................................
.............................. CYCLE   30 ..............................
........................................................................

 iter      E             dE          RMSdq      gap      omega  full diag
   1    -51.8926586 -0.518927E+02  0.150E-02    3.73       0.0  T
   2    -51.8926586 -0.268306E-07  0.881E-03    3.73       1.8  T
   3    -51.8926586  0.664066E-08  0.708E-04    3.73      22.6  T
   4    -51.8926586 -0.144435E-07  0.228E-04    3.73      70.1  T
     SCC iter.                  ...        0 min,  0.006 sec
     gradient                   ...        0 min,  0.046 sec
 * total energy  :   -51.1335779 Eh     change       -0.9138976E-05 Eh
   gradient norm :     0.0008354 Eh/α   predicted    -0.3401677E-05 ( -62.78%)
   displ. norm   :     0.0677101 α      lambda       -0.6167947E-05
   maximum displ.:     0.0532991 α      in ANC's #1, #3, #2, ...

........................................................................
.............................. CYCLE   31 ..............................
........................................................................

 iter      E             dE          RMSdq      gap      omega  full diag
   1    -51.8927031 -0.518927E+02  0.127E-02    3.73       0.0  T
   2    -51.8927031 -0.245952E-07  0.744E-03    3.73       2.2  T
   3    -51.8927031  0.233059E-08  0.572E-04    3.73      28.0  T
   4    -51.8927031 -0.908816E-08  0.200E-04    3.73      80.1  T
     SCC iter.                  ...        0 min,  0.006 sec
     gradient                   ...        0 min,  0.019 sec
 * total energy  :   -51.1335862 Eh     change       -0.8384118E-05 Eh
   gradient norm :     0.0005800 Eh/α   predicted    -0.3091035E-05 ( -63.13%)
   displ. norm   :     0.0677365 α      lambda       -0.6139931E-05
   maximum displ.:     0.0538709 α      in ANC's #1, #3, #2, ...

........................................................................
.............................. CYCLE   32 ..............................
........................................................................

 iter      E             dE          RMSdq      gap      omega  full diag
   1    -51.8927173 -0.518927E+02  0.124E-02    3.73       0.0  T
   2    -51.8927174 -0.258921E-07  0.728E-03    3.73       2.2  T
   3    -51.8927173  0.100215E-07  0.694E-04    3.73      23.1  T
   4    -51.8927174 -0.175967E-07  0.216E-04    3.73      74.1  T
     SCC iter.                  ...        0 min,  0.006 sec
     gradient                   ...        0 min,  0.019 sec
 * total energy  :   -51.1335946 Eh     change       -0.8403152E-05 Eh
   gradient norm :     0.0003085 Eh/α   predicted    -0.3078825E-05 ( -63.36%)
   displ. norm   :     0.0687583 α      lambda       -0.5891381E-05
   maximum displ.:     0.0543208 α      in ANC's #1, #3, #2, ...

........................................................................
.............................. CYCLE   33 ..............................
........................................................................

 iter      E             dE          RMSdq      gap      omega  full diag
   1    -51.8927409 -0.518927E+02  0.120E-02    3.73       0.0  T
   2    -51.8927409 -0.267580E-07  0.703E-03    3.73       2.3  T
   3    -51.8927409  0.675646E-08  0.654E-04    3.73      24.5  T
   4    -51.8927409 -0.141353E-07  0.213E-04    3.73      75.1  T
     SCC iter.                  ...        0 min,  0.027 sec
     gradient                   ...        0 min,  0.019 sec
 * total energy  :   -51.1336028 Eh     change       -0.8128894E-05 Eh
   gradient norm :     0.0002981 Eh/α   predicted    -0.2952509E-05 ( -63.68%)
   displ. norm   :     0.0693924 α      lambda       -0.5604372E-05
   maximum displ.:     0.0544830 α      in ANC's #1, #3, #4, ...

........................................................................
.............................. CYCLE   34 ..............................
........................................................................

 iter      E             dE          RMSdq      gap      omega  full diag
   1    -51.8927347 -0.518927E+02  0.119E-02    3.73       0.0  T
   2    -51.8927347 -0.205710E-07  0.697E-03    3.73       2.3  T
   3    -51.8927347  0.481675E-08  0.612E-04    3.73      26.2  T
   4    -51.8927347 -0.113031E-07  0.201E-04    3.73      79.7  T
     SCC iter.                  ...        0 min,  0.006 sec
     gradient                   ...        0 min,  0.019 sec
 * total energy  :   -51.1336106 Eh     change       -0.7844976E-05 Eh
   gradient norm :     0.0004248 Eh/α   predicted    -0.2810845E-05 ( -64.17%)
   displ. norm   :     0.0672798 α      lambda       -0.5251944E-05
   maximum displ.:     0.0530891 α      in ANC's #1, #3, #4, ...

........................................................................
.............................. CYCLE   35 ..............................
........................................................................

 iter      E             dE          RMSdq      gap      omega  full diag
   1    -51.8927305 -0.518927E+02  0.115E-02    3.73       0.0  T
   2    -51.8927305 -0.196416E-07  0.674E-03    3.73       2.4  T
   3    -51.8927305  0.621768E-08  0.670E-04    3.73      23.9  T
   4    -51.8927305 -0.120897E-07  0.195E-04    3.73      82.0  T
     SCC iter.                  ...        0 min,  0.006 sec
     gradient                   ...        0 min,  0.046 sec
 * total energy  :   -51.1336180 Eh     change       -0.7355831E-05 Eh
   gradient norm :     0.0004431 Eh/α   predicted    -0.2632917E-05 ( -64.21%)
   displ. norm   :     0.0616528 α      lambda       -0.4669290E-05
   maximum displ.:     0.0495529 α      in ANC's #1, #3, #4, ...

........................................................................
.............................. CYCLE   36 ..............................
........................................................................

 iter      E             dE          RMSdq      gap      omega  full diag
   1    -51.8927137 -0.518927E+02  0.109E-02    3.73       0.0  T
   2    -51.8927137 -0.172240E-07  0.639E-03    3.73       2.5  T
   3    -51.8927137  0.142469E-07  0.800E-04    3.73      20.0  T
   4    -51.8927137 -0.200039E-07  0.177E-04    3.73      90.2  T
     SCC iter.                  ...        0 min,  0.006 sec
     gradient                   ...        0 min,  0.019 sec
 * total energy  :   -51.1336245 Eh     change       -0.6507525E-05 Eh
   gradient norm :     0.0003618 Eh/α   predicted    -0.2340915E-05 ( -64.03%)
   displ. norm   :     0.0530651 α      lambda       -0.3940906E-05
   maximum displ.:     0.0442894 α      in ANC's #1, #3, #4, ...

........................................................................
.............................. CYCLE   37 ..............................
........................................................................

 iter      E             dE          RMSdq      gap      omega  full diag
   1    -51.8927126 -0.518927E+02  0.969E-03    3.73       0.0  T
   2    -51.8927126 -0.175032E-07  0.568E-03    3.73       2.8  T
   3    -51.8927126  0.162512E-07  0.801E-04    3.73      20.0  T
   4    -51.8927126 -0.210434E-07  0.166E-04    3.73      96.5  T
     SCC iter.                  ...        0 min,  0.006 sec
     gradient                   ...        0 min,  0.052 sec
 * total energy  :   -51.1336300 Eh     change       -0.5516666E-05 Eh
   gradient norm :     0.0002315 Eh/α   predicted    -0.1975036E-05 ( -64.20%)
   displ. norm   :     0.0432309 α      lambda       -0.3194718E-05
   maximum displ.:     0.0374575 α      in ANC's #1, #3, #8, ...

........................................................................
.............................. CYCLE   38 ..............................
........................................................................

 iter      E             dE          RMSdq      gap      omega  full diag
   1    -51.8927144 -0.518927E+02  0.829E-03    3.73       0.0  T
   2    -51.8927144 -0.107461E-07  0.487E-03    3.73       3.3  T
   3    -51.8927144  0.158880E-07  0.736E-04    3.73      21.8  T
   4    -51.8927144 -0.196336E-07  0.124E-04    3.73     128.9  T
     SCC iter.                  ...        0 min,  0.006 sec
     gradient                   ...        0 min,  0.019 sec
 * total energy  :   -51.1336346 Eh     change       -0.4559023E-05 Eh
   gradient norm :     0.0001549 Eh/α   predicted    -0.1601146E-05 ( -64.88%)
   displ. norm   :     0.0364890 α      lambda       -0.2754341E-05
   maximum displ.:     0.0325000 α      in ANC's #1, #8, #3, ...

   *** GEOMETRY OPTIMIZATION CONVERGED AFTER 38 ITERATIONS ***

------------------------------------------------------------------------
 total energy gain   :        -0.0118422 Eh       -7.4311 kcal/mol
 total RMSD          :         0.7590675 a0        0.4017 Å
 total power (kW/mol):        -0.8182039 (step)  -18.0923 (real)
------------------------------------------------------------------------

 ANCopt (total)                0 d,  0 h,  0 min,  1.719 sec
 optimizer setup                ...        0 min,  0.000 sec (  0.005%)
 model hessian                  ...        0 min,  0.035 sec (  2.057%)
 ANC generation                 ...        0 min,  0.003 sec (  0.154%)
 coordinate transformation      ...        0 min,  0.000 sec (  0.016%)
 single point calculation       ...        0 min,  1.669 sec ( 97.115%)
 optimization log               ...        0 min,  0.006 sec (  0.326%)
 hessian update                 ...        0 min,  0.000 sec (  0.027%)
 rational function              ...        0 min,  0.002 sec (  0.138%)

================
 final structure:
================
39
 xtb: 6.7.1 (edcfbbe)
C            1.14593812746106       -1.99677846047218       -1.41464254960991
C            2.16202120535177       -1.22430915298203       -0.62491798689388
C            3.46414504881969       -1.68147243844876       -0.50618559244891
C            4.39986742774150       -0.96188766009770        0.21556124748789
C            4.02857891458019        0.21000934663945        0.84543668839543
C            2.72831018562749        0.69235730655681        0.76273965307913
C            2.33553994245033        1.93103255004485        1.50196034452987
C            1.80306284194819       -0.02320453547786       -0.00122514928404
N            0.46931642358154        0.40855891611864       -0.13643218020135
C            0.00952403809795        1.60473598373573       -0.55799936181659
C           -1.51530151655516        1.60738488871735       -0.71481674600586
N           -2.13753245533994        0.45739872633502       -0.08484585175035
C           -3.33233950528278        0.00157589941753       -0.78196082351018
C           -2.96759869501409       -0.87242136403899       -1.97793702473853
C           -2.33463922130836        0.65174196941309        1.34664421804003
C           -2.26023645328878       -0.66917051717345        2.10636185239473
O            0.68202624981534        2.57668318689845       -0.82934560577274
H            1.61930559446365       -2.82885659035152       -1.92927093521024
H            0.66564174547170       -1.35786770370200       -2.15469578006331
H            0.37113382405289       -2.39988946375349       -0.76002497752000
H            3.74897495179196       -2.60435567700310       -0.99053221930686
H            5.41525776096923       -1.32091611979714        0.29329445245803
H            4.75545445908622        0.76155115161628        1.42383982193470
H            1.42137831342424        1.76140408064272        2.07080070456908
H            3.12517369877773        2.23753329533131        2.18310981370761
H            2.13801806678433        2.74018538470475        0.79953048855486
H           -0.25761853706309       -0.30146483077633       -0.09642390333387
H           -1.90031027106114        2.56729436872178       -0.33880101076030
H           -1.70990402252990        1.58623741686200       -1.79007921268955
H           -3.92969119354947       -0.59125037913732       -0.08707594411806
H           -3.95314160377885        0.84974242630433       -1.11264775222195
H           -3.87096696578581       -1.22155609999787       -2.47139188389255
H           -2.39394525010826       -1.73491490651320       -1.64835254400739
H           -2.37339958997746       -0.32163343547974       -2.70278298742769
H           -1.53787557607517        1.30578575681349        1.70821022324883
H           -3.29604240849288        1.14846868196714        1.55453370184658
H           -1.28345717793704       -1.12763182610774        1.97204490520203
H           -3.01843654378588       -1.36742322123589        1.76103728508007
H           -2.41623183336388       -0.49237695429777        3.16738262206468

 Bond Distances (Angstroems)
 ---------------------------
C1-C2=1.5009         C1-H18=1.0869        C1-H19=1.0893        C1-H20=1.0915        C2-C1=1.5009         C2-C3=1.3851         
C2-C8=1.4002         C3-C2=1.3851         C3-C4=1.3836         C3-H21=1.0805        C4-C3=1.3836         C4-C5=1.3813         
C4-H22=1.0798        C5-C4=1.3813         C5-C6=1.3893         C5-H23=1.0803        C6-C5=1.3893         C6-C7=1.4950         
C6-C8=1.3971         C7-C6=1.4950         C7-H24=1.0900        C7-H25=1.0869        C7-H26=1.0896        C8-C2=1.4002         
C8-C6=1.3971         C8-N9=1.4084         N9-C8=1.4084         N9-C10=1.3491        N9-H27=1.0169        C10-N9=1.3491        
C10-C11=1.5329       C10-O17=1.2127       C11-C10=1.5329       C11-N12=1.4514       C11-H28=1.1005       C11-H29=1.0929       
N12-C11=1.4514       N12-C13=1.4565       N12-C15=1.4580       C13-N12=1.4565       C13-C14=1.5255       C13-H30=1.0914       
C13-H31=1.1019       C14-C13=1.5255       C14-H32=1.0870       C14-H33=1.0870       C14-H34=1.0871       C15-N12=1.4580       
C15-C16=1.5256       C15-H35=1.0924       C15-H36=1.1019       C16-C15=1.5256       C16-H37=1.0873       C16-H38=1.0870       
C16-H39=1.0869       O17-C10=1.2127       H18-C1=1.0869        H19-C1=1.0893        H20-C1=1.0915        H21-C3=1.0805        
H22-C4=1.0798        H23-C5=1.0803        H24-C7=1.0900        H25-C7=1.0869        H26-C7=1.0896        H27-N9=1.0169        
H28-C11=1.1005       H29-C11=1.0929       H30-C13=1.0914       H31-C13=1.1019       H32-C14=1.0870       H33-C14=1.0870       
H34-C14=1.0871       H35-C15=1.0924       H36-C15=1.1019       H37-C16=1.0873       H38-C16=1.0870       H39-C16=1.0869       
 C  H  Rav=1.0894 sigma=0.0060  Rmin=1.0798  Rmax=1.1019    21
 C  C  Rav=1.4470 sigma=0.0640  Rmin=1.3813  Rmax=1.5329    11
 N  H  Rav=1.0169 sigma=0.0000  Rmin=1.0169  Rmax=1.0169     1
 N  C  Rav=1.4247 sigma=0.0420  Rmin=1.3491  Rmax=1.4580     5
 O  C  Rav=1.2127 sigma=0.0000  Rmin=1.2127  Rmax=1.2127     1

 selected bond angles (degree)
 --------------------
H18-C1-C2=110.38               H19-C1-C2=110.74               H19-C1-H18=108.63              H20-C1-C2=110.80               
H20-C1-H18=108.08              H20-C1-H19=108.12              C3-C2-C1=120.77                C8-C2-C1=120.15                
C8-C2-C3=119.07                C4-C3-C2=120.59                H21-C3-C2=119.43               H21-C3-C4=119.99               
C5-C4-C3=119.82                H22-C4-C3=120.04               H22-C4-C5=120.13               C6-C5-C4=121.26                
H23-C5-C4=119.76               H23-C5-C6=118.97               C7-C6-C5=120.27                C8-C6-C5=118.33                
C8-C6-C7=121.38                H24-C7-C6=110.45               H25-C7-C6=110.65               H25-C7-H24=109.03              
H26-C7-C6=110.13               H26-C7-H24=107.46              H26-C7-H25=109.04              C6-C8-C2=120.88                
N9-C8-C2=117.58                N9-C8-C6=121.51                C10-N9-C8=128.65               H27-N9-C8=117.33               
H27-N9-C10=112.81              C11-C10-N9=111.87              O17-C10-N9=126.27              O17-C10-C11=121.83             

 selected dihedral angles (degree)
 ---------------------------------
C3-C2-C1-H18=353.19           C3-C2-C1-H19=232.86           C3-C2-C1-H20=112.88           C8-C2-C1-H18=172.91           
C8-C2-C1-H19= 52.58           C8-C2-C1-H20=292.60           C4-C3-C2-C1=179.58            C4-C3-C2-C8=359.86            
H21-C3-C2-C1=  0.12           H21-C3-C2-C8=180.40           C5-C4-C3-C2=  1.24            C5-C4-C3-H21=180.70           
H22-C4-C3-C2=180.68           H22-C4-C3-H21=  0.14          C6-C5-C4-C3=359.54            C6-C5-C4-H22=180.10           
H23-C5-C4-C3=178.87           H23-C5-C4-H22=359.44          C7-C6-C5-C4=177.32            C7-C6-C5-H23=357.98           
C8-C6-C5-C4=358.62            C8-C6-C5-H23=179.28           H24-C7-C6-C5=229.67           H24-C7-C6-C8= 48.33           
H25-C7-C6-C5=350.50           H25-C7-C6-C8=169.16           H26-C7-C6-C5=111.14           H26-C7-C6-C8=289.80           
C6-C8-C2-C1=178.53            C6-C8-C2-C3=358.25            N9-C8-C2-C1=  0.61            N9-C8-C2-C3=180.33            
C2-C8-C6-C5=  2.49            C2-C8-C6-C7=183.80            N9-C8-C6-C5=180.32            N9-C8-C6-C7=  1.64            
C10-N9-C8-C2=232.69           C10-N9-C8-C6= 54.78           H27-N9-C8-C2= 39.14           H27-N9-C8-C6=221.24           
C11-C10-N9-C8=173.23          C11-C10-N9-H27=  6.28         O17-C10-N9-C8=355.23          O17-C10-N9-H27=188.27         
           -------------------------------------------------
          |                Final Singlepoint                |
           -------------------------------------------------

          ...................................................
          :                      SETUP                      :
          :.................................................:
          :  # basis functions                  90          :
          :  # atomic orbitals                  90          :
          :  # shells                           56          :
          :  # electrons                        94          :
          :  max. iterations                   250          :
          :  Hamiltonian                  GFN2-xTB          :
          :  restarted?                      false          :
          :  GBSA solvation                  false          :
          :  PC potential                    false          :
          :  electronic temp.          300.0000000     K    :
          :  accuracy                    1.0000000          :
          :  -> integral cutoff          0.2500000E+02      :
          :  -> integral neglect         0.1000000E-07      :
          :  -> SCF convergence          0.1000000E-05 Eh   :
          :  -> wf. convergence          0.1000000E-03 e    :
          :  Broyden damping             0.4000000          :
          :  net charge                          0          :
          :  unpaired electrons                  0          :
          ...................................................

 iter      E             dE          RMSdq      gap      omega  full diag
   1    -51.8927144 -0.518927E+02  0.603E-05    3.73       0.0  T
   2    -51.8927144 -0.826361E-11  0.350E-05    3.73     456.9  T
   3    -51.8927144  0.353140E-11  0.183E-05    3.73     874.9  T

   *** convergence criteria satisfied after 3 iterations ***

         #    Occupation            Energy/Eh            Energy/eV
      -------------------------------------------------------------
         1        2.0000           -0.6907636             -18.7966
       ...           ...                  ...                  ...
        41        2.0000           -0.4305646             -11.7163
        42        2.0000           -0.4218790             -11.4799
        43        2.0000           -0.4130277             -11.2391
        44        2.0000           -0.3921025             -10.6697
        45        2.0000           -0.3848209             -10.4715
        46        2.0000           -0.3765254             -10.2458
        47        2.0000           -0.3592887              -9.7767 (HOMO)
        48                         -0.2221212              -6.0442 (LUMO)
        49                         -0.2122245              -5.7749
        50                         -0.1886053              -5.1322
        51                         -0.0866096              -2.3568
        52                         -0.0001052              -0.0029
       ...                                ...                  ...
        90                          0.6838173              18.6076
      -------------------------------------------------------------
                  HL-Gap            0.1371675 Eh            3.7325 eV
             Fermi-level           -0.2907049 Eh           -7.9105 eV

 SCC (total)                   0 d,  0 h,  0 min,  0.063 sec
 SCC setup                      ...        0 min,  0.000 sec (  0.372%)
 Dispersion                     ...        0 min,  0.000 sec (  0.456%)
 classical contributions        ...        0 min,  0.000 sec (  0.198%)
 integral evaluation            ...        0 min,  0.006 sec (  9.009%)
 iterations                     ...        0 min,  0.004 sec (  6.955%)
 molecular gradient             ...        0 min,  0.052 sec ( 82.819%)
 printout                       ...        0 min,  0.000 sec (  0.179%)

         :::::::::::::::::::::::::::::::::::::::::::::::::::::
         ::                     SUMMARY                     ::
         :::::::::::::::::::::::::::::::::::::::::::::::::::::
         :: total energy             -51.133634554126 Eh    ::
         :: gradient norm              0.000155789286 Eh/a0 ::
         :: HOMO-LUMO gap              3.732516353701 eV    ::
         ::.................................................::
         :: SCC energy               -51.892027695405 Eh    ::
         :: -> isotropic ES            0.048284893963 Eh    ::
         :: -> anisotropic ES          0.007042907857 Eh    ::
         :: -> anisotropic XC          0.027627228328 Eh    ::
         :: -> dispersion             -0.037298670934 Eh    ::
         :: repulsion energy           0.758393141279 Eh    ::
         :: add. restraining           0.000000000000 Eh    ::
         :: total charge               0.000000000000 e     ::
         :::::::::::::::::::::::::::::::::::::::::::::::::::::

           -------------------------------------------------
          |                Property Printout                |
           -------------------------------------------------

    * Orbital Energies and Occupations

         #    Occupation            Energy/Eh            Energy/eV
      -------------------------------------------------------------
         1        2.0000           -0.6907636             -18.7966
       ...           ...                  ...                  ...
        35        2.0000           -0.4645153             -12.6401
        36        2.0000           -0.4604371             -12.5291
        37        2.0000           -0.4500177             -12.2456
        38        2.0000           -0.4478306             -12.1861
        39        2.0000           -0.4459486             -12.1349
        40        2.0000           -0.4434562             -12.0671
        41        2.0000           -0.4305646             -11.7163
        42        2.0000           -0.4218790             -11.4799
        43        2.0000           -0.4130277             -11.2391
        44        2.0000           -0.3921025             -10.6697
        45        2.0000           -0.3848209             -10.4715
        46        2.0000           -0.3765254             -10.2458
        47        2.0000           -0.3592887              -9.7767 (HOMO)
        48                         -0.2221212              -6.0442 (LUMO)
        49                         -0.2122245              -5.7749
        50                         -0.1886053              -5.1322
        51                         -0.0866096              -2.3568
        52                         -0.0001052              -0.0029
        53                          0.0228865               0.6228
        54                          0.0717349               1.9520
        55                          0.0744419               2.0257
        56                          0.0946060               2.5744
        57                          0.1035514               2.8178
        58                          0.1080773               2.9409
       ...                                ...                  ...
        90                          0.6838173              18.6076
      -------------------------------------------------------------
                  HL-Gap            0.1371675 Eh            3.7325 eV
             Fermi-level           -0.2907049 Eh           -7.9105 eV

     #   Z          covCN         q      C6AA      α(0)
     1   6 C        3.757    -0.108    22.613     6.780
     2   6 C        2.970    -0.004    28.119     8.698
     3   6 C        2.924    -0.045    29.119     8.849
     4   6 C        2.916    -0.038    28.952     8.823
     5   6 C        2.927    -0.044    29.089     8.845
     6   6 C        2.965     0.013    27.729     8.637
     7   6 C        3.758    -0.110    22.658     6.786
     8   6 C        2.915     0.056    26.744     8.480
     9   7 N        2.696    -0.166    24.597     7.366
    10   6 C        2.746     0.268    22.472     7.762
    11   6 C        3.762    -0.025    21.058     6.541
    12   7 N        2.728    -0.190    25.106     7.442
    13   6 C        3.751     0.013    20.414     6.443
    14   6 C        3.752    -0.110    22.659     6.788
    15   6 C        3.752     0.011    20.440     6.447
    16   6 C        3.752    -0.110    22.658     6.788
    17   8 O        0.857    -0.437    22.436     6.351
    18   1 H        0.925     0.045     2.386     2.415
    19   1 H        0.925     0.046     2.367     2.406
    20   1 H        0.924     0.039     2.464     2.455
    21   1 H        0.926     0.030     2.581     2.513
    22   1 H        0.926     0.031     2.572     2.508
    23   1 H        0.926     0.034     2.529     2.487
    24   1 H        0.925     0.037     2.491     2.468
    25   1 H        0.925     0.038     2.474     2.460
    26   1 H        0.925     0.082     1.960     2.190
    27   1 H        0.860     0.199     1.109     1.650
    28   1 H        0.923     0.037     2.488     2.467
    29   1 H        0.924     0.057     2.231     2.336
    30   1 H        0.924     0.038     2.481     2.463
    31   1 H        0.923     0.013     2.848     2.639
    32   1 H        0.925     0.040     2.444     2.445
    33   1 H        0.925     0.044     2.398     2.422
    34   1 H        0.925     0.039     2.458     2.452
    35   1 H        0.924     0.037     2.496     2.471
    36   1 H        0.923     0.014     2.830     2.631
    37   1 H        0.925     0.042     2.419     2.432
    38   1 H        0.925     0.041     2.439     2.442
    39   1 H        0.925     0.041     2.429     2.437

 Mol. C6AA /au·bohr⁶  :      13880.274394
 Mol. C8AA /au·bohr⁸  :     311501.957951
 Mol. α(0) /au        :        181.014628


Wiberg/Mayer (AO) data.
largest (>0.10) Wiberg bond orders for each atom

 ---------------------------------------------------------------------------
     #   Z sym  total        # sym  WBO       # sym  WBO       # sym  WBO
 ---------------------------------------------------------------------------
     1   6 C    3.996 --     2 C    1.025    18 H    0.984    19 H    0.975
                            20 H    0.969
     2   6 C    3.987 --     3 C    1.426     8 C    1.354     1 C    1.025
                             5 C    0.103
     3   6 C    3.990 --     4 C    1.429     2 C    1.426    21 H    0.969
                             6 C    0.101
     4   6 C    3.991 --     5 C    1.446     3 C    1.429    22 H    0.971
     5   6 C    3.991 --     4 C    1.446     6 C    1.406    23 H    0.968
                             2 C    0.103
     6   6 C    3.988 --     5 C    1.406     8 C    1.364     7 C    1.033
                             3 C    0.101
     7   6 C    3.994 --     6 C    1.033    25 H    0.985    24 H    0.974
                            26 H    0.954
     8   6 C    3.960 --     6 C    1.364     2 C    1.354     9 N    1.039
     9   7 N    3.486 --    10 C    1.245     8 C    1.039    27 H    0.897
                            17 O    0.184
    10   6 C    3.954 --    17 O    1.684     9 N    1.245    11 C    0.946
    11   6 C    3.983 --    12 N    1.008    28 H    0.957    29 H    0.951
                            10 C    0.946
    12   7 N    3.151 --    11 C    1.008    13 C    0.998    15 C    0.997
    13   6 C    3.986 --    14 C    1.015    12 N    0.998    30 H    0.971
                            31 H    0.969
    14   6 C    3.996 --    13 C    1.015    33 H    0.987    32 H    0.986
                            34 H    0.984
    15   6 C    3.986 --    16 C    1.015    12 N    0.997    35 H    0.974
                            36 H    0.969
    16   6 C    3.996 --    15 C    1.015    37 H    0.986    39 H    0.985
                            38 H    0.983
    17   8 O    2.009 --    10 C    1.684     9 N    0.184
    18   1 H    0.998 --     1 C    0.984
    19   1 H    0.998 --     1 C    0.975
    20   1 H    0.998 --     1 C    0.969
    21   1 H    0.998 --     3 C    0.969
    22   1 H    0.999 --     4 C    0.971
    23   1 H    0.998 --     5 C    0.968
    24   1 H    0.998 --     7 C    0.974
    25   1 H    0.998 --     7 C    0.985
    26   1 H    0.993 --     7 C    0.954
    27   1 H    0.960 --     9 N    0.897
    28   1 H    0.998 --    11 C    0.957
    29   1 H    0.996 --    11 C    0.951
    30   1 H    0.998 --    13 C    0.971
    31   1 H    1.000 --    13 C    0.969
    32   1 H    0.998 --    14 C    0.986
    33   1 H    0.998 --    14 C    0.987
    34   1 H    0.998 --    14 C    0.984
    35   1 H    0.998 --    15 C    0.974
    36   1 H    1.000 --    15 C    0.969
    37   1 H    0.998 --    16 C    0.986
    38   1 H    0.998 --    16 C    0.983
    39   1 H    0.998 --    16 C    0.985
 ---------------------------------------------------------------------------

Topologies differ in total number of bonds
Writing topology from bond orders to xtbtopo.mol

molecular dipole:
                 x           y           z       tot (Debye)
 q only:       -0.806      -1.288       0.405
   full:       -1.300      -1.246       0.405       4.691
molecular quadrupole (traceless):
                xx          xy          yy          xz          yz          zz
 q only:        3.906      -2.180      -6.614       2.785       5.576       2.709
  q+dip:        7.435      -5.962      -8.095       3.883       7.866       0.660
   full:        5.957      -5.168      -8.572       3.133       6.781       2.615

           -------------------------------------------------
          |                Geometry Summary                 |
           -------------------------------------------------

      molecular mass/u    :      234.3378104
   center of mass at/Å    :        0.4049814       0.1785816      -0.0559858
  moments of inertia/u·Å² :        0.6846731E+03   0.1703555E+04   0.1907607E+04
rotational constants/cm⁻¹ :        0.2462143E-01   0.9895559E-02   0.8837060E-02

 * 36 selected distances

     #   Z          #   Z                                           value/Å
     2   6 C        3   6 C                                       1.3851435
     3   6 C        4   6 C                                       1.3835814
     4   6 C        5   6 C                                       1.3812824
     5   6 C        6   6 C                                       1.3893155
     2   6 C        8   6 C                                       1.4001773
     6   6 C        8   6 C                                       1.3970519
     8   6 C        9   7 N                                       1.4083964
     9   7 N       10   6 C                                       1.3490618
    11   6 C       12   7 N                                       1.4513798
    12   7 N       13   6 C                                       1.4564711
    13   6 C       14   6 C                                       1.5255381
    12   7 N       15   6 C                                       1.4580071
    15   6 C       16   6 C                                       1.5256202 (max)
    10   6 C       17   8 O                                       1.2126705
     1   6 C       18   1 H                                       1.0868640
     1   6 C       19   1 H                                       1.0892982
     1   6 C       20   1 H                                       1.0914873
     3   6 C       21   1 H                                       1.0804783
     4   6 C       22   1 H                                       1.0797970
     5   6 C       23   1 H                                       1.0803226
     7   6 C       24   1 H                                       1.0899747
     7   6 C       25   1 H                                       1.0869356
     7   6 C       26   1 H                                       1.0895646
     9   7 N       27   1 H                                       1.0169410 (min)
    11   6 C       28   1 H                                       1.1004754
    11   6 C       29   1 H                                       1.0929350
    13   6 C       30   1 H                                       1.0913923
    13   6 C       31   1 H                                       1.1018783
    14   6 C       32   1 H                                       1.0869532
    14   6 C       33   1 H                                       1.0870140
    14   6 C       34   1 H                                       1.0871255
    15   6 C       35   1 H                                       1.0923991
    15   6 C       36   1 H                                       1.1019309
    16   6 C       37   1 H                                       1.0873481
    16   6 C       38   1 H                                       1.0870481
    16   6 C       39   1 H                                       1.0869019

 * 5 distinct bonds (by element types)

   Z      Z             #   av. dist./Å        max./Å        min./Å
   1 H    6 C          21     1.0894345     1.1019309     1.0797970
[...]
   
   for GFN2-xTB:
   * C. Bannwarth, S. Ehlert and S. Grimme., J. Chem. Theory Comput., 2019,
     15, 1652-1671. DOI: 10.1021/acs.jctc.8b01176
   for GFN1-xTB:
   * S. Grimme, C. Bannwarth, P. Shushkov, J. Chem. Theory Comput., 2017,
     13, 1989-2009. DOI: 10.1021/acs.jctc.7b00118
   for GFN0-xTB:
   * P. Pracht, E. Caldeweyher, S. Ehlert, S. Grimme, ChemRxiv, 2019, preprint.
     DOI: 10.26434/chemrxiv.8326202.v1
   for GFN-FF:
   * S. Spicher and S. Grimme, Angew. Chem. Int. Ed., 2020, 59, 15665-15673.
     DOI: 10.1002/anie.202004239
   
   for ALPB and GBSA implicit solvation:
   * S. Ehlert, M. Stahn, S. Spicher, S. Grimme, J. Chem. Theory Comput.,
     2021, 17, 4250-4261. DOI: 10.1021/acs.jctc.1c00471
   
   for ddCOSMO and CPCM-X implicit solvation:
   * M. Stahn, S. Ehlert, S. Grimme, J. Phys. Chem. A,
     2023, XX, XXXX-XXXX. DOI: 10.1021/acs.jpca.3c04382
   
   for DFT-D4:
   * E. Caldeweyher, C. Bannwarth and S. Grimme, J. Chem. Phys., 2017,
     147, 034112. DOI: 10.1063/1.4993215
   * E. Caldeweyher, S. Ehlert, A. Hansen, H. Neugebauer, S. Spicher,
     C. Bannwarth and S. Grimme, J. Chem. Phys., 2019, 150, 154122.
     DOI: 10.1063/1.5090222
   * E. Caldeweyher, J.-M. Mewes, S. Ehlert and S. Grimme, Phys. Chem. Chem. Phys.
     2020, 22, 8499-8512. DOI: 10.1039/D0CP00502A
   
   for sTDA-xTB:
   * S. Grimme and C. Bannwarth, J. Chem. Phys., 2016, 145, 054103.
     DOI: 10.1063/1.4959605
   
   in the mass-spec context:
   * V. Asgeirsson, C. Bauer and S. Grimme, Chem. Sci., 2017, 8, 4879.
     DOI: 10.1039/c7sc00601b
   * J. Koopman and S. Grimme, ACS Omega 2019, 4, 12, 15120-15133.
     DOI: 10.1021/acsomega.9b02011
   
   for metadynamics refer to:
   * S. Grimme, J. Chem. Theory Comput., 2019, 155, 2847-2862
     DOI: 10.1021/acs.jctc.9b00143
   
   for SPH calculations refer to:
   * S. Spicher and S. Grimme, J. Chem. Theory Comput., 2021, 17, 1701-1714
     DOI: 10.1021/acs.jctc.0c01306
   
   for ONIOM refer to:
   * C. Plett, A. Katbashev, S. Ehlert, S. Grimme, M. Bursch,
     Phys. Chem. Chem. Phys., 2023, 25, 17860-17868. DOI: 10.1039/D3CP02178E
   
   for DIPRO refer to:
   * J. Kohn, N. Gildemeister, S. Grimme, D. Fazzi, A. Hansen,
     J. Chem. Phys., 2023, just accepted.
   
   for PTB refer to:
   * S. Grimme, M. Mueller, A. Hansen, J. Chem. Phys., 2023, 158, 124111.
     DOI: 10.1063/5.0137838
   
   with help from (in alphabetical order)
   P. Atkinson, C. Bannwarth, F. Bohle, G. Brandenburg, E. Caldeweyher
   M. Checinski, S. Dohm, S. Ehlert, S. Ehrlich, I. Gerasimov, C. Hölzer
   A. Katbashev, J. Kohn, J. Koopman, C. Lavigne, S. Lehtola, F. März, M. Müller,
   F. Musil, H. Neugebauer, J. Pisarek, C. Plett, P. Pracht, F. Pultar,
   J. Seibert, P. Shushkov, S. Spicher, M. Stahn, M. Steiner, T. Strunk,
   J. Stückrath, T. Rose, and J. Unsleber
   
 * started run on 2025/05/15 at 16:07:22.585     
   ID    Z sym.   atoms
    1    6 C      1-8, 10, 11, 13-16
    2    7 N      9, 12
    3    8 O      17
    4    1 H      18-39

           -------------------------------------------------
          |                Calculation Setup                |
           -------------------------------------------------

          program call               : xtb /rds/general/user/hgt20/home/callum/QDESCP/Lidocaine_rdkit_conf_3/Lidocaine_rdkit_conf_3.xyz --acc 1 --gfn 2 --chrg 0 --uhf 2 --etemp 300 --input /rds/general/user/hgt20/home/callum/QDESCP/Lidocaine_rdkit_conf_3/Lidocaine_rdkit_conf_3_xtb.inp -P 1
          hostname                   : login-c
          coordinate file            : /rds/general/user/hgt20/home/callum/QDESCP/Lidocaine_rdkit_conf_3/Lidocaine_rdkit_conf_3.xyz
          omp threads                :                     1


           -------------------------------------------------
          |                 G F N 2 - x T B                 |
           -------------------------------------------------

        Reference                      10.1021/acs.jctc.8b01176
      * Hamiltonian:
        H0-scaling (s, p, d)           1.850000    2.230000    2.230000
        zeta-weighting                 0.500000
      * Dispersion:
        s8                             2.700000
        a1                             0.520000
        a2                             5.000000
        s9                             5.000000
      * Repulsion:
        kExp                           1.500000    1.000000
        rExp                           1.000000
      * Coulomb:
        alpha                          2.000000
        third order                    shell-resolved
        anisotropic                    true
        a3                             3.000000
        a5                             4.000000
        cn-shift                       1.200000
        cn-exp                         4.000000
        max-rad                        5.000000


          ...................................................
          :                      SETUP                      :
          :.................................................:
          :  # basis functions                  90          :
          :  # atomic orbitals                  90          :
          :  # shells                           56          :
          :  # electrons                        94          :
          :  max. iterations                   250          :
          :  Hamiltonian                  GFN2-xTB          :
          :  restarted?                      false          :
          :  GBSA solvation                  false          :
          :  PC potential                    false          :
          :  electronic temp.          300.0000000     K    :
          :  accuracy                    1.0000000          :
          :  -> integral cutoff          0.2500000E+02      :
          :  -> integral neglect         0.1000000E-07      :
          :  -> SCF convergence          0.1000000E-05 Eh   :
          :  -> wf. convergence          0.1000000E-03 e    :
          :  Broyden damping             0.4000000          :
          :  net charge                          0          :
          :  unpaired electrons                  2          :
          ...................................................

 iter      E             dE          RMSdq      gap      omega  full diag
   1    -51.4559231 -0.514559E+02  0.317E+00    0.12       0.0  T
   2    -51.4183711  0.375519E-01  0.322E+00    1.16       1.0  T
   3    -51.5347080 -0.116337E+00  0.209E+00    0.16       1.0  T
   4    -51.5071668  0.275412E-01  0.234E+00    1.11       1.0  T
   5    -51.6419370 -0.134770E+00  0.139E+00    0.43       1.0  T
   6    -51.7132573 -0.713204E-01  0.818E-01    0.35       1.0  T
   7    -51.7324521 -0.191948E-01  0.545E-01    0.31       1.0  T
   8    -51.7389744 -0.652233E-02  0.370E-01    0.25       1.0  T
   9    -51.7406819 -0.170749E-02  0.199E-01    0.20       1.0  T
  10    -51.7403379  0.344012E-03  0.197E-01    0.28       1.0  T
  11    -51.7428024 -0.246448E-02  0.506E-02    0.25       1.0  T
  12    -51.7428272 -0.248786E-04  0.369E-02    0.24       1.0  T
  13    -51.7429075 -0.802983E-04  0.847E-03    0.24       1.9  T
  14    -51.7429078 -0.234156E-06  0.447E-03    0.24       3.6  T
  15    -51.7429084 -0.656490E-06  0.202E-03    0.24       7.9  T
  16    -51.7429086 -0.217855E-06  0.595E-04    0.24      26.9  T
  17    -51.7429087 -0.150021E-07  0.262E-04    0.24      61.2  T

   *** convergence criteria satisfied after 17 iterations ***

         #    Occupation            Energy/Eh            Energy/eV
      -------------------------------------------------------------
         1        2.0000           -0.6853027             -18.6480
       ...           ...                  ...                  ...
        42        2.0000           -0.4123965             -11.2219
        43        2.0000           -0.4053302             -11.0296
        44        2.0000           -0.3961988             -10.7811
        45        1.9999           -0.3786878             -10.3046
        46        1.9941           -0.3741686             -10.1816
        47        1.0059           -0.3644309              -9.9167
        48        0.9901           -0.2103776              -5.7247 (HOMO)
        49        0.0099           -0.2016302              -5.4866 (LUMO)
        50                         -0.1796399              -4.8882
        51                         -0.0749287              -2.0389
        52                         -0.0127917              -0.3481
        53                          0.0235900               0.6419
       ...                                ...                  ...
        90                          0.6923688              18.8403
      -------------------------------------------------------------
                  HL-Gap            0.0087474 Eh            0.2380 eV
             Fermi-level           -0.2876498 Eh           -7.8273 eV

 transition dipole moment (au) for excitation:          47          48
     X       Y       Z   
   1.2055  -0.7524   0.2244  total (au/Debye):    1.439   3.657
 dE (eV)             :    4.192
 oscillator strength :  0.30062E+00

 SCC (total)                   0 d,  0 h,  0 min,  0.057 sec
 SCC setup                      ...        0 min,  0.000 sec (  0.498%)
 Dispersion                     ...        0 min,  0.000 sec (  0.668%)
 classical contributions        ...        0 min,  0.000 sec (  0.214%)
 integral evaluation            ...        0 min,  0.006 sec ( 10.430%)
 iterations                     ...        0 min,  0.026 sec ( 45.777%)
 molecular gradient             ...        0 min,  0.019 sec ( 33.178%)
 printout                       ...        0 min,  0.005 sec (  9.224%)

         :::::::::::::::::::::::::::::::::::::::::::::::::::::
         ::                     SUMMARY                     ::
         :::::::::::::::::::::::::::::::::::::::::::::::::::::
         :: total energy             -50.983828834959 Eh    ::
         :: gradient norm              0.150208554947 Eh/a0 ::
         :: HOMO-LUMO gap              0.238029227769 eV    ::
         ::.................................................::
         :: SCC energy               -51.742221976238 Eh    ::
         :: -> isotropic ES            0.045722669542 Eh    ::
         :: -> anisotropic ES          0.007625168827 Eh    ::
         :: -> anisotropic XC          0.025167863372 Eh    ::
         :: -> dispersion             -0.037225419611 Eh    ::
         :: repulsion energy           0.758393141279 Eh    ::
         :: add. restraining           0.000000000000 Eh    ::
         :: total charge               0.000000000329 e     ::
         :::::::::::::::::::::::::::::::::::::::::::::::::::::

           -------------------------------------------------
          |                Property Printout                |
           -------------------------------------------------

    * Orbital Energies and Occupations

         #    Occupation            Energy/Eh            Energy/eV
      -------------------------------------------------------------
         1        2.0000           -0.6853027             -18.6480
       ...           ...                  ...                  ...
        36        2.0000           -0.4577823             -12.4569
        37        2.0000           -0.4571406             -12.4394
        38        2.0000           -0.4529809             -12.3262
        39        2.0000           -0.4446300             -12.0990
        40        2.0000           -0.4388167             -11.9408
        41        2.0000           -0.4239934             -11.5374
        42        2.0000           -0.4123965             -11.2219
        43        2.0000           -0.4053302             -11.0296
        44        2.0000           -0.3961988             -10.7811
        45        1.9999           -0.3786878             -10.3046
        46        1.9941           -0.3741686             -10.1816
        47        1.0059           -0.3644309              -9.9167
        48        0.9901           -0.2103776              -5.7247 (HOMO)
        49        0.0099           -0.2016302              -5.4866 (LUMO)
        50                         -0.1796399              -4.8882
        51                         -0.0749287              -2.0389
        52                         -0.0127917              -0.3481
        53                          0.0235900               0.6419
        54                          0.0613107               1.6683
        55                          0.0623616               1.6969
        56                          0.0964021               2.6232
        57                          0.0983491               2.6762
        58                          0.1048680               2.8536
        59                          0.1053845               2.8677
       ...                                ...                  ...
        90                          0.6923688              18.8403
      -------------------------------------------------------------
                  HL-Gap            0.0087474 Eh            0.2380 eV
             Fermi-level           -0.2876498 Eh           -7.8273 eV

     #   Z          covCN         q      C6AA      α(0)
     1   6 C        3.757    -0.106    22.581     6.775
     2   6 C        2.970    -0.015    28.394     8.740
     3   6 C        2.924    -0.043    29.073     8.842
     4   6 C        2.916    -0.050    29.233     8.866
     5   6 C        2.927    -0.055    29.367     8.887
     6   6 C        2.965     0.014    27.700     8.633
     7   6 C        3.758    -0.110    22.661     6.787
     8   6 C        2.915     0.042    27.059     8.530
     9   7 N        2.696    -0.145    24.132     7.296
    10   6 C        2.746     0.224    23.285     7.901
    11   6 C        3.762    -0.022    21.009     6.534
    12   7 N        2.728    -0.149    24.226     7.310
    13   6 C        3.751     0.009    20.487     6.455
    14   6 C        3.752    -0.111    22.687     6.792
    15   6 C        3.752     0.006    20.527     6.461
    16   6 C        3.752    -0.111    22.686     6.792
    17   8 O        0.857    -0.433    22.348     6.338
    18   1 H        0.925     0.042     2.423     2.434
    19   1 H        0.925     0.042     2.423     2.434
    20   1 H        0.924     0.033     2.548     2.496
    21   1 H        0.926     0.023     2.684     2.562
    22   1 H        0.926     0.020     2.734     2.585
    23   1 H        0.926     0.024     2.669     2.555
    24   1 H        0.925     0.039     2.464     2.455
    25   1 H        0.925     0.039     2.463     2.454
    26   1 H        0.925     0.090     1.875     2.141
    27   1 H        0.860     0.193     1.140     1.673
    28   1 H        0.923     0.045     2.388     2.417
    29   1 H        0.924     0.056     2.251     2.346
    30   1 H        0.924     0.044     2.401     2.423
    31   1 H        0.923     0.024     2.675     2.558
    32   1 H        0.925     0.044     2.391     2.418
    33   1 H        0.925     0.048     2.349     2.397
    34   1 H        0.925     0.044     2.390     2.418
    35   1 H        0.924     0.046     2.367     2.406
    36   1 H        0.923     0.024     2.674     2.557
    37   1 H        0.925     0.047     2.363     2.404
    38   1 H        0.925     0.043     2.411     2.428
    39   1 H        0.925     0.046     2.372     2.408

 Mol. C6AA /au·bohr⁶  :      13861.115357
 Mol. C8AA /au·bohr⁸  :     311418.014782
 Mol. α(0) /au        :        180.911479


Wiberg/Mayer (AO) data.
largest (>0.10) Wiberg bond orders for each atom

 ---------------------------------------------------------------------------
     #   Z sym  total        # sym  WBO       # sym  WBO       # sym  WBO
 ---------------------------------------------------------------------------
     1   6 C    3.996 --     2 C    1.027    18 H    0.985    19 H    0.972
                            20 H    0.967
     2   6 C    3.949 --     3 C    1.554     8 C    1.123     1 C    1.027
     3   6 C    3.966 --     2 C    1.554     4 C    1.258    21 H    0.969
     4   6 C    3.807 --     5 C    1.259     3 C    1.258    22 H    0.972
     5   6 C    3.966 --     6 C    1.535     4 C    1.259    23 H    0.968
     6   6 C    3.956 --     5 C    1.535     8 C    1.139     7 C    1.043
     7   6 C    3.994 --     6 C    1.043    25 H    0.984    24 H    0.968
                            26 H    0.937
     8   6 C    3.806 --     9 N    1.152     6 C    1.139     2 C    1.123
                            10 C    0.107
     9   7 N    3.508 --     8 C    1.152    10 C    1.146    27 H    0.895
                            17 O    0.129
    10   6 C    3.910 --    17 O    1.561     9 N    1.146    11 C    0.915
                             8 C    0.107
    11   6 C    3.965 --    12 N    1.021    29 H    0.954    28 H    0.949
                            10 C    0.915
    12   7 N    3.243 --    11 C    1.021    15 C    0.995    13 C    0.993
    13   6 C    3.979 --    14 C    1.014    12 N    0.993    30 H    0.970
                            31 H    0.966
    14   6 C    3.993 --    13 C    1.014    33 H    0.986    32 H    0.985
                            34 H    0.983
    15   6 C    3.981 --    16 C    1.014    12 N    0.995    35 H    0.973
                            36 H    0.965
    16   6 C    3.994 --    15 C    1.014    37 H    0.985    39 H    0.985
                            38 H    0.983
    17   8 O    2.051 --    10 C    1.561     9 N    0.129
    18   1 H    0.998 --     1 C    0.985
    19   1 H    0.998 --     1 C    0.972
    20   1 H    0.998 --     1 C    0.967
    21   1 H    0.998 --     3 C    0.969
    22   1 H    0.999 --     4 C    0.972
    23   1 H    0.998 --     5 C    0.968
    24   1 H    0.998 --     7 C    0.968
    25   1 H    0.998 --     7 C    0.984
    26   1 H    0.990 --     7 C    0.937
    27   1 H    0.962 --     9 N    0.895
    28   1 H    0.990 --    11 C    0.949
    29   1 H    0.993 --    11 C    0.954
    30   1 H    0.997 --    13 C    0.970
    31   1 H    0.993 --    13 C    0.966
    32   1 H    0.998 --    14 C    0.985
    33   1 H    0.998 --    14 C    0.986
    34   1 H    0.998 --    14 C    0.983
    35   1 H    0.998 --    15 C    0.973
    36   1 H    0.993 --    15 C    0.965
    37   1 H    0.998 --    16 C    0.985
    38   1 H    0.998 --    16 C    0.983
    39   1 H    0.998 --    16 C    0.985
 ---------------------------------------------------------------------------

Topologies differ in total number of bonds
Writing topology from bond orders to xtbtopo.mol

molecular dipole:
                 x           y           z       tot (Debye)
 q only:       -1.719      -1.105       0.482
   full:       -2.214      -1.090       0.488       6.394
molecular quadrupole (traceless):
                xx          xy          yy          xz          yz          zz
 q only:        2.400      -1.302      -6.277       2.581       5.667       3.878
  q+dip:        6.114      -5.235      -7.967       3.483       7.739       1.853
   full:        4.551      -4.403      -8.125       2.839       6.799       3.574


           -------------------------------------------------
          | TOTAL ENERGY              -50.983828834959 Eh   |
          | GRADIENT NORM               0.150208554947 Eh/α |
          | HOMO-LUMO GAP               0.238029227769 eV   |
           -------------------------------------------------

------------------------------------------------------------------------
 * finished run on 2025/05/15 at 16:07:22.654     
------------------------------------------------------------------------
 total:
 * wall-time:     0 d,  0 h,  0 min,  0.069 sec
 *  cpu-time:     0 d,  0 h,  0 min,  0.067 sec
 * ratio c/w:     0.979 speedup
 SCF:
 * wall-time:     0 d,  0 h,  0 min,  0.057 sec
 *  cpu-time:     0 d,  0 h,  0 min,  0.057 sec
 * ratio c/w:     0.995 speedup


