48
 energy: -69.042299827849 gnorm: 0.000553239469 xtb: 6.7.1 (edcfbbe)
O            0.34772579804504        0.52211704316692        2.29553970676372
C           -0.15983853255333       -0.39869203767410        1.36107204707941
C           -0.75874038809818        0.34700781886627        0.14742520988098
N           -1.60738946562623        1.44441993475563        0.61750389688053
C           -1.83130737128582        2.36065274988132       -0.49171572014883
C           -2.38311797909178        1.60214230011828       -1.71724471997137
C           -2.89093114163280        0.95356346262452        1.09930619421985
C           -3.72965401111483        0.33228096517204       -0.04331603743527
C           -4.36355710127533       -0.98262486422746        0.31156963822925
C           -4.79462385524147       -1.33644806495660        1.50824963595907
C           -2.79090274230904        0.19939748561089       -1.25384639721405
C           -1.54077861071059       -0.56735947248029       -0.80932692302032
C            0.90050101168657       -1.36056899134869        0.88573264086148
C            0.61626357588954       -2.70343087634406        0.84558339395322
C            1.56010865024623       -3.60440791757415        0.32693110582960
N            2.72300135376733       -3.24571851261714       -0.13438393217423
C            3.04747370623444       -1.93864578296922       -0.09578066059085
C            2.17240808456051       -0.93348602616914        0.41370218914112
C            2.61343128750497        0.39849685464433        0.41752886365553
C            3.85569518935055        0.74339238659114       -0.07181832144647
O            4.16712482922524        2.06966616806744       -0.02519366417309
C            5.44107466999033        2.48572874806303       -0.45123890161422
C            4.71104446532959       -0.25204644705513       -0.58240631995537
C            4.31129985545500       -1.55884583427370       -0.58658417600327
H           -0.22339257022193        1.30341689376345        2.24737902043126
H           -0.95671592708608       -0.99422976443049        1.84130557167626
H            0.07591876041595        0.81474191353527       -0.38462359018828
H           -2.53375417177272        3.12512422675065       -0.15252387263243
H           -0.88495223834217        2.85445065101881       -0.72596437517316
H           -3.24265062245551        2.12387080918714       -2.14043195651055
H           -1.62405717302965        1.51881027391688       -2.49677192935590
H           -2.70182033893032        0.21368859154722        1.87703518649265
H           -3.41524408968527        1.79522277750272        1.55909819243558
H           -4.54015684973772        1.02018580110850       -0.31764211415135
H           -4.48933063247464       -1.66357928901614       -0.52157210803939
H           -4.71615776593990       -0.69214026138040        2.36803396723667
H           -5.25819952229766       -2.29335832678029        1.67851644719431
H           -3.29357086761123       -0.33354200944191       -2.06601844851654
H           -0.92491558513198       -0.84019281356351       -1.66709620948166
H           -1.84099892750454       -1.48826996340096       -0.30507676345669
H           -0.33105704572976       -3.07758753277619        1.20559849031467
H            1.33844527284599       -4.66358125744409        0.28753956898913
H            1.99879978595414        1.17480774802177        0.84028792701929
H            6.23659904428096        2.01681276797539        0.13644287978792
H            5.60154571134608        2.27711857110189       -1.51418085174987
H            5.46581608610385        3.56267473450509       -0.29133306285634
H            5.68646513912379        0.00582731249254       -0.96477137410995
H            4.95687324952451       -2.33666294405312       -0.96331934406407
