48
 energy: -69.043590722538 gnorm: 0.000486113827 xtb: 6.7.1 (edcfbbe)
O           -0.16036002352070       -1.74045103864431        2.75868862534622
C           -0.25075502952575       -1.05279761466716        1.53127677760110
C            1.01137718963501       -1.35495872760085        0.69258690308438
N            2.20617892836492       -1.09396981786418        1.49938981438521
C            3.33371405681469       -1.78191976669224        0.88361951217394
C            3.44801017007024       -1.40888931988427       -0.61015205163015
C            2.49894813589233        0.33025695056745        1.56536210338106
C            2.94868500193535        0.88332411004307        0.18953413088513
C            2.34966323315734        2.22360381393920       -0.08914066580260
C            3.05478466361824        3.32767402063054       -0.25377273447178
C            2.55540559759732       -0.18508582357953       -0.84943145098694
C            1.09442173144856       -0.60164864860167       -0.64492381832710
C           -1.47130689807045       -1.52179930769733        0.78099805515431
C           -1.78676547489542       -2.85813946646888        0.80596129143073
C           -2.88273019834270       -3.32979209135689        0.06847246352810
N           -3.63641525558787       -2.56788630189747       -0.67187383530357
C           -3.36797958548751       -1.24862493722261       -0.70884494301281
C           -2.29330162092337       -0.65073180211130        0.01467103495824
C           -2.12904266686413        0.74110327347953       -0.07726447115569
C           -2.95638179201205        1.51722726230706       -0.86075512009580
O           -2.68470475377576        2.85316379298995       -0.86981780775525
C           -3.50676483194140        3.70848841818450       -1.62665608527131
C           -4.00173266189686        0.91529280878125       -1.58697663467415
C           -4.19892367252339       -0.43372018910565       -1.50220783298054
H            0.76930312949876       -1.70241880072848        3.02587194630304
H           -0.32131649100919        0.02542582022610        1.73087691865963
H            0.99868198007116       -2.43643259252985        0.51142887842856
H            4.23402947312160       -1.49568001673947        1.43135473907111
H            3.19076841060567       -2.85782332197776        1.01204591557019
H            3.11260990195122       -2.23236396898694       -1.24279595163804
H            4.48165896314503       -1.18217943179131       -0.87406008871254
H            3.28098434797169        0.47882746685546        2.31440016306820
H            1.60840771477248        0.85558774635990        1.91338105052366
H            4.03873433746056        0.98544940005666        0.17246468119177
H            1.26959961412347        2.26357074921372       -0.14275269489141
H            2.58946609087689        4.27951011662582       -0.44468357581287
H            4.13166721576988        3.32601889416175       -0.20398412407783
H            2.70063260415560        0.20486654312117       -1.86042263317107
H            0.45052129444986        0.27653410527663       -0.64217040067165
H            0.76465655384495       -1.24378908111181       -1.46303471793914
H           -1.19677617509107       -3.53825658412289        1.39947790628810
H           -3.13843863999549       -4.38188528095597        0.08119553590589
H           -1.36061730957785        1.25209650987936        0.48053034984825
H           -3.10475929712182        4.70927961758141       -1.47577032962405
H           -4.54456863268510        3.68100921561499       -1.27949117074098
H           -3.47124692574374        3.46399833845095       -2.69313785947585
H           -4.65604308817005        1.51214334931188       -2.20258712301888
H           -5.00197931558161       -0.91320839131957       -2.03948067554625
