----- Optimization -----
      -----------------------------------------------------------      
     |                   =====================                   |     
     |                           x T B                           |     
     |                   =====================                   |     
     |                         S. Grimme                         |     
     |          Mulliken Center for Theoretical Chemistry        |     
     |                    University of Bonn                     |     
      -----------------------------------------------------------      

   * xtb version 6.7.1 (edcfbbe) compiled by 'conda@3ef47c1a292c' on 2024-11-25

   xtb is free software: you can redistribute it and/or modify it under
   the terms of the GNU Lesser General Public License as published by
   the Free Software Foundation, either version 3 of the License, or
   (at your option) any later version.
   
   xtb is distributed in the hope that it will be useful,
   but WITHOUT ANY WARRANTY; without even the implied warranty of
   MERCHANTABILITY or FITNESS FOR A PARTICULAR PURPOSE.  See the
   GNU Lesser General Public License for more details.
   
   Cite this work as:
   * C. Bannwarth, E. Caldeweyher, S. Ehlert, A. Hansen, P. Pracht,
     J. Seibert, S. Spicher, S. Grimme, WIREs Comput. Mol. Sci., 2020, 11,
     e01493. DOI: 10.1002/wcms.1493
   
   for GFN2-xTB:
   * C. Bannwarth, S. Ehlert and S. Grimme., J. Chem. Theory Comput., 2019,
     15, 1652-1671. DOI: 10.1021/acs.jctc.8b01176
   for GFN1-xTB:
   * S. Grimme, C. Bannwarth, P. Shushkov, J. Chem. Theory Comput., 2017,
     13, 1989-2009. DOI: 10.1021/acs.jctc.7b00118
   for GFN0-xTB:
   * P. Pracht, E. Caldeweyher, S. Ehlert, S. Grimme, ChemRxiv, 2019, preprint.
     DOI: 10.26434/chemrxiv.8326202.v1
   for GFN-FF:
   * S. Spicher and S. Grimme, Angew. Chem. Int. Ed., 2020, 59, 15665-15673.
     DOI: 10.1002/anie.202004239
   
   for ALPB and GBSA implicit solvation:
   * S. Ehlert, M. Stahn, S. Spicher, S. Grimme, J. Chem. Theory Comput.,
     2021, 17, 4250-4261. DOI: 10.1021/acs.jctc.1c00471
   
   for ddCOSMO and CPCM-X implicit solvation:
   * M. Stahn, S. Ehlert, S. Grimme, J. Phys. Chem. A,
     2023, XX, XXXX-XXXX. DOI: 10.1021/acs.jpca.3c04382
   
   for DFT-D4:
   * E. Caldeweyher, C. Bannwarth and S. Grimme, J. Chem. Phys., 2017,
     147, 034112. DOI: 10.1063/1.4993215
   * E. Caldeweyher, S. Ehlert, A. Hansen, H. Neugebauer, S. Spicher,
     C. Bannwarth and S. Grimme, J. Chem. Phys., 2019, 150, 154122.
     DOI: 10.1063/1.5090222
   * E. Caldeweyher, J.-M. Mewes, S. Ehlert and S. Grimme, Phys. Chem. Chem. Phys.
     2020, 22, 8499-8512. DOI: 10.1039/D0CP00502A
   
   for sTDA-xTB:
   * S. Grimme and C. Bannwarth, J. Chem. Phys., 2016, 145, 054103.
     DOI: 10.1063/1.4959605
   
   in the mass-spec context:
   * V. Asgeirsson, C. Bauer and S. Grimme, Chem. Sci., 2017, 8, 4879.
     DOI: 10.1039/c7sc00601b
   * J. Koopman and S. Grimme, ACS Omega 2019, 4, 12, 15120-15133.
     DOI: 10.1021/acsomega.9b02011
   
   for metadynamics refer to:
   * S. Grimme, J. Chem. Theory Comput., 2019, 155, 2847-2862
     DOI: 10.1021/acs.jctc.9b00143
   
   for SPH calculations refer to:
   * S. Spicher and S. Grimme, J. Chem. Theory Comput., 2021, 17, 1701-1714
     DOI: 10.1021/acs.jctc.0c01306
   
   for ONIOM refer to:
   * C. Plett, A. Katbashev, S. Ehlert, S. Grimme, M. Bursch,
     Phys. Chem. Chem. Phys., 2023, 25, 17860-17868. DOI: 10.1039/D3CP02178E
   
   for DIPRO refer to:
   * J. Kohn, N. Gildemeister, S. Grimme, D. Fazzi, A. Hansen,
     J. Chem. Phys., 2023, just accepted.
   
   for PTB refer to:
   * S. Grimme, M. Mueller, A. Hansen, J. Chem. Phys., 2023, 158, 124111.
     DOI: 10.1063/5.0137838
   
   with help from (in alphabetical order)
   P. Atkinson, C. Bannwarth, F. Bohle, G. Brandenburg, E. Caldeweyher
   M. Checinski, S. Dohm, S. Ehlert, S. Ehrlich, I. Gerasimov, C. Hölzer
   A. Katbashev, J. Kohn, J. Koopman, C. Lavigne, S. Lehtola, F. März, M. Müller,
   F. Musil, H. Neugebauer, J. Pisarek, C. Plett, P. Pracht, F. Pultar,
   J. Seibert, P. Shushkov, S. Spicher, M. Stahn, M. Steiner, T. Strunk,
   J. Stückrath, T. Rose, and J. Unsleber
   
 * started run on 2025/05/15 at 16:30:29.940     
   ID    Z sym.   atoms
    1    8 O      1, 21
    2    6 C      2, 3, 5-15, 17-20, 22-24
    3    7 N      4, 16
    4    1 H      25-48

           -------------------------------------------------
          |                Calculation Setup                |
           -------------------------------------------------

          program call               : xtb /rds/general/user/hgt20/home/callum/QDESCP/Quinine_rdkit_conf_1/Quinine_rdkit_conf_1.xyz --opt normal --acc 1 --gfn 2 --chrg 0 --uhf 0 -P 1
          hostname                   : login-c
          coordinate file            : /rds/general/user/hgt20/home/callum/QDESCP/Quinine_rdkit_conf_1/Quinine_rdkit_conf_1.xyz
          omp threads                :                     1


           -------------------------------------------------
          |                 G F N 2 - x T B                 |
           -------------------------------------------------

        Reference                      10.1021/acs.jctc.8b01176
      * Hamiltonian:
        H0-scaling (s, p, d)           1.850000    2.230000    2.230000
        zeta-weighting                 0.500000
      * Dispersion:
        s8                             2.700000
        a1                             0.520000
        a2                             5.000000
        s9                             5.000000
      * Repulsion:
        kExp                           1.500000    1.000000
        rExp                           1.000000
      * Coulomb:
        alpha                          2.000000
        third order                    shell-resolved
        anisotropic                    true
        a3                             3.000000
        a5                             4.000000
        cn-shift                       1.200000
        cn-exp                         4.000000
        max-rad                        5.000000


          ...................................................
          :                      SETUP                      :
          :.................................................:
          :  # basis functions                 120          :
          :  # atomic orbitals                 120          :
          :  # shells                           72          :
          :  # electrons                       126          :
          :  max. iterations                   250          :
          :  Hamiltonian                  GFN2-xTB          :
          :  restarted?                      false          :
          :  GBSA solvation                  false          :
          :  PC potential                    false          :
          :  electronic temp.          300.0000000     K    :
          :  accuracy                    1.0000000          :
          :  -> integral cutoff          0.2500000E+02      :
          :  -> integral neglect         0.1000000E-07      :
          :  -> SCF convergence          0.1000000E-05 Eh   :
          :  -> wf. convergence          0.1000000E-03 e    :
          :  Broyden damping             0.4000000          :
          :  net charge                          0          :
          :  unpaired electrons                  0          :
          ...................................................

 iter      E             dE          RMSdq      gap      omega  full diag
   1    -69.8895103 -0.698895E+02  0.377E+00    2.47       0.0  T
   2    -69.9547673 -0.652570E-01  0.225E+00    2.45       1.0  T
   3    -69.9387602  0.160071E-01  0.965E-01    2.30       1.0  T
   4    -69.9582077 -0.194475E-01  0.414E-01    2.26       1.0  T
   5    -69.9635935 -0.538576E-02  0.111E-01    2.19       1.0  T
   6    -69.9639897 -0.396276E-03  0.557E-02    2.23       1.0  T
   7    -69.9640509 -0.611940E-04  0.254E-02    2.21       1.0  T
   8    -69.9640578 -0.682196E-05  0.933E-03    2.22       1.5  T
   9    -69.9640588 -0.106968E-05  0.377E-03    2.22       3.8  T
  10    -69.9640591 -0.275406E-06  0.194E-03    2.22       7.4  T
  11    -69.9640592 -0.109735E-06  0.686E-04    2.22      21.1  T
  12    -69.9640592 -0.247906E-08  0.321E-04    2.22      44.9  T

   *** convergence criteria satisfied after 12 iterations ***

         #    Occupation            Energy/Eh            Energy/eV
      -------------------------------------------------------------
         1        2.0000           -0.7193865             -19.5755
       ...           ...                  ...                  ...
        57        2.0000           -0.4212185             -11.4619
        58        2.0000           -0.4044892             -11.0067
        59        2.0000           -0.4030399             -10.9673
        60        2.0000           -0.3988672             -10.8537
        61        2.0000           -0.3751315             -10.2078
        62        2.0000           -0.3674600              -9.9991
        63        2.0000           -0.3606008              -9.8124 (HOMO)
        64                         -0.2790554              -7.5935 (LUMO)
        65                         -0.2266733              -6.1681
        66                         -0.2141021              -5.8260
        67                         -0.2029926              -5.5237
        68                         -0.1532107              -4.1691
       ...                                ...                  ...
       120                          0.6731839              18.3183
      -------------------------------------------------------------
                  HL-Gap            0.0815453 Eh            2.2190 eV
             Fermi-level           -0.3198281 Eh           -8.7030 eV

 SCC (total)                   0 d,  0 h,  0 min,  0.069 sec
 SCC setup                      ...        0 min,  0.000 sec (  0.655%)
 Dispersion                     ...        0 min,  0.001 sec (  0.847%)
 classical contributions        ...        0 min,  0.000 sec (  0.268%)
 integral evaluation            ...        0 min,  0.009 sec ( 13.196%)
 iterations                     ...        0 min,  0.030 sec ( 43.216%)
 molecular gradient             ...        0 min,  0.029 sec ( 41.515%)
 printout                       ...        0 min,  0.000 sec (  0.293%)

         :::::::::::::::::::::::::::::::::::::::::::::::::::::
         ::                     SUMMARY                     ::
         :::::::::::::::::::::::::::::::::::::::::::::::::::::
         :: total energy             -69.030394948556 Eh    ::
         :: gradient norm              0.104289501666 Eh/a0 ::
         :: HOMO-LUMO gap              2.218961505912 eV    ::
         ::.................................................::
         :: SCC energy               -69.963233475471 Eh    ::
         :: -> isotropic ES            0.057076682720 Eh    ::
         :: -> anisotropic ES          0.008754128269 Eh    ::
         :: -> anisotropic XC          0.037794683121 Eh    ::
         :: -> dispersion             -0.053462455263 Eh    ::
         :: repulsion energy           0.932838526914 Eh    ::
         :: add. restraining           0.000000000000 Eh    ::
         :: total charge              -0.000000000000 e     ::
         :::::::::::::::::::::::::::::::::::::::::::::::::::::

      ----------------------------------------------------------- 
     |                   =====================                   |
     |                        A N C O P T                        |
     |                   =====================                   |
     |               Approximate Normal Coordinate               |
     |                Rational Function Optimizer                |
      ----------------------------------------------------------- 
      ----------------------------------------------------------- 
     |                   =====================                   |
     |                        A N C O P T                        |
     |                   =====================                   |
     |               Approximate Normal Coordinate               |
     |                Rational Function Optimizer                |
      ----------------------------------------------------------- 

          ...................................................
          :                      SETUP                      :
          :.................................................:
          :   optimization level            normal          :
          :   max. optcycles                   200          :
          :   ANC micro-cycles                  20          :
          :   degrees of freedom               138          :
          :.................................................:
          :   RF solver                   davidson          :
          :   write xtbopt.log                true          :
          :   linear?                        false          :
          :   energy convergence         0.5000000E-05 Eh   :
          :   grad. convergence          0.1000000E-02 Eh/α :
          :   maxmium RF displ.          1.0000000          :
          :   Hlow (freq-cutoff)         0.1000000E-01      :
          :   Hmax (freq-cutoff)         5.0000000          :
          :   S6 in model hess.         20.0000000          :
          ...................................................

generating ANC from exact Hessian ...
Using Lindh-Hessian (1995)
 Shifting diagonal of input Hessian by    9.7669827310914743E-003
 Lowest  eigenvalues of input Hessian
    0.000000    0.000000    0.000000    0.000000    0.000000    0.000000
    0.010000    0.010042    0.010519    0.011036    0.011656    0.012430
    0.012908    0.014180    0.014461    0.015209    0.015489    0.016775
 Highest eigenvalues
    1.831804    1.852139    1.958182    1.972352    2.067250    2.165933


........................................................................
.............................. CYCLE    1 ..............................
........................................................................

 iter      E             dE          RMSdq      gap      omega  full diag
   1    -69.9640592 -0.699641E+02  0.117E-04    2.22       0.0  T
   2    -69.9640592 -0.183249E-09  0.862E-05    2.22     167.5  T
   3    -69.9640592 -0.224972E-09  0.470E-05    2.22     306.9  T
     SCC iter.                  ...        0 min,  0.022 sec
     gradient                   ...        0 min,  0.029 sec
 * total energy  :   -69.0303950 Eh     change       -0.2056083E-08 Eh
   gradient norm :     0.1042926 Eh/α   predicted     0.0000000E+00 (-100.00%)
   displ. norm   :     0.3227406 α      lambda       -0.1528990E-01
   maximum displ.:     0.1095241 α      in ANC's #12, #51, #44, ...

........................................................................
.............................. CYCLE    2 ..............................
........................................................................

 iter      E             dE          RMSdq      gap      omega  full diag
   1    -70.0050956 -0.700051E+02  0.182E-01    2.32       0.0  T
   2    -70.0051847 -0.890571E-04  0.112E-01    2.35       1.0  T
   3    -70.0051383  0.463385E-04  0.453E-02    2.34       1.0  T
   4    -70.0052017 -0.633345E-04  0.122E-02    2.35       1.2  T
   5    -70.0052078 -0.610664E-05  0.397E-03    2.35       3.6  T
   6    -70.0052080 -0.247610E-06  0.175E-03    2.35       8.2  T
   7    -70.0052081 -0.168883E-07  0.803E-04    2.35      18.0  T
   8    -70.0052081 -0.137922E-07  0.267E-04    2.35      54.0  T
     SCC iter.                  ...        0 min,  0.019 sec
     gradient                   ...        0 min,  0.029 sec
 * total energy  :   -69.0407615 Eh     change       -0.1036653E-01 Eh
   gradient norm :     0.0430819 Eh/α   predicted    -0.8448572E-02 ( -18.50%)
   displ. norm   :     0.2525962 α      lambda       -0.4052731E-02
   maximum displ.:     0.1376052 α      in ANC's #12, #46, #23, ...

........................................................................
.............................. CYCLE    3 ..............................
........................................................................

 iter      E             dE          RMSdq      gap      omega  full diag
   1    -70.0274481 -0.700274E+02  0.101E-01    2.42       0.0  T
   2    -70.0274968 -0.486438E-04  0.640E-02    2.43       1.0  T
   3    -70.0274881  0.869097E-05  0.292E-02    2.43       1.0  T
   4    -70.0275035 -0.153999E-04  0.889E-03    2.43       1.6  T
   5    -70.0275063 -0.287521E-05  0.257E-03    2.43       5.6  T
   6    -70.0275065 -0.158042E-06  0.106E-03    2.43      13.6  T
   7    -70.0275065 -0.723583E-08  0.480E-04    2.43      30.1  T
   8    -70.0275065 -0.503309E-08  0.178E-04    2.43      81.1  T
     SCC iter.                  ...        0 min,  0.019 sec
     gradient                   ...        0 min,  0.029 sec
 * total energy  :   -69.0429744 Eh     change       -0.2212917E-02 Eh
   gradient norm :     0.0090309 Eh/α   predicted    -0.2156738E-02 (  -2.54%)
   displ. norm   :     0.1209616 α      lambda       -0.3475423E-03
   maximum displ.:     0.0821901 α      in ANC's #12, #3, #9, ...

........................................................................
.............................. CYCLE    4 ..............................
........................................................................

 iter      E             dE          RMSdq      gap      omega  full diag
   1    -70.0278785 -0.700279E+02  0.357E-02    2.43       0.0  T
   2    -70.0278807 -0.210561E-05  0.219E-02    2.43       1.0  T
   3    -70.0278786  0.203849E-05  0.687E-03    2.43       2.1  T
   4    -70.0278809 -0.231771E-05  0.217E-03    2.43       6.7  T
   5    -70.0278811 -0.200995E-06  0.632E-04    2.43      22.8  T
   6    -70.0278811 -0.611978E-08  0.322E-04    2.43      44.8  T
     SCC iter.                  ...        0 min,  0.014 sec
     gradient                   ...        0 min,  0.034 sec
 * total energy  :   -69.0432115 Eh     change       -0.2370655E-03 Eh
   gradient norm :     0.0043001 Eh/α   predicted    -0.1763324E-03 ( -25.62%)
   displ. norm   :     0.1213292 α      lambda       -0.1613999E-03
   maximum displ.:     0.0714918 α      in ANC's #12, #3, #9, ...

........................................................................
.............................. CYCLE    5 ..............................
........................................................................

 iter      E             dE          RMSdq      gap      omega  full diag
   1    -70.0275785 -0.700276E+02  0.329E-02    2.43       0.0  T
   2    -70.0275796 -0.107641E-05  0.199E-02    2.43       1.0  T
   3    -70.0275778  0.174549E-05  0.611E-03    2.43       2.4  T
   4    -70.0275798 -0.200542E-05  0.145E-03    2.43      10.0  T
   5    -70.0275799 -0.875844E-07  0.522E-04    2.43      27.6  T
   6    -70.0275799 -0.283718E-08  0.273E-04    2.43      52.8  T
     SCC iter.                  ...        0 min,  0.014 sec
     gradient                   ...        0 min,  0.029 sec
 * total energy  :   -69.0433011 Eh     change       -0.8967319E-04 Eh
   gradient norm :     0.0021550 Eh/α   predicted    -0.8189341E-04 (  -8.68%)
   displ. norm   :     0.0648335 α      lambda       -0.3913220E-04
   maximum displ.:     0.0417749 α      in ANC's #3, #2, #7, ...

........................................................................
.............................. CYCLE    6 ..............................
........................................................................

 iter      E             dE          RMSdq      gap      omega  full diag
   1    -70.0276232 -0.700276E+02  0.183E-02    2.43       0.0  T
   2    -70.0276233 -0.125387E-06  0.108E-02    2.43       1.3  T
   3    -70.0276231  0.188628E-06  0.227E-03    2.43       6.4  T
   4    -70.0276234 -0.239549E-06  0.545E-04    2.43      26.5  T
   5    -70.0276234 -0.355672E-08  0.278E-04    2.43      52.0  T
     SCC iter.                  ...        0 min,  0.027 sec
     gradient                   ...        0 min,  0.029 sec
 * total energy  :   -69.0433242 Eh     change       -0.2310162E-04 Eh
   gradient norm :     0.0018949 Eh/α   predicted    -0.1964915E-04 ( -14.94%)
   displ. norm   :     0.0987962 α      lambda       -0.2956249E-04
   maximum displ.:     0.0692238 α      in ANC's #3, #2, #7, ...

........................................................................
.............................. CYCLE    7 ..............................
........................................................................

 iter      E             dE          RMSdq      gap      omega  full diag
   1    -70.0278484 -0.700278E+02  0.258E-02    2.43       0.0  T
   2    -70.0278487 -0.305566E-06  0.150E-02    2.43       1.0  T
   3    -70.0278486  0.106928E-06  0.225E-03    2.43       6.4  T
   4    -70.0278488 -0.195746E-06  0.771E-04    2.43      18.7  T
   5    -70.0278488 -0.574347E-08  0.320E-04    2.43      45.2  T
     SCC iter.                  ...        0 min,  0.012 sec
     gradient                   ...        0 min,  0.029 sec
 * total energy  :   -69.0433564 Eh     change       -0.3217372E-04 Eh
   gradient norm :     0.0016293 Eh/α   predicted    -0.1484728E-04 ( -53.85%)
   displ. norm   :     0.1234624 α      lambda       -0.2982150E-04
   maximum displ.:     0.0843061 α      in ANC's #3, #2, #4, ...

........................................................................
.............................. CYCLE    8 ..............................
........................................................................

 iter      E             dE          RMSdq      gap      omega  full diag
   1    -70.0280775 -0.700281E+02  0.306E-02    2.43       0.0  T
   2    -70.0280779 -0.357726E-06  0.178E-02    2.43       1.0  T
   3    -70.0280777  0.154124E-06  0.283E-03    2.43       5.1  T
   4    -70.0280779 -0.250010E-06  0.104E-03    2.43      13.9  T
   5    -70.0280780 -0.160873E-07  0.456E-04    2.43      31.7  T
   6    -70.0280780 -0.345820E-08  0.120E-04    2.43     120.6  T
     SCC iter.                  ...        0 min,  0.014 sec
     gradient                   ...        0 min,  0.029 sec
 * total energy  :   -69.0433915 Eh     change       -0.3509050E-04 Eh
   gradient norm :     0.0017250 Eh/α   predicted    -0.1501221E-04 ( -57.22%)
   displ. norm   :     0.1796512 α      lambda       -0.3345027E-04
   maximum displ.:     0.1178856 α      in ANC's #3, #2, #4, ...

........................................................................
.............................. CYCLE    9 ..............................
........................................................................

 iter      E             dE          RMSdq      gap      omega  full diag
   1    -70.0279782 -0.700280E+02  0.408E-02    2.43       0.0  T
   2    -70.0279786 -0.442753E-06  0.238E-02    2.43       1.0  T
   3    -70.0279782  0.407882E-06  0.369E-03    2.43       3.9  T
   4    -70.0279788 -0.571668E-06  0.122E-03    2.43      11.8  T
   5    -70.0279788 -0.177051E-07  0.439E-04    2.43      32.9  T
   6    -70.0279788 -0.407891E-08  0.110E-04    2.43     131.5  T
     SCC iter.                  ...        0 min,  0.047 sec
     gradient                   ...        0 min,  0.029 sec
 * total energy  :   -69.0434328 Eh     change       -0.4127682E-04 Eh
   gradient norm :     0.0016355 Eh/α   predicted    -0.1696771E-04 ( -58.89%)
   displ. norm   :     0.2586503 α      lambda       -0.4124838E-04
   maximum displ.:     0.1646770 α      in ANC's #3, #2, #4, ...

........................................................................
.............................. CYCLE   10 ..............................
........................................................................

 iter      E             dE          RMSdq      gap      omega  full diag
   1    -70.0277965 -0.700278E+02  0.569E-02    2.43       0.0  T
   2    -70.0277972 -0.744190E-06  0.332E-02    2.43       1.0  T
   3    -70.0277963  0.869800E-06  0.509E-03    2.43       2.8  T
   4    -70.0277975 -0.114722E-05  0.157E-03    2.43       9.2  T
   5    -70.0277975 -0.320684E-07  0.601E-04    2.43      24.0  T
   6    -70.0277975 -0.556207E-08  0.173E-04    2.43      83.3  T
     SCC iter.                  ...        0 min,  0.014 sec
     gradient                   ...        0 min,  0.056 sec
 * total energy  :   -69.0434825 Eh     change       -0.4974331E-04 Eh
   gradient norm :     0.0014439 Eh/α   predicted    -0.2123917E-04 ( -57.30%)
   displ. norm   :     0.3199240 α      lambda       -0.4292362E-04
   maximum displ.:     0.2012829 α      in ANC's #3, #2, #4, ...

........................................................................
.............................. CYCLE   11 ..............................
........................................................................

 iter      E             dE          RMSdq      gap      omega  full diag
   1    -70.0276899 -0.700277E+02  0.709E-02    2.43       0.0  T
   2    -70.0276909 -0.101734E-05  0.416E-02    2.43       1.0  T
   3    -70.0276902  0.765568E-06  0.503E-03    2.43       2.9  T
   4    -70.0276913 -0.112032E-05  0.185E-03    2.43       7.8  T
   5    -70.0276913 -0.427818E-07  0.826E-04    2.43      17.5  T
   6    -70.0276913 -0.141770E-07  0.260E-04    2.43      55.5  T
     SCC iter.                  ...        0 min,  0.014 sec
     gradient                   ...        0 min,  0.029 sec
 * total energy  :   -69.0435304 Eh     change       -0.4787119E-04 Eh
   gradient norm :     0.0014233 Eh/α   predicted    -0.2243862E-04 ( -53.13%)
   displ. norm   :     0.3049099 α      lambda       -0.3216017E-04
   maximum displ.:     0.1899122 α      in ANC's #3, #2, #4, ...

........................................................................
.............................. CYCLE   12 ..............................
........................................................................

 iter      E             dE          RMSdq      gap      omega  full diag
   1    -70.0275420 -0.700275E+02  0.707E-02    2.43       0.0  T
   2    -70.0275430 -0.949102E-06  0.415E-02    2.43       1.0  T
   3    -70.0275420  0.918371E-06  0.536E-03    2.43       2.7  T
   4    -70.0275433 -0.127725E-05  0.183E-03    2.43       7.9  T
   5    -70.0275434 -0.375040E-07  0.843E-04    2.43      17.1  T
   6    -70.0275434 -0.137648E-07  0.276E-04    2.43      52.4  T
     SCC iter.                  ...        0 min,  0.014 sec
     gradient                   ...        0 min,  0.029 sec
 * total energy  :   -69.0435622 Eh     change       -0.3181338E-04 Eh
   gradient norm :     0.0013217 Eh/α   predicted    -0.1674797E-04 ( -47.36%)
   displ. norm   :     0.1808705 α      lambda       -0.1686312E-04
   maximum displ.:     0.1095635 α      in ANC's #3, #2, #6, ...

........................................................................
.............................. CYCLE   13 ..............................
........................................................................

 iter      E             dE          RMSdq      gap      omega  full diag
   1    -70.0282740 -0.700283E+02  0.455E-02    2.43       0.0  T
   2    -70.0282743 -0.336030E-06  0.269E-02    2.43       1.0  T
   3    -70.0282742  0.955907E-07  0.241E-03    2.43       6.0  T
   4    -70.0282744 -0.220335E-06  0.109E-03    2.43      13.3  T
   5    -70.0282744 -0.100226E-07  0.507E-04    2.43      28.4  T
   6    -70.0282744 -0.627857E-08  0.181E-04    2.43      79.9  T
     SCC iter.                  ...        0 min,  0.014 sec
     gradient                   ...        0 min,  0.056 sec
 * total energy  :   -69.0435780 Eh     change       -0.1582017E-04 Eh
   gradient norm :     0.0009065 Eh/α   predicted    -0.8556695E-05 ( -45.91%)
   displ. norm   :     0.1811377 α      lambda        0.5109894E-05
   maximum displ.:     0.1097239 α      in ANC's #3, #2, #6, ...

........................................................................
.............................. CYCLE   14 ..............................
........................................................................

 iter      E             dE          RMSdq      gap      omega  full diag
   1    -70.0286067 -0.700286E+02  0.455E-02    2.43       0.0  T
   2    -70.0286071 -0.338745E-06  0.269E-02    2.43       1.0  T
   3    -70.0286069  0.142865E-06  0.260E-03    2.43       5.5  T
   4    -70.0286072 -0.272798E-06  0.110E-03    2.43      13.2  T
   5    -70.0286072 -0.913727E-08  0.508E-04    2.43      28.4  T
   6    -70.0286072 -0.651877E-08  0.183E-04    2.43      78.9  T
     SCC iter.                  ...        0 min,  0.014 sec
     gradient                   ...        0 min,  0.062 sec
 * total energy  :   -69.0435752 Eh     change        0.2830816E-05 Eh
   gradient norm :     0.0019634 Eh/α   predicted     0.2592192E-05 (  -8.43%)
   displ. norm   :     0.0862087 α      lambda       -0.1257526E-04
   maximum displ.:     0.0532835 α      in ANC's #3, #4, #2, ...

........................................................................
.............................. CYCLE   15 ..............................
........................................................................

 iter      E             dE          RMSdq      gap      omega  full diag
   1    -70.0288300 -0.700288E+02  0.200E-02    2.43       0.0  T
   2    -70.0288301 -0.111672E-06  0.117E-02    2.43       1.2  T
   3    -70.0288300  0.507432E-07  0.137E-03    2.43      10.5  T
   4    -70.0288301 -0.742663E-07  0.506E-04    2.43      28.5  T
   5    -70.0288301 -0.585827E-08  0.228E-04    2.43      63.3  T
     SCC iter.                  ...        0 min,  0.012 sec
     gradient                   ...        0 min,  0.029 sec
 * total energy  :   -69.0435863 Eh     change       -0.1106857E-04 Eh
   gradient norm :     0.0006845 Eh/α   predicted    -0.6311593E-05 ( -42.98%)
   displ. norm   :     0.0437121 α      lambda       -0.4134193E-05
   maximum displ.:     0.0214848 α      in ANC's #3, #4, #7, ...

........................................................................
.............................. CYCLE   16 ..............................
........................................................................

 iter      E             dE          RMSdq      gap      omega  full diag
   1    -70.0283815 -0.700284E+02  0.840E-03    2.43       0.0  T
   2    -70.0283815 -0.289788E-07  0.496E-03    2.43       2.9  T
   3    -70.0283815  0.174423E-07  0.728E-04    2.43      19.8  T
   4    -70.0283815 -0.243058E-07  0.219E-04    2.43      65.9  T
     SCC iter.                  ...        0 min,  0.010 sec
     gradient                   ...        0 min,  0.029 sec
 * total energy  :   -69.0435907 Eh     change       -0.4456859E-05 Eh
   gradient norm :     0.0004858 Eh/α   predicted    -0.2072912E-05 ( -53.49%)
   displ. norm   :     0.0530587 α      lambda       -0.4123171E-05
   maximum displ.:     0.0302716 α      in ANC's #7, #4, #9, ...

   *** GEOMETRY OPTIMIZATION CONVERGED AFTER 16 ITERATIONS ***

------------------------------------------------------------------------
 total energy gain   :        -0.0131958 Eh       -8.2805 kcal/mol
 total RMSD          :         0.2632749 a0        0.1393 Å
 total power (kW/mol):        -2.1653436 (step)  -31.1572 (real)
------------------------------------------------------------------------

 ANCopt (total)                0 d,  0 h,  0 min,  1.112 sec
 optimizer setup                ...        0 min,  0.000 sec (  0.007%)
 model hessian                  ...        0 min,  0.033 sec (  2.934%)
 ANC generation                 ...        0 min,  0.002 sec (  0.172%)
 coordinate transformation      ...        0 min,  0.000 sec (  0.013%)
 single point calculation       ...        0 min,  1.073 sec ( 96.452%)
 optimization log               ...        0 min,  0.003 sec (  0.252%)
 hessian update                 ...        0 min,  0.000 sec (  0.022%)
 rational function              ...        0 min,  0.001 sec (  0.097%)

================
 final structure:
================
48
 xtb: 6.7.1 (edcfbbe)
O           -0.16036002352070       -1.74045103864431        2.75868862534622
C           -0.25075502952575       -1.05279761466716        1.53127677760110
C            1.01137718963501       -1.35495872760085        0.69258690308438
N            2.20617892836492       -1.09396981786418        1.49938981438521
C            3.33371405681469       -1.78191976669224        0.88361951217394
C            3.44801017007024       -1.40888931988427       -0.61015205163015
C            2.49894813589233        0.33025695056745        1.56536210338106
C            2.94868500193535        0.88332411004307        0.18953413088513
C            2.34966323315734        2.22360381393920       -0.08914066580260
C            3.05478466361824        3.32767402063054       -0.25377273447178
C            2.55540559759732       -0.18508582357953       -0.84943145098694
C            1.09442173144856       -0.60164864860167       -0.64492381832710
C           -1.47130689807045       -1.52179930769733        0.78099805515431
C           -1.78676547489542       -2.85813946646888        0.80596129143073
C           -2.88273019834270       -3.32979209135689        0.06847246352810
N           -3.63641525558787       -2.56788630189747       -0.67187383530357
C           -3.36797958548751       -1.24862493722261       -0.70884494301281
C           -2.29330162092337       -0.65073180211130        0.01467103495824
C           -2.12904266686413        0.74110327347953       -0.07726447115569
C           -2.95638179201205        1.51722726230706       -0.86075512009580
O           -2.68470475377576        2.85316379298995       -0.86981780775525
C           -3.50676483194140        3.70848841818450       -1.62665608527131
C           -4.00173266189686        0.91529280878125       -1.58697663467415
C           -4.19892367252339       -0.43372018910565       -1.50220783298054
H            0.76930312949876       -1.70241880072848        3.02587194630304
H           -0.32131649100919        0.02542582022610        1.73087691865963
H            0.99868198007116       -2.43643259252985        0.51142887842856
H            4.23402947312160       -1.49568001673947        1.43135473907111
H            3.19076841060567       -2.85782332197776        1.01204591557019
H            3.11260990195122       -2.23236396898694       -1.24279595163804
H            4.48165896314503       -1.18217943179131       -0.87406008871254
H            3.28098434797169        0.47882746685546        2.31440016306820
H            1.60840771477248        0.85558774635990        1.91338105052366
H            4.03873433746056        0.98544940005666        0.17246468119177
H            1.26959961412347        2.26357074921372       -0.14275269489141
H            2.58946609087689        4.27951011662582       -0.44468357581287
H            4.13166721576988        3.32601889416175       -0.20398412407783
H            2.70063260415560        0.20486654312117       -1.86042263317107
H            0.45052129444986        0.27653410527663       -0.64217040067165
H            0.76465655384495       -1.24378908111181       -1.46303471793914
H           -1.19677617509107       -3.53825658412289        1.39947790628810
H           -3.13843863999549       -4.38188528095597        0.08119553590589
H           -1.36061730957785        1.25209650987936        0.48053034984825
H           -3.10475929712182        4.70927961758141       -1.47577032962405
H           -4.54456863268510        3.68100921561499       -1.27949117074098
H           -3.47124692574374        3.46399833845095       -2.69313785947585
H           -4.65604308817005        1.51214334931188       -2.20258712301888
H           -5.00197931558161       -0.91320839131957       -2.03948067554625

 Bond Distances (Angstroems)
 ---------------------------
O1-C2=1.4098         O1-H25=0.9680        C2-O1=1.4098         C2-C3=1.5452         C2-C13=1.5075        C2-H26=1.0988        
C3-C2=1.5452         C3-N4=1.4651         C3-C12=1.5373        C3-H27=1.0966        N4-C3=1.4651         N4-C5=1.4573         
N4-C7=1.4555         C5-N4=1.4573         C5-C6=1.5439         C5-H28=1.0920        C5-H29=1.0929        C6-C5=1.5439         
C6-C11=1.5335        C6-H30=1.0913        C6-H31=1.0906        C7-N4=1.4555         C7-C8=1.5495         C7-H32=1.0930        
C7-H33=1.0909        C8-C7=1.5495         C8-C9=1.4943         C8-C11=1.5413        C8-H34=1.0950        C9-C8=1.4943         
C9-C10=1.3203        C9-H35=1.0821        C10-C9=1.3203        C10-H36=1.0766       C10-H37=1.0780       C11-C6=1.5335        
C11-C8=1.5413        C11-C12=1.5329       C11-H38=1.0933       C12-C3=1.5373        C12-C11=1.5329       C12-H39=1.0890       
C12-H40=1.0911       C13-C2=1.5075        C13-C14=1.3733       C13-C18=1.4219       C14-C13=1.3733       C14-C15=1.4027       
C14-H41=1.0784       C15-C14=1.4027       C15-N16=1.3026       C15-H42=1.0828       N16-C15=1.3026       N16-C17=1.3468       
C17-N16=1.3468       C17-C18=1.4268       C17-C24=1.4085       C18-C13=1.4219       C18-C17=1.4268       C18-C19=1.4045       
C19-C18=1.4045       C19-C20=1.3787       C19-H43=1.0783       C20-C19=1.3787       C20-O21=1.3633       C20-C23=1.4080       
O21-C20=1.3633       O21-C22=1.4072       C22-O21=1.4072       C22-H44=1.0890       C22-H45=1.0947       C22-H46=1.0947       
C23-C20=1.4080       C23-C24=1.3660       C23-H47=1.0786       C24-C17=1.4085       C24-C23=1.3660       C24-H48=1.0786       
H25-O1=0.9680        H26-C2=1.0988        H27-C3=1.0966        H28-C5=1.0920        H29-C5=1.0929        H30-C6=1.0913        
H31-C6=1.0906        H32-C7=1.0930        H33-C7=1.0909        H34-C8=1.0950        H35-C9=1.0821        H36-C10=1.0766       
H37-C10=1.0780       H38-C11=1.0933       H39-C12=1.0890       H40-C12=1.0911       H41-C14=1.0784       H42-C15=1.0828       
H43-C19=1.0783       H44-C22=1.0890       H45-C22=1.0947       H46-C22=1.0947       H47-C23=1.0786       H48-C24=1.0786       
 C  H  Rav=1.0881 sigma=0.0070  Rmin=1.0766  Rmax=1.0988    23
 C  C  Rav=1.4577 sigma=0.0746  Rmin=1.3203  Rmax=1.5495    19
 N  C  Rav=1.4055 sigma=0.0675  Rmin=1.3026  Rmax=1.4651     5
 O  H  Rav=0.9680 sigma=0.0000  Rmin=0.9680  Rmax=0.9680     1
 O  C  Rav=1.3934 sigma=0.0213  Rmin=1.3633  Rmax=1.4098     3

 selected bond angles (degree)
 --------------------
H25-O1-C2=106.42               C3-C2-O1=108.95                C13-C2-O1=109.48               C13-C2-C3=109.29               
H26-C2-O1=108.94               H26-C2-C3=110.06               H26-C2-C13=110.10              N4-C3-C2=109.41                
C12-C3-C2=114.87               C12-C3-N4=110.35               H27-C3-C2=105.85               H27-C3-N4=106.03               
H27-C3-C12=109.89              C5-N4-C3=108.31                C7-N4-C3=111.30                C7-N4-C5=108.99                
C6-C5-N4=110.61                H28-C5-N4=107.59               H28-C5-C6=111.16               H29-C5-N4=108.29               
H29-C5-C6=111.18               H29-C5-H28=107.87              C11-C6-C5=107.50               H30-C6-C5=110.84               
H30-C6-C11=109.44              H31-C6-C5=110.76               H31-C6-C11=110.37              H31-C6-H30=107.93              
C8-C7-N4=111.55                H32-C7-N4=107.94               H32-C7-C8=110.63               H33-C7-N4=108.75               
H33-C7-C8=110.38               H33-C7-H32=107.46              C9-C8-C7=111.68                C11-C8-C7=106.08               
C11-C8-C9=113.19               H34-C8-C7=109.64               H34-C8-C9=108.21               H34-C8-C11=107.95              
C10-C9-C8=124.00               H35-C9-C8=116.26               H35-C9-C10=119.73              H36-C10-C9=122.05              
H37-C10-C9=121.76              H37-C10-H36=116.19             

 selected dihedral angles (degree)
 ---------------------------------
C3-C2-O1-H25= 37.60           C13-C2-O1-H25=157.07          H26-C2-O1-H25=277.52          N4-C3-C2-O1=308.29            
N4-C3-C2-C13=188.71           N4-C3-C2-H26= 67.68           C12-C3-C2-O1=183.56           C12-C3-C2-C13= 63.97          
C12-C3-C2-H26=302.95          H27-C3-C2-O1= 62.14           H27-C3-C2-C13=302.56          H27-C3-C2-H26=181.53          
C5-N4-C3-C2=161.51            C5-N4-C3-C12=288.83           C5-N4-C3-H27= 47.78           C7-N4-C3-C2=281.31            
C7-N4-C3-C12= 48.64           C7-N4-C3-H27=167.58           C6-C5-N4-C3= 52.58            C6-C5-N4-C7=291.34            
H28-C5-N4-C3=174.16           H28-C5-N4-C7= 52.92           H29-C5-N4-C3=290.52           H29-C5-N4-C7=169.28           
C11-C6-C5-N4= 13.77           C11-C6-C5-H28=254.32          C11-C6-C5-H29=134.13          H30-C6-C5-N4=254.20           
H30-C6-C5-H28=134.75          H30-C6-C5-H29= 14.56          H31-C6-C5-N4=134.42           H31-C6-C5-H28= 14.97          
H31-C6-C5-H29=254.78          C8-C7-N4-C3=291.82            C8-C7-N4-C5= 51.22            H32-C7-N4-C3=170.09           
H32-C7-N4-C5=289.49           H33-C7-N4-C3= 53.80           H33-C7-N4-C5=173.20           C9-C8-C7-N4=139.06            
C9-C8-C7-H32=259.23           C9-C8-C7-H33= 18.03           C11-C8-C7-N4= 15.31           C11-C8-C7-H32=135.48          
C11-C8-C7-H33=254.28          H34-C8-C7-N4=258.99           H34-C8-C7-H32= 19.15          H34-C8-C7-H33=137.96          
C10-C9-C8-C7=117.66           C10-C9-C8-C11=237.30          C10-C9-C8-H34=356.90          H35-C9-C8-C7=298.37           
H35-C9-C8-C11= 58.01          H35-C9-C8-H34=177.61          H36-C10-C9-C8=180.56          H36-C10-C9-H35=359.83         
H37-C10-C9-C8=  0.54          H37-C10-C9-H35=179.81         
           -------------------------------------------------
          |                Final Singlepoint                |
           -------------------------------------------------

          ...................................................
          :                      SETUP                      :
          :.................................................:
          :  # basis functions                 120          :
          :  # atomic orbitals                 120          :
          :  # shells                           72          :
          :  # electrons                       126          :
          :  max. iterations                   250          :
          :  Hamiltonian                  GFN2-xTB          :
          :  restarted?                      false          :
          :  GBSA solvation                  false          :
          :  PC potential                    false          :
          :  electronic temp.          300.0000000     K    :
          :  accuracy                    1.0000000          :
          :  -> integral cutoff          0.2500000E+02      :
          :  -> integral neglect         0.1000000E-07      :
          :  -> SCF convergence          0.1000000E-05 Eh   :
          :  -> wf. convergence          0.1000000E-03 e    :
          :  Broyden damping             0.4000000          :
          :  net charge                          0          :
          :  unpaired electrons                  0          :
          ...................................................

 iter      E             dE          RMSdq      gap      omega  full diag
   1    -70.0283815 -0.700284E+02  0.110E-04    2.43       0.0  T
   2    -70.0283815 -0.441673E-10  0.708E-05    2.43     203.9  T
   3    -70.0283815 -0.202789E-10  0.470E-05    2.43     307.0  T

   *** convergence criteria satisfied after 3 iterations ***

         #    Occupation            Energy/Eh            Energy/eV
      -------------------------------------------------------------
         1        2.0000           -0.7213808             -19.6298
       ...           ...                  ...                  ...
        57        2.0000           -0.4211320             -11.4596
        58        2.0000           -0.4057888             -11.0421
        59        2.0000           -0.4046756             -11.0118
        60        2.0000           -0.3972496             -10.8097
        61        2.0000           -0.3763351             -10.2406
        62        2.0000           -0.3615373              -9.8379
        63        2.0000           -0.3593442              -9.7783 (HOMO)
        64                         -0.2700615              -7.3487 (LUMO)
        65                         -0.2291488              -6.2355
        66                         -0.2077321              -5.6527
        67                         -0.1989978              -5.4150
        68                         -0.1490103              -4.0548
       ...                                ...                  ...
       120                          0.6838200              18.6077
      -------------------------------------------------------------
                  HL-Gap            0.0892827 Eh            2.4295 eV
             Fermi-level           -0.3147028 Eh           -8.5635 eV

 SCC (total)                   0 d,  0 h,  0 min,  0.067 sec
 SCC setup                      ...        0 min,  0.000 sec (  0.537%)
 Dispersion                     ...        0 min,  0.000 sec (  0.569%)
 classical contributions        ...        0 min,  0.000 sec (  0.265%)
 integral evaluation            ...        0 min,  0.009 sec ( 13.210%)
 iterations                     ...        0 min,  0.007 sec ( 10.740%)
 molecular gradient             ...        0 min,  0.050 sec ( 74.421%)
 printout                       ...        0 min,  0.000 sec (  0.245%)

         :::::::::::::::::::::::::::::::::::::::::::::::::::::
         ::                     SUMMARY                     ::
         :::::::::::::::::::::::::::::::::::::::::::::::::::::
         :: total energy             -69.043590722538 Eh    ::
         :: gradient norm              0.000486113827 Eh/a0 ::
         :: HOMO-LUMO gap              2.429506012620 eV    ::
         ::.................................................::
         :: SCC energy               -70.027458409500 Eh    ::
         :: -> isotropic ES            0.055245548918 Eh    ::
         :: -> anisotropic ES          0.007869530604 Eh    ::
         :: -> anisotropic XC          0.036067550390 Eh    ::
         :: -> dispersion             -0.054564621978 Eh    ::
         :: repulsion energy           0.983867686962 Eh    ::
         :: add. restraining           0.000000000000 Eh    ::
         :: total charge              -0.000000000000 e     ::
         :::::::::::::::::::::::::::::::::::::::::::::::::::::

           -------------------------------------------------
          |                Property Printout                |
           -------------------------------------------------

    * Orbital Energies and Occupations

         #    Occupation            Energy/Eh            Energy/eV
      -------------------------------------------------------------
         1        2.0000           -0.7213808             -19.6298
       ...           ...                  ...                  ...
        51        2.0000           -0.4419159             -12.0251
        52        2.0000           -0.4407147             -11.9925
        53        2.0000           -0.4376327             -11.9086
        54        2.0000           -0.4340109             -11.8100
        55        2.0000           -0.4265723             -11.6076
        56        2.0000           -0.4249642             -11.5639
        57        2.0000           -0.4211320             -11.4596
        58        2.0000           -0.4057888             -11.0421
        59        2.0000           -0.4046756             -11.0118
        60        2.0000           -0.3972496             -10.8097
        61        2.0000           -0.3763351             -10.2406
        62        2.0000           -0.3615373              -9.8379
        63        2.0000           -0.3593442              -9.7783 (HOMO)
        64                         -0.2700615              -7.3487 (LUMO)
        65                         -0.2291488              -6.2355
        66                         -0.2077321              -5.6527
        67                         -0.1989978              -5.4150
        68                         -0.1490103              -4.0548
        69                         -0.0665167              -1.8100
        70                          0.0133779               0.3640
        71                          0.0237132               0.6453
        72                          0.0272048               0.7403
        73                          0.0403249               1.0973
        74                          0.0543009               1.4776
       ...                                ...                  ...
       120                          0.6838200              18.6077
      -------------------------------------------------------------
                  HL-Gap            0.0892827 Eh            2.4295 eV
             Fermi-level           -0.3147028 Eh           -8.5635 eV

     #   Z          covCN         q      C6AA      α(0)
     1   8 O        1.656    -0.447    21.789     6.301
     2   6 C        3.733     0.109    18.870     6.200
     3   6 C        3.827     0.035    19.973     6.359
     4   7 N        2.729    -0.198    25.289     7.469
     5   6 C        3.783     0.009    20.439     6.440
     6   6 C        3.809    -0.065    21.733     6.636
     7   6 C        3.776     0.010    20.436     6.441
     8   6 C        3.862    -0.029    21.044     6.524
     9   6 C        2.889    -0.032    28.803     8.799
    10   6 C        2.837    -0.094    30.354     9.029
    11   6 C        3.866    -0.006    20.638     6.460
    12   6 C        3.808    -0.065    21.745     6.638
    13   6 C        2.973     0.014    27.700     8.633
    14   6 C        2.916    -0.043    29.061     8.840
    15   6 C        2.904     0.061    26.638     8.463
    16   7 N        1.843    -0.233    26.951     7.694
    17   6 C        2.977     0.081    26.181     8.393
    18   6 C        2.981    -0.004    28.124     8.699
    19   6 C        2.918    -0.066    29.651     8.929
    20   6 C        2.861     0.143    24.889     8.177
    21   8 O        1.706    -0.270    18.479     5.804
    22   6 C        3.643     0.038    20.280     6.474
    23   6 C        2.913    -0.061    29.507     8.907
    24   6 C        2.923    -0.039    28.973     8.827
    25   1 H        0.805     0.303     0.711     1.325
    26   1 H        0.923     0.020     2.727     2.582
    27   1 H        0.924     0.036     2.497     2.471
    28   1 H        0.924     0.034     2.525     2.485
    29   1 H        0.924     0.032     2.560     2.502
    30   1 H        0.924     0.030     2.584     2.514
    31   1 H        0.924     0.029     2.598     2.521
    32   1 H        0.924     0.031     2.566     2.505
    33   1 H        0.924     0.036     2.503     2.474
    34   1 H        0.924     0.033     2.541     2.493
    35   1 H        0.925     0.032     2.555     2.499
    36   1 H        0.926     0.037     2.495     2.470
    37   1 H        0.926     0.034     2.524     2.484
    38   1 H        0.924     0.023     2.687     2.563
    39   1 H        0.925     0.037     2.485     2.465
    40   1 H        0.924     0.026     2.650     2.546
    41   1 H        0.926     0.051     2.307     2.375
    42   1 H        0.925     0.037     2.483     2.464
    43   1 H        0.926     0.042     2.419     2.432
    44   1 H        0.925     0.063     2.168     2.302
    45   1 H        0.924     0.042     2.427     2.436
    46   1 H        0.924     0.041     2.438     2.442
    47   1 H        0.926     0.042     2.426     2.435
    48   1 H        0.926     0.059     2.214     2.327

 Mol. C6AA /au·bohr⁶  :      24095.727518
 Mol. C8AA /au·bohr⁸  :     561703.998346
 Mol. α(0) /au        :        239.251009


Wiberg/Mayer (AO) data.
largest (>0.10) Wiberg bond orders for each atom

 ---------------------------------------------------------------------------
     #   Z sym  total        # sym  WBO       # sym  WBO       # sym  WBO
 ---------------------------------------------------------------------------
     1   8 O    1.954 --     2 C    0.994    25 H    0.878
     2   6 C    3.961 --     1 O    0.994    13 C    0.993     3 C    0.952
                            26 H    0.945
     3   6 C    3.982 --     4 N    0.987    12 C    0.984    27 H    0.964
                             2 C    0.952
     4   7 N    3.134 --     7 C    1.005     5 C    1.000     3 C    0.987
     5   6 C    3.986 --     4 N    1.000     6 C    0.990    28 H    0.976
                            29 H    0.975
     6   6 C    3.997 --    11 C    0.997     5 C    0.990    31 H    0.980
                            30 H    0.979
     7   6 C    3.986 --     4 N    1.005    32 H    0.975    33 H    0.969
                             8 C    0.961
     8   6 C    3.995 --     9 C    1.021    11 C    0.970    34 H    0.967
                             7 C    0.961
     9   6 C    3.991 --    10 C    1.972     8 C    1.021    35 H    0.962
    10   6 C    3.991 --     9 C    1.972    36 H    0.977    37 H    0.975
    11   6 C    3.996 --    12 C    0.997     6 C    0.997     8 C    0.970
                            38 H    0.970
    12   6 C    3.997 --    11 C    0.997     3 C    0.984    40 H    0.978
                            39 H    0.968
    13   6 C    3.985 --    14 C    1.525    18 C    1.249     2 C    0.993
                            16 N    0.103
    14   6 C    3.989 --    13 C    1.525    15 C    1.311    41 H    0.966
    15   6 C    3.973 --    16 N    1.546    14 C    1.311    42 H    0.963
    16   7 N    3.062 --    15 C    1.546    17 C    1.288    13 C    0.103
    17   6 C    3.983 --    16 N    1.288    24 C    1.273    18 C    1.227
    18   6 C    3.989 --    19 C    1.309    13 C    1.249    17 C    1.227
    19   6 C    3.986 --    20 C    1.446    18 C    1.309    43 H    0.957
                            24 C    0.114
    20   6 C    3.935 --    19 C    1.446    23 C    1.274    21 O    1.061
    21   8 O    2.223 --    20 C    1.061    22 C    0.985
    22   6 C    3.946 --    21 O    0.985    44 H    0.979    45 H    0.977
                            46 H    0.977
    23   6 C    3.989 --    24 C    1.556    20 C    1.274    47 H    0.965
    24   6 C    3.989 --    23 C    1.556    17 C    1.273    48 H    0.966
                            19 C    0.114
    25   1 H    0.908 --     1 O    0.878
    26   1 H    0.999 --     2 C    0.945
    27   1 H    0.999 --     3 C    0.964
    28   1 H    0.998 --     5 C    0.976
    29   1 H    0.999 --     5 C    0.975
    30   1 H    0.998 --     6 C    0.979
    31   1 H    0.999 --     6 C    0.980
    32   1 H    0.999 --     7 C    0.975
    33   1 H    0.999 --     7 C    0.969
    34   1 H    0.999 --     8 C    0.967
    35   1 H    0.999 --     9 C    0.962
    36   1 H    0.998 --    10 C    0.977
    37   1 H    0.999 --    10 C    0.975
    38   1 H    0.999 --    11 C    0.970
    39   1 H    0.999 --    12 C    0.968
    40   1 H    0.999 --    12 C    0.978
    41   1 H    0.997 --    14 C    0.966
    42   1 H    0.998 --    15 C    0.963
    43   1 H    0.998 --    19 C    0.957
    44   1 H    0.996 --    22 C    0.979
    45   1 H    0.998 --    22 C    0.977
    46   1 H    0.998 --    22 C    0.977
    47   1 H    0.997 --    23 C    0.965
    48   1 H    0.996 --    24 C    0.966
 ---------------------------------------------------------------------------

Topologies differ in total number of bonds
Writing topology from bond orders to xtbtopo.mol

molecular dipole:
                 x           y           z       tot (Debye)
 q only:        0.534       0.570      -0.538
   full:        0.969       0.923      -0.734       3.881
molecular quadrupole (traceless):
                xx          xy          yy          xz          yz          zz
 q only:        3.019     -13.064       1.443       8.377      -3.222      -4.462
  q+dip:        4.357     -17.131       3.899       9.917      -3.154      -8.256
   full:        3.822     -18.253       1.823       7.237      -3.055      -5.645

           -------------------------------------------------
          |                Geometry Summary                 |
           -------------------------------------------------

      molecular mass/u    :      324.4175123
   center of mass at/Å    :       -0.4109480      -0.1896281       0.0368176
  moments of inertia/u·Å² :        0.1569729E+04   0.2696165E+04   0.3772757E+04
rotational constants/cm⁻¹ :        0.1073920E-01   0.6252449E-02   0.4468253E-02

 * 46 selected distances

     #   Z          #   Z                                           value/Å
     1   8 O        2   6 C                                       1.4098151
     3   6 C        4   7 N                                       1.4651272
     4   7 N        5   6 C                                       1.4573208
     4   7 N        7   6 C                                       1.4555028
     9   6 C       10   6 C                                       1.3203300
     6   6 C       11   6 C                                       1.5335231
     8   6 C       11   6 C                                       1.5413041 (max)
     3   6 C       12   6 C                                       1.5373054
    11   6 C       12   6 C                                       1.5329130
    13   6 C       14   6 C                                       1.3732963
    14   6 C       15   6 C                                       1.4026707
    15   6 C       16   7 N                                       1.3025569
    16   7 N       17   6 C                                       1.3468019
    13   6 C       18   6 C                                       1.4218619
    17   6 C       18   6 C                                       1.4268443
    18   6 C       19   6 C                                       1.4045065
    19   6 C       20   6 C                                       1.3786647
    20   6 C       21   8 O                                       1.3633112
    21   8 O       22   6 C                                       1.4071843
    20   6 C       23   6 C                                       1.4080062
    17   6 C       24   6 C                                       1.4085322
    23   6 C       24   6 C                                       1.3659819
     1   8 O       25   1 H                                       0.9680429 (min)
     2   6 C       26   1 H                                       1.0988108
     3   6 C       27   1 H                                       1.0966154
     5   6 C       28   1 H                                       1.0920234
     5   6 C       29   1 H                                       1.0929298
     6   6 C       30   1 H                                       1.0912572
     6   6 C       31   1 H                                       1.0906305
     7   6 C       32   1 H                                       1.0930289
     7   6 C       33   1 H                                       1.0909409
     8   6 C       34   1 H                                       1.0949560
     9   6 C       35   1 H                                       1.0821318
    10   6 C       36   1 H                                       1.0765503
    10   6 C       37   1 H                                       1.0780343
    11   6 C       38   1 H                                       1.0932782
    12   6 C       39   1 H                                       1.0889539
    12   6 C       40   1 H                                       1.0910523
    14   6 C       41   1 H                                       1.0783825
    15   6 C       42   1 H                                       1.0827968
    19   6 C       43   1 H                                       1.0782981
    22   6 C       44   1 H                                       1.0890171
    22   6 C       45   1 H                                       1.0946760
    22   6 C       46   1 H                                       1.0947239
    23   6 C       47   1 H                                       1.0785774
    24   6 C       48   1 H                                       1.0786425

 * 5 distinct bonds (by element types)

   Z      Z             #   av. dist./Å        max./Å        min./Å
   1 H    6 C          23     1.0881003     1.0988108     1.0765503
   6 C    6 C          14     1.4325529     1.5413041     1.3203300
   6 C    7 N           5     1.4054619     1.4651272     1.3025569
   1 H    8 O           1     0.9680429     0.9680429     0.9680429
   6 C    8 O           3     1.3934368     1.4098151     1.3633112


optimized geometry written to: xtbopt.xyz


           -------------------------------------------------
          | TOTAL ENERGY              -69.043590722538 Eh   |
          | GRADIENT NORM               0.000486113827 Eh/α |
          | HOMO-LUMO GAP               2.429506012620 eV   |
           -------------------------------------------------

------------------------------------------------------------------------
 * finished run on 2025/05/15 at 16:30:31.207     
------------------------------------------------------------------------
 total:
 * wall-time:     0 d,  0 h,  0 min,  1.266 sec
 *  cpu-time:     0 d,  0 h,  0 min,  1.003 sec
 * ratio c/w:     0.792 speedup
 SCF:
 * wall-time:     0 d,  0 h,  0 min,  0.069 sec
 *  cpu-time:     0 d,  0 h,  0 min,  0.069 sec
 * ratio c/w:     0.994 speedup
 ANC optimizer:
 * wall-time:     0 d,  0 h,  0 min,  1.182 sec
 *  cpu-time:     0 d,  0 h,  0 min,  0.920 sec
 * ratio c/w:     0.778 speedup



----- Single-point -----
      -----------------------------------------------------------      
     |                   =====================                   |     
     |                           x T B                           |     
     |                   =====================                   |     
     |                         S. Grimme                         |     
     |          Mulliken Center for Theoretical Chemistry        |     
     |                    University of Bonn                     |     
      -----------------------------------------------------------      

   * xtb version 6.7.1 (edcfbbe) compiled by 'conda@3ef47c1a292c' on 2024-11-25

   xtb is free software: you can redistribute it and/or modify it under
   the terms of the GNU Lesser General Public License as published by
   the Free Software Foundation, either version 3 of the License, or
   (at your option) any later version.
   
   xtb is distributed in the hope that it will be useful,
   but WITHOUT ANY WARRANTY; without even the implied warranty of
   MERCHANTABILITY or FITNESS FOR A PARTICULAR PURPOSE.  See the
   GNU Lesser General Public License for more details.
   
   Cite this work as:
   * C. Bannwarth, E. Caldeweyher, S. Ehlert, A. Hansen, P. Pracht,
     J. Seibert, S. Spicher, S. Grimme, WIREs Comput. Mol. Sci., 2020, 11,
     e01493. DOI: 10.1002/wcms.1493
   
   for GFN2-xTB:
   * C. Bannwarth, S. Ehlert and S. Grimme., J. Chem. Theory Comput., 2019,
     15, 1652-1671. DOI: 10.1021/acs.jctc.8b01176
   for GFN1-xTB:
   * S. Grimme, C. Bannwarth, P. Shushkov, J. Chem. Theory Comput., 2017,
     13, 1989-2009. DOI: 10.1021/acs.jctc.7b00118
   for GFN0-xTB:
   * P. Pracht, E. Caldeweyher, S. Ehlert, S. Grimme, ChemRxiv, 2019, preprint.
     DOI: 10.26434/chemrxiv.8326202.v1
   for GFN-FF:
   * S. Spicher and S. Grimme, Angew. Chem. Int. Ed., 2020, 59, 15665-15673.
     DOI: 10.1002/anie.202004239
   
   for ALPB and GBSA implicit solvation:
   * S. Ehlert, M. Stahn, S. Spicher, S. Grimme, J. Chem. Theory Comput.,
     2021, 17, 4250-4261. DOI: 10.1021/acs.jctc.1c00471
   
   for ddCOSMO and CPCM-X implicit solvation:
   * M. Stahn, S. Ehlert, S. Grimme, J. Phys. Chem. A,
     2023, XX, XXXX-XXXX. DOI: 10.1021/acs.jpca.3c04382
   
   for DFT-D4:
   * E. Caldeweyher, C. Bannwarth and S. Grimme, J. Chem. Phys., 2017,
     147, 034112. DOI: 10.1063/1.4993215
   * E. Caldeweyher, S. Ehlert, A. Hansen, H. Neugebauer, S. Spicher,
     C. Bannwarth and S. Grimme, J. Chem. Phys., 2019, 150, 154122.
     DOI: 10.1063/1.5090222
   * E. Caldeweyher, J.-M. Mewes, S. Ehlert and S. Grimme, Phys. Chem. Chem. Phys.
     2020, 22, 8499-8512. DOI: 10.1039/D0CP00502A
   
   for sTDA-xTB:
   * S. Grimme and C. Bannwarth, J. Chem. Phys., 2016, 145, 054103.
     DOI: 10.1063/1.4959605
   
   in the mass-spec context:
   * V. Asgeirsson, C. Bauer and S. Grimme, Chem. Sci., 2017, 8, 4879.
     DOI: 10.1039/c7sc00601b
   * J. Koopman and S. Grimme, ACS Omega 2019, 4, 12, 15120-15133.
     DOI: 10.1021/acsomega.9b02011
   
   for metadynamics refer to:
   * S. Grimme, J. Chem. Theory Comput., 2019, 155, 2847-2862
     DOI: 10.1021/acs.jctc.9b00143
   
   for SPH calculations refer to:
   * S. Spicher and S. Grimme, J. Chem. Theory Comput., 2021, 17, 1701-1714
     DOI: 10.1021/acs.jctc.0c01306
   
   for ONIOM refer to:
   * C. Plett, A. Katbashev, S. Ehlert, S. Grimme, M. Bursch,
     Phys. Chem. Chem. Phys., 2023, 25, 17860-17868. DOI: 10.1039/D3CP02178E
   
   for DIPRO refer to:
   * J. Kohn, N. Gildemeister, S. Grimme, D. Fazzi, A. Hansen,
     J. Chem. Phys., 2023, just accepted.
   
   for PTB refer to:
   * S. Grimme, M. Mueller, A. Hansen, J. Chem. Phys., 2023, 158, 124111.
     DOI: 10.1063/5.0137838
   
   with help from (in alphabetical order)
   P. Atkinson, C. Bannwarth, F. Bohle, G. Brandenburg, E. Caldeweyher
   M. Checinski, S. Dohm, S. Ehlert, S. Ehrlich, I. Gerasimov, C. Hölzer
   A. Katbashev, J. Kohn, J. Koopman, C. Lavigne, S. Lehtola, F. März, M. Müller,
   F. Musil, H. Neugebauer, J. Pisarek, C. Plett, P. Pracht, F. Pultar,
   J. Seibert, P. Shushkov, S. Spicher, M. Stahn, M. Steiner, T. Strunk,
   J. Stückrath, T. Rose, and J. Unsleber
   
 * started run on 2025/05/15 at 16:30:31.225     
   ID    Z sym.   atoms
    1    8 O      1, 21
    2    6 C      2, 3, 5-15, 17-20, 22-24
    3    7 N      4, 16
    4    1 H      25-48

           -------------------------------------------------
          |                Calculation Setup                |
           -------------------------------------------------

          program call               : xtb /rds/general/user/hgt20/home/callum/QDESCP/Quinine_rdkit_conf_1/Quinine_rdkit_conf_1.xyz --acc 1 --gfn 2 --chrg 0 --uhf 0 --etemp 300 --input /rds/general/user/hgt20/home/callum/QDESCP/Quinine_rdkit_conf_1/Quinine_rdkit_conf_1_xtb.inp -P 1
          hostname                   : login-c
          coordinate file            : /rds/general/user/hgt20/home/callum/QDESCP/Quinine_rdkit_conf_1/Quinine_rdkit_conf_1.xyz
          omp threads                :                     1


           -------------------------------------------------
          |                 G F N 2 - x T B                 |
           -------------------------------------------------

        Reference                      10.1021/acs.jctc.8b01176
      * Hamiltonian:
        H0-scaling (s, p, d)           1.850000    2.230000    2.230000
        zeta-weighting                 0.500000
      * Dispersion:
        s8                             2.700000
        a1                             0.520000
        a2                             5.000000
        s9                             5.000000
      * Repulsion:
        kExp                           1.500000    1.000000
        rExp                           1.000000
      * Coulomb:
        alpha                          2.000000
        third order                    shell-resolved
        anisotropic                    true
        a3                             3.000000
        a5                             4.000000
        cn-shift                       1.200000
        cn-exp                         4.000000
        max-rad                        5.000000

q/qsh data taken from xtbrestart
CAMM data taken from xtbrestart

          ...................................................
          :                      SETUP                      :
          :.................................................:
          :  # basis functions                 120          :
          :  # atomic orbitals                 120          :
          :  # shells                           72          :
          :  # electrons                       126          :
          :  max. iterations                   250          :
          :  Hamiltonian                  GFN2-xTB          :
          :  restarted?                       true          :
          :  GBSA solvation                  false          :
          :  PC potential                    false          :
          :  electronic temp.          300.0000000     K    :
          :  accuracy                    1.0000000          :
          :  -> integral cutoff          0.2500000E+02      :
          :  -> integral neglect         0.1000000E-07      :
          :  -> SCF convergence          0.1000000E-05 Eh   :
          :  -> wf. convergence          0.1000000E-03 e    :
          :  Broyden damping             0.4000000          :
          :  net charge                          0          :
          :  unpaired electrons                  0          :
          ...................................................

 iter      E             dE          RMSdq      gap      omega  full diag
   1    -70.0283815 -0.700284E+02  0.905E-06    2.43       0.0  T
   2    -70.0283815 -0.117950E-11  0.644E-06    2.43    2242.7  T
   3    -70.0283815 -0.144951E-11  0.273E-06    2.43    5282.7  T

   *** convergence criteria satisfied after 3 iterations ***

         #    Occupation            Energy/Eh            Energy/eV
      -------------------------------------------------------------
         1        2.0000           -0.7213809             -19.6298
       ...           ...                  ...                  ...
        57        2.0000           -0.4211320             -11.4596
        58        2.0000           -0.4057888             -11.0421
        59        2.0000           -0.4046756             -11.0118
        60        2.0000           -0.3972496             -10.8097
        61        2.0000           -0.3763351             -10.2406
        62        2.0000           -0.3615373              -9.8379
        63        2.0000           -0.3593443              -9.7783 (HOMO)
        64                         -0.2700614              -7.3487 (LUMO)
        65                         -0.2291488              -6.2355
        66                         -0.2077321              -5.6527
        67                         -0.1989977              -5.4150
        68                         -0.1490104              -4.0548
       ...                                ...                  ...
       120                          0.6838200              18.6077
      -------------------------------------------------------------
                  HL-Gap            0.0892828 Eh            2.4295 eV
             Fermi-level           -0.3147029 Eh           -8.5635 eV

 SCC (total)                   0 d,  0 h,  0 min,  0.082 sec
 SCC setup                      ...        0 min,  0.000 sec (  0.513%)
 Dispersion                     ...        0 min,  0.001 sec (  0.733%)
 classical contributions        ...        0 min,  0.000 sec (  0.240%)
 integral evaluation            ...        0 min,  0.009 sec ( 11.427%)
 iterations                     ...        0 min,  0.042 sec ( 51.023%)
 molecular gradient             ...        0 min,  0.029 sec ( 35.762%)
 printout                       ...        0 min,  0.000 sec (  0.293%)

         :::::::::::::::::::::::::::::::::::::::::::::::::::::
         ::                     SUMMARY                     ::
         :::::::::::::::::::::::::::::::::::::::::::::::::::::
         :: total energy             -69.043590722577 Eh    ::
         :: gradient norm              0.000486110947 Eh/a0 ::
         :: HOMO-LUMO gap              2.429509082238 eV    ::
         ::.................................................::
         :: SCC energy               -70.027458409540 Eh    ::
         :: -> isotropic ES            0.055245540137 Eh    ::
         :: -> anisotropic ES          0.007869576073 Eh    ::
         :: -> anisotropic XC          0.036067543535 Eh    ::
         :: -> dispersion             -0.054564618022 Eh    ::
         :: repulsion energy           0.983867686962 Eh    ::
         :: add. restraining           0.000000000000 Eh    ::
         :: total charge               0.000000000000 e     ::
         :::::::::::::::::::::::::::::::::::::::::::::::::::::

           -------------------------------------------------
          |                Property Printout                |
           -------------------------------------------------

    * Orbital Energies and Occupations

         #    Occupation            Energy/Eh            Energy/eV
      -------------------------------------------------------------
         1        2.0000           -0.7213809             -19.6298
       ...           ...                  ...                  ...
        51        2.0000           -0.4419160             -12.0251
        52        2.0000           -0.4407148             -11.9925
        53        2.0000           -0.4376326             -11.9086
        54        2.0000           -0.4340108             -11.8100
        55        2.0000           -0.4265723             -11.6076
        56        2.0000           -0.4249642             -11.5639
        57        2.0000           -0.4211320             -11.4596
        58        2.0000           -0.4057888             -11.0421
        59        2.0000           -0.4046756             -11.0118
        60        2.0000           -0.3972496             -10.8097
        61        2.0000           -0.3763351             -10.2406
        62        2.0000           -0.3615373              -9.8379
        63        2.0000           -0.3593443              -9.7783 (HOMO)
        64                         -0.2700614              -7.3487 (LUMO)
        65                         -0.2291488              -6.2355
        66                         -0.2077321              -5.6527
        67                         -0.1989977              -5.4150
        68                         -0.1490104              -4.0548
        69                         -0.0665167              -1.8100
        70                          0.0133779               0.3640
        71                          0.0237132               0.6453
        72                          0.0272048               0.7403
        73                          0.0403249               1.0973
        74                          0.0543010               1.4776
       ...                                ...                  ...
       120                          0.6838200              18.6077
      -------------------------------------------------------------
                  HL-Gap            0.0892828 Eh            2.4295 eV
             Fermi-level           -0.3147029 Eh           -8.5635 eV

     #   Z          covCN         q      C6AA      α(0)
     1   8 O        1.656    -0.447    21.789     6.301
     2   6 C        3.733     0.109    18.870     6.200
     3   6 C        3.827     0.035    19.973     6.359
     4   7 N        2.729    -0.198    25.289     7.469
     5   6 C        3.783     0.009    20.439     6.440
     6   6 C        3.809    -0.065    21.733     6.636
     7   6 C        3.776     0.010    20.436     6.441
     8   6 C        3.862    -0.029    21.044     6.524
     9   6 C        2.889    -0.032    28.803     8.799
    10   6 C        2.837    -0.094    30.354     9.029
    11   6 C        3.866    -0.006    20.638     6.460
    12   6 C        3.808    -0.065    21.745     6.638
    13   6 C        2.973     0.014    27.700     8.633
    14   6 C        2.916    -0.043    29.061     8.840
    15   6 C        2.904     0.061    26.638     8.463
    16   7 N        1.843    -0.233    26.951     7.694
    17   6 C        2.977     0.081    26.181     8.393
    18   6 C        2.981    -0.004    28.124     8.699
    19   6 C        2.918    -0.066    29.651     8.929
    20   6 C        2.861     0.143    24.889     8.177
    21   8 O        1.706    -0.270    18.479     5.804
    22   6 C        3.643     0.038    20.280     6.474
    23   6 C        2.913    -0.061    29.507     8.907
    24   6 C        2.923    -0.039    28.973     8.827
    25   1 H        0.805     0.303     0.711     1.325
    26   1 H        0.923     0.020     2.727     2.582
    27   1 H        0.924     0.036     2.497     2.471
    28   1 H        0.924     0.034     2.525     2.485
    29   1 H        0.924     0.032     2.560     2.502
    30   1 H        0.924     0.030     2.584     2.514
    31   1 H        0.924     0.029     2.598     2.521
    32   1 H        0.924     0.031     2.566     2.505
    33   1 H        0.924     0.036     2.503     2.474
    34   1 H        0.924     0.033     2.541     2.493
    35   1 H        0.925     0.032     2.555     2.499
    36   1 H        0.926     0.037     2.495     2.470
    37   1 H        0.926     0.034     2.524     2.484
    38   1 H        0.924     0.023     2.687     2.563
    39   1 H        0.925     0.037     2.485     2.465
    40   1 H        0.924     0.026     2.650     2.546
    41   1 H        0.926     0.051     2.307     2.375
    42   1 H        0.925     0.037     2.483     2.464
    43   1 H        0.926     0.042     2.419     2.432
    44   1 H        0.925     0.063     2.168     2.302
    45   1 H        0.924     0.042     2.427     2.436
    46   1 H        0.924     0.041     2.438     2.442
    47   1 H        0.926     0.042     2.426     2.435
    48   1 H        0.926     0.059     2.214     2.327

 Mol. C6AA /au·bohr⁶  :      24095.727157
 Mol. C8AA /au·bohr⁸  :     561703.993100
 Mol. α(0) /au        :        239.251007


Wiberg/Mayer (AO) data.
largest (>0.10) Wiberg bond orders for each atom

 ---------------------------------------------------------------------------
     #   Z sym  total        # sym  WBO       # sym  WBO       # sym  WBO
 ---------------------------------------------------------------------------
     1   8 O    1.954 --     2 C    0.994    25 H    0.878
     2   6 C    3.961 --     1 O    0.994    13 C    0.993     3 C    0.952
                            26 H    0.945
     3   6 C    3.982 --     4 N    0.987    12 C    0.984    27 H    0.964
                             2 C    0.952
     4   7 N    3.134 --     7 C    1.005     5 C    1.000     3 C    0.987
     5   6 C    3.986 --     4 N    1.000     6 C    0.990    28 H    0.976
                            29 H    0.975
     6   6 C    3.997 --    11 C    0.997     5 C    0.990    31 H    0.980
                            30 H    0.979
     7   6 C    3.986 --     4 N    1.005    32 H    0.975    33 H    0.969
                             8 C    0.961
     8   6 C    3.995 --     9 C    1.021    11 C    0.970    34 H    0.967
                             7 C    0.961
     9   6 C    3.991 --    10 C    1.972     8 C    1.021    35 H    0.962
    10   6 C    3.991 --     9 C    1.972    36 H    0.977    37 H    0.975
    11   6 C    3.996 --    12 C    0.997     6 C    0.997     8 C    0.970
                            38 H    0.970
    12   6 C    3.997 --    11 C    0.997     3 C    0.984    40 H    0.978
                            39 H    0.968
    13   6 C    3.985 --    14 C    1.525    18 C    1.249     2 C    0.993
[...]
     DOI: 10.1039/c7sc00601b
   * J. Koopman and S. Grimme, ACS Omega 2019, 4, 12, 15120-15133.
     DOI: 10.1021/acsomega.9b02011
   
   for metadynamics refer to:
   * S. Grimme, J. Chem. Theory Comput., 2019, 155, 2847-2862
     DOI: 10.1021/acs.jctc.9b00143
   
   for SPH calculations refer to:
   * S. Spicher and S. Grimme, J. Chem. Theory Comput., 2021, 17, 1701-1714
     DOI: 10.1021/acs.jctc.0c01306
   
   for ONIOM refer to:
   * C. Plett, A. Katbashev, S. Ehlert, S. Grimme, M. Bursch,
     Phys. Chem. Chem. Phys., 2023, 25, 17860-17868. DOI: 10.1039/D3CP02178E
   
   for DIPRO refer to:
   * J. Kohn, N. Gildemeister, S. Grimme, D. Fazzi, A. Hansen,
     J. Chem. Phys., 2023, just accepted.
   
   for PTB refer to:
   * S. Grimme, M. Mueller, A. Hansen, J. Chem. Phys., 2023, 158, 124111.
     DOI: 10.1063/5.0137838
   
   with help from (in alphabetical order)
   P. Atkinson, C. Bannwarth, F. Bohle, G. Brandenburg, E. Caldeweyher
   M. Checinski, S. Dohm, S. Ehlert, S. Ehrlich, I. Gerasimov, C. Hölzer
   A. Katbashev, J. Kohn, J. Koopman, C. Lavigne, S. Lehtola, F. März, M. Müller,
   F. Musil, H. Neugebauer, J. Pisarek, C. Plett, P. Pracht, F. Pultar,
   J. Seibert, P. Shushkov, S. Spicher, M. Stahn, M. Steiner, T. Strunk,
   J. Stückrath, T. Rose, and J. Unsleber
   
 * started run on 2025/05/15 at 16:30:34.092     
   ID    Z sym.   atoms
    1    8 O      1, 21
    2    6 C      2, 3, 5-15, 17-20, 22-24
    3    7 N      4, 16
    4    1 H      25-48

           -------------------------------------------------
          |                Calculation Setup                |
           -------------------------------------------------

          program call               : xtb /rds/general/user/hgt20/home/callum/QDESCP/Quinine_rdkit_conf_1/Quinine_rdkit_conf_1.xyz --acc 1 --gfn 2 --chrg 0 --uhf 2 --etemp 300 --input /rds/general/user/hgt20/home/callum/QDESCP/Quinine_rdkit_conf_1/Quinine_rdkit_conf_1_xtb.inp -P 1
          hostname                   : login-c
          coordinate file            : /rds/general/user/hgt20/home/callum/QDESCP/Quinine_rdkit_conf_1/Quinine_rdkit_conf_1.xyz
          omp threads                :                     1


           -------------------------------------------------
          |                 G F N 2 - x T B                 |
           -------------------------------------------------

        Reference                      10.1021/acs.jctc.8b01176
      * Hamiltonian:
        H0-scaling (s, p, d)           1.850000    2.230000    2.230000
        zeta-weighting                 0.500000
      * Dispersion:
        s8                             2.700000
        a1                             0.520000
        a2                             5.000000
        s9                             5.000000
      * Repulsion:
        kExp                           1.500000    1.000000
        rExp                           1.000000
      * Coulomb:
        alpha                          2.000000
        third order                    shell-resolved
        anisotropic                    true
        a3                             3.000000
        a5                             4.000000
        cn-shift                       1.200000
        cn-exp                         4.000000
        max-rad                        5.000000


          ...................................................
          :                      SETUP                      :
          :.................................................:
          :  # basis functions                 120          :
          :  # atomic orbitals                 120          :
          :  # shells                           72          :
          :  # electrons                       126          :
          :  max. iterations                   250          :
          :  Hamiltonian                  GFN2-xTB          :
          :  restarted?                      false          :
          :  GBSA solvation                  false          :
          :  PC potential                    false          :
          :  electronic temp.          300.0000000     K    :
          :  accuracy                    1.0000000          :
          :  -> integral cutoff          0.2500000E+02      :
          :  -> integral neglect         0.1000000E-07      :
          :  -> SCF convergence          0.1000000E-05 Eh   :
          :  -> wf. convergence          0.1000000E-03 e    :
          :  Broyden damping             0.4000000          :
          :  net charge                          0          :
          :  unpaired electrons                  2          :
          ...................................................

 iter      E             dE          RMSdq      gap      omega  full diag
   1    -69.6507729 -0.696508E+02  0.360E+00    1.02       0.0  T
   2    -69.4170935  0.233679E+00  0.303E+00    0.72       1.0  T
   3    -69.4555950 -0.385014E-01  0.301E+00    1.24       1.0  T
   4    -69.8774673 -0.421872E+00  0.137E+00    1.15       1.0  T
   5    -69.8194459  0.580214E-01  0.130E+00    1.01       1.0  T
   6    -69.7532405  0.662054E-01  0.125E+00    1.04       1.0  T
   7    -69.8887770 -0.135536E+00  0.779E-01    1.08       1.0  T
   8    -69.9016125 -0.128356E-01  0.646E-01    1.06       1.0  T
   9    -69.9215838 -0.199713E-01  0.332E-01    1.05       1.0  T
  10    -69.9215786  0.523639E-05  0.300E-01    1.06       1.0  T
  11    -69.9238713 -0.229274E-02  0.216E-01    1.05       1.0  T
  12    -69.9244096 -0.538250E-03  0.191E-01    1.05       1.0  T
  13    -69.9254260 -0.101641E-02  0.139E-01    1.05       1.0  T
  14    -69.9265258 -0.109984E-02  0.394E-02    1.04       1.0  T
  15    -69.9265735 -0.477416E-04  0.376E-02    1.04       1.0  T
  16    -69.9244398  0.213379E-02  0.141E-01    1.04       1.0  T
  17    -69.9260979 -0.165811E-02  0.712E-02    1.04       1.0  T
  18    -69.9266092 -0.511375E-03  0.191E-02    1.04       1.0  T
  19    -69.9266430 -0.338065E-04  0.405E-03    1.04       3.6  T
  20    -69.9266402  0.280538E-05  0.608E-03    1.04       2.4  T
  21    -69.9266436 -0.333102E-05  0.229E-03    1.04       6.3  T
  22    -69.9266440 -0.427516E-06  0.117E-03    1.04      12.3  T
  23    -69.9266441 -0.893333E-07  0.710E-04    1.04      20.3  T
  24    -69.9266441 -0.401831E-07  0.357E-04    1.04      40.4  T

   *** convergence criteria satisfied after 24 iterations ***

         #    Occupation            Energy/Eh            Energy/eV
      -------------------------------------------------------------
         1        2.0000           -0.7189897             -19.5647
       ...           ...                  ...                  ...
        58        2.0000           -0.4105165             -11.1707
        59        2.0000           -0.4019599             -10.9379
        60        2.0000           -0.3860206             -10.5042
        61        1.9954           -0.3714498             -10.1077
        62        1.6638           -0.3669876              -9.9862
        63        1.3408           -0.3657148              -9.9516
        64        1.0000           -0.2570057              -6.9935 (HOMO)
        65                         -0.2187156              -5.9516 (LUMO)
        66                         -0.2122513              -5.7757
        67                         -0.1881233              -5.1191
        68                         -0.1360831              -3.7030
        69                         -0.0569437              -1.5495
       ...                                ...                  ...
       120                          0.6934490              18.8697
      -------------------------------------------------------------
                  HL-Gap            0.0382902 Eh            1.0419 eV
             Fermi-level           -0.3021013 Eh           -8.2206 eV

 transition dipole moment (au) for excitation:          63          64
     X       Y       Z   
   0.8187  -0.0620   0.6700  total (au/Debye):    1.060   2.694
 dE (eV)             :    2.958
 oscillator strength :  0.11511E+00

 SCC (total)                   0 d,  0 h,  0 min,  0.194 sec
 SCC setup                      ...        0 min,  0.000 sec (  0.212%)
 Dispersion                     ...        0 min,  0.001 sec (  0.302%)
 classical contributions        ...        0 min,  0.000 sec (  0.100%)
 integral evaluation            ...        0 min,  0.009 sec (  4.780%)
 iterations                     ...        0 min,  0.114 sec ( 58.938%)
 molecular gradient             ...        0 min,  0.061 sec ( 31.480%)
 printout                       ...        0 min,  0.008 sec (  4.184%)

         :::::::::::::::::::::::::::::::::::::::::::::::::::::
         ::                     SUMMARY                     ::
         :::::::::::::::::::::::::::::::::::::::::::::::::::::
         :: total energy             -68.941853355829 Eh    ::
         :: gradient norm              0.104979123975 Eh/a0 ::
         :: HOMO-LUMO gap              1.041929132944 eV    ::
         ::.................................................::
         :: SCC energy               -69.925721042791 Eh    ::
         :: -> isotropic ES            0.052289949550 Eh    ::
         :: -> anisotropic ES          0.008937827115 Eh    ::
         :: -> anisotropic XC          0.029866218239 Eh    ::
         :: -> dispersion             -0.054485087308 Eh    ::
         :: repulsion energy           0.983867686962 Eh    ::
         :: add. restraining           0.000000000000 Eh    ::
         :: total charge              -0.000000000002 e     ::
         :::::::::::::::::::::::::::::::::::::::::::::::::::::

           -------------------------------------------------
          |                Property Printout                |
           -------------------------------------------------

    * Orbital Energies and Occupations

         #    Occupation            Energy/Eh            Energy/eV
      -------------------------------------------------------------
         1        2.0000           -0.7189897             -19.5647
       ...           ...                  ...                  ...
        52        2.0000           -0.4339566             -11.8086
        53        2.0000           -0.4320981             -11.7580
        54        2.0000           -0.4318189             -11.7504
        55        2.0000           -0.4260683             -11.5939
        56        2.0000           -0.4224630             -11.4958
        57        2.0000           -0.4154560             -11.3051
        58        2.0000           -0.4105165             -11.1707
        59        2.0000           -0.4019599             -10.9379
        60        2.0000           -0.3860206             -10.5042
        61        1.9954           -0.3714498             -10.1077
        62        1.6638           -0.3669876              -9.9862
        63        1.3408           -0.3657148              -9.9516
        64        1.0000           -0.2570057              -6.9935 (HOMO)
        65                         -0.2187156              -5.9516 (LUMO)
        66                         -0.2122513              -5.7757
        67                         -0.1881233              -5.1191
        68                         -0.1360831              -3.7030
        69                         -0.0569437              -1.5495
        70                          0.0085545               0.2328
        71                          0.0218629               0.5949
        72                          0.0285734               0.7775
        73                          0.0358715               0.9761
        74                          0.0528581               1.4383
        75                          0.0659850               1.7955
       ...                                ...                  ...
       120                          0.6934490              18.8697
      -------------------------------------------------------------
                  HL-Gap            0.0382902 Eh            1.0419 eV
             Fermi-level           -0.3021013 Eh           -8.2206 eV

     #   Z          covCN         q      C6AA      α(0)
     1   8 O        1.656    -0.441    21.653     6.282
     2   6 C        3.733     0.115    18.782     6.186
     3   6 C        3.827     0.031    20.027     6.368
     4   7 N        2.729    -0.178    24.854     7.404
     5   6 C        3.783     0.008    20.470     6.445
     6   6 C        3.809    -0.065    21.739     6.637
     7   6 C        3.776     0.008    20.466     6.446
     8   6 C        3.862    -0.027    21.021     6.520
     9   6 C        2.889    -0.032    28.805     8.799
    10   6 C        2.837    -0.093    30.324     9.024
    11   6 C        3.866    -0.007    20.664     6.464
    12   6 C        3.808    -0.066    21.757     6.640
    13   6 C        2.973    -0.027    28.659     8.781
    14   6 C        2.916    -0.049    29.224     8.865
    15   6 C        2.904     0.038    27.156     8.545
    16   7 N        1.843    -0.189    25.908     7.543
    17   6 C        2.977     0.084    26.132     8.385
    18   6 C        2.981     0.003    27.944     8.671
    19   6 C        2.918    -0.073    29.813     8.954
    20   6 C        2.861     0.139    24.957     8.189
    21   8 O        1.706    -0.258    18.281     5.773
    22   6 C        3.643     0.036    20.309     6.479
    23   6 C        2.913    -0.081    30.013     8.983
    24   6 C        2.923    -0.059    29.461     8.901
    25   1 H        0.805     0.300     0.721     1.334
    26   1 H        0.923     0.022     2.706     2.573
    27   1 H        0.924     0.041     2.430     2.438
    28   1 H        0.924     0.037     2.490     2.468
    29   1 H        0.924     0.037     2.495     2.470
    30   1 H        0.924     0.034     2.528     2.486
    31   1 H        0.924     0.032     2.553     2.499
    32   1 H        0.924     0.035     2.521     2.483
    33   1 H        0.924     0.041     2.437     2.441
    34   1 H        0.924     0.036     2.509     2.477
    35   1 H        0.925     0.035     2.513     2.479
    36   1 H        0.926     0.039     2.460     2.453
    37   1 H        0.926     0.036     2.504     2.474
    38   1 H        0.924     0.028     2.616     2.529
    39   1 H        0.925     0.042     2.418     2.432
    40   1 H        0.924     0.033     2.550     2.497
    41   1 H        0.926     0.047     2.352     2.398
    42   1 H        0.925     0.038     2.478     2.462
    43   1 H        0.926     0.040     2.451     2.448
    44   1 H        0.925     0.062     2.172     2.305
    45   1 H        0.924     0.047     2.362     2.403
    46   1 H        0.924     0.046     2.374     2.410
    47   1 H        0.926     0.030     2.588     2.516
    48   1 H        0.926     0.045     2.387     2.416

 Mol. C6AA /au·bohr⁶  :      24073.142949
 Mol. C8AA /au·bohr⁸  :     561721.058529
 Mol. α(0) /au        :        239.173672


Wiberg/Mayer (AO) data.
largest (>0.10) Wiberg bond orders for each atom

 ---------------------------------------------------------------------------
     #   Z sym  total        # sym  WBO       # sym  WBO       # sym  WBO
 ---------------------------------------------------------------------------
     1   8 O    1.960 --     2 C    0.993    25 H    0.880
     2   6 C    3.938 --     1 O    0.993    13 C    0.982     3 C    0.946
                            26 H    0.938
     3   6 C    3.967 --     4 N    0.987    12 C    0.980    27 H    0.963
                             2 C    0.946
     4   7 N    3.136 --     7 C    1.006     5 C    0.999     3 C    0.987
     5   6 C    3.979 --     4 N    0.999     6 C    0.986    28 H    0.976
                            29 H    0.974
     6   6 C    3.989 --    11 C    0.998     5 C    0.986    30 H    0.979
                            31 H    0.979
     7   6 C    3.980 --     4 N    1.006    32 H    0.974    33 H    0.968
                             8 C    0.955
     8   6 C    3.986 --     9 C    1.021    11 C    0.970    34 H    0.967
                             7 C    0.955
     9   6 C    3.989 --    10 C    1.970     8 C    1.021    35 H    0.961
    10   6 C    3.986 --     9 C    1.970    36 H    0.977    37 H    0.975
    11   6 C    3.994 --     6 C    0.998    12 C    0.997     8 C    0.970
                            38 H    0.967
    12   6 C    3.990 --    11 C    0.997     3 C    0.980    40 H    0.976
                            39 H    0.967
    13   6 C    3.860 --    14 C    1.336    18 C    1.237     2 C    0.982
    14   6 C    3.917 --    15 C    1.418    13 C    1.336    41 H    0.961
    15   6 C    3.916 --    14 C    1.418    16 N    1.358    42 H    0.951
    16   7 N    2.946 --    15 C    1.358    17 C    1.283
    17   6 C    3.927 --    16 N    1.283    24 C    1.274    18 C    1.188
    18   6 C    3.946 --    19 C    1.324    13 C    1.237    17 C    1.188
    19   6 C    3.829 --    18 C    1.324    20 C    1.266    43 H    0.950
    20   6 C    3.862 --    23 C    1.359    19 C    1.266    21 O    1.069
    21   8 O    2.204 --    20 C    1.069    22 C    0.987
    22   6 C    3.943 --    21 O    0.987    44 H    0.980    45 H    0.974
                            46 H    0.973
    23   6 C    3.970 --    24 C    1.411    20 C    1.359    47 H    0.965
    24   6 C    3.879 --    23 C    1.411    17 C    1.274    48 H    0.965
    25   1 H    0.909 --     1 O    0.880
    26   1 H    0.995 --     2 C    0.938
    27   1 H    0.998 --     3 C    0.963
    28   1 H    0.998 --     5 C    0.976
    29   1 H    0.997 --     5 C    0.974
    30   1 H    0.998 --     6 C    0.979
    31   1 H    0.998 --     6 C    0.979
    32   1 H    0.997 --     7 C    0.974
    33   1 H    0.998 --     7 C    0.968
    34   1 H    0.998 --     8 C    0.967
    35   1 H    0.999 --     9 C    0.961
    36   1 H    0.998 --    10 C    0.977
    37   1 H    0.999 --    10 C    0.975
    38   1 H    0.996 --    11 C    0.967
    39   1 H    0.998 --    12 C    0.967
    40   1 H    0.998 --    12 C    0.976
    41   1 H    0.991 --    14 C    0.961
    42   1 H    0.985 --    15 C    0.951
    43   1 H    0.992 --    19 C    0.950
    44   1 H    0.996 --    22 C    0.980
    45   1 H    0.993 --    22 C    0.974
    46   1 H    0.993 --    22 C    0.973
    47   1 H    0.997 --    23 C    0.965
    48   1 H    0.993 --    24 C    0.965
 ---------------------------------------------------------------------------

Topologies differ in total number of bonds
Writing topology from bond orders to xtbtopo.mol

molecular dipole:
                 x           y           z       tot (Debye)
 q only:        1.201       0.649      -0.430
   full:        1.544       0.931      -0.667       4.886
molecular quadrupole (traceless):
                xx          xy          yy          xz          yz          zz
 q only:        1.525     -13.543       2.802       7.289      -2.884      -4.328
  q+dip:        4.022     -15.793       4.712      10.034      -1.781      -8.734
   full:        3.385     -16.931       2.988       7.789      -1.894      -6.374


           -------------------------------------------------
          | TOTAL ENERGY              -68.941853355829 Eh   |
          | GRADIENT NORM               0.104979123975 Eh/α |
          | HOMO-LUMO GAP               1.041929132944 eV   |
           -------------------------------------------------

------------------------------------------------------------------------
 * finished run on 2025/05/15 at 16:30:34.301     
------------------------------------------------------------------------
 total:
 * wall-time:     0 d,  0 h,  0 min,  0.209 sec
 *  cpu-time:     0 d,  0 h,  0 min,  0.120 sec
 * ratio c/w:     0.574 speedup
 SCF:
 * wall-time:     0 d,  0 h,  0 min,  0.194 sec
 *  cpu-time:     0 d,  0 h,  0 min,  0.106 sec
 * ratio c/w:     0.548 speedup


