50
 energy: -70.102790853341 gnorm: 0.000289566371 xtb: 6.7.1 (edcfbbe)
O           -0.40714190741607       -1.14702228019781        2.89880383073192
C           -0.48383063387286       -0.80024236372441        1.53464958480071
C            0.81020440334008       -1.25731027243634        0.82526116208541
N            1.97304429280762       -0.77986196427559        1.57746815529812
C            3.13907565642557       -1.54375042585288        1.15500329582213
C            3.30082715595625       -1.48694150075663       -0.37919732979380
C            2.22153534254561        0.63565814488629        1.33377989527979
C            2.65575712288314        0.89646078674955       -0.12545360812536
C            1.98354494772407        2.13182369230612       -0.72690012473430
C            2.48120421068673        3.42336329076911       -0.08799049499547
C            2.35921955919228       -0.39597145921267       -0.90396247772392
C            0.91464466080089       -0.84135738563256       -0.65137663095952
C           -1.67135554601617       -1.48798206607620        0.90724222969296
C           -1.92709709429820       -2.79248222744682        1.25950432108027
C           -2.99044161746841       -3.47934729321594        0.66132932154416
N           -3.77086713957506       -2.95337654293021       -0.24120082259293
C           -3.56049128493901       -1.67469492256336       -0.59970929609467
C           -2.51982252527679       -0.87123137770621       -0.04966578479052
C           -2.40429343485893        0.46789430656488       -0.48272065957568
C           -3.25786904796158        0.98196446990434       -1.42721780284058
O           -3.22087245822269        2.25413139315113       -1.91078792256445
C           -2.22584742717165        3.12910164073248       -1.44117062337167
C           -4.27726806277414        0.17100729650551       -1.97758307342679
C           -4.42496836934559       -1.11739696779804       -1.56939629511251
H            0.52129621571826       -1.04488221776719        3.15506638571544
H           -0.58992940140708        0.29084954378469        1.45393343071676
H            0.82746680314896       -2.35063478042823        0.90603742221735
H            4.01063328156494       -1.12048353228235        1.65879780016053
H            3.01874095120907       -2.57321979889562        1.50126023812172
H            3.03788988592088       -2.44351292409793       -0.83349007800111
H            4.33222763025926       -1.25877434149637       -0.65073584089885
H            1.31051218132955        1.18843967504310        1.56740291667417
H            2.99234705953474        0.95894631288985        2.03827932372728
H            3.73831002964867        1.06272164100353       -0.16064739757504
H            2.18992243550420        2.16091924945283       -1.79999922707070
H            0.90059668623042        2.06640433588202       -0.60091679465850
H            1.99438746082151        4.28377741826158       -0.54181822222503
H            3.55520232137267        3.52628783682386       -0.22573298191825
H            2.27126402216624        3.43434716947070        0.97878981413433
H            2.52170987455807       -0.23770313827993       -1.97387603308200
H            0.65654311229194       -1.67860389411907       -1.30127188616226
H            0.22671483714972       -0.02916102915303       -0.88169305483675
H           -1.31482901119554       -3.27679467705253        2.00349766155711
H           -3.20039424117329       -4.50698036453955        0.92985489529387
H           -1.64564065454623        1.09615676635919       -0.04547955320941
H           -2.31219360683069        3.29842724154387       -0.36277263951094
H           -1.22217692730516        2.75695671697481       -1.67388377713532
H           -2.38761430425027        4.06951286160829       -1.96544536206759
H           -4.92712515522590        0.61462672989417       -2.71521045315717
H           -5.20225228965404       -1.75015877262425       -1.96715543644576
