38
 energy: -65.476330419757 gnorm: 0.000483415395 xtb: 6.7.1 (edcfbbe)
O           -3.46909605601173        1.78346539204867       -2.62687246946792
C           -2.28624657034905        1.93309894656329       -1.90080698682350
C           -2.04190565757455        0.75577380605564       -0.94593812524659
O           -0.69320634262856        0.80501473256600       -0.53085887284400
C           -0.32860082013032       -0.27826170150770        0.28515429340314
C           -1.15010773772912       -0.27938299977359        1.58663618252701
C           -2.63636735806171       -0.33539644730321        1.23247264846155
C           -2.97588523315857        0.81096366014866        0.27345011498690
O           -4.31120357322000        0.72440140636934       -0.15541701161729
O           -3.45247384036235       -0.20517861847862        2.36908772381539
O           -0.84859456851520       -1.39135485310029        2.38999445556554
O            1.00222142380448       -0.16403726502349        0.65898536107268
C            1.99447557444384       -0.43710857125479       -0.27228652016096
C            1.77053076098567       -0.52473801352254       -1.63577795243080
C            2.82468385893946       -0.81428713810142       -2.48670744831404
C            4.09641705550445       -1.00924817021245       -1.98232377829949
C            4.31804382955925       -0.90612345076080       -0.61920664944196
C            3.27901459131960       -0.62598580422120        0.25267086533909
C            3.49850200758701       -0.51558004850523        1.74098463233072
O            3.13445192042542        0.73732591633088        2.26760634652657
H           -4.17748448770294        1.57340193394738       -2.00135043987687
H           -2.28370963155442        2.86653572026352       -1.31976896613653
H           -1.46894865859867        1.97480475301255       -2.62450328973537
H           -2.23761005457883       -0.18408281408388       -1.48924145739433
H           -0.50171547100685       -1.23378513571611       -0.25294256761318
H           -0.93789730723061        0.65902431361334        2.12252910403438
H           -2.83818522118973       -1.29879738140782        0.73466283050658
H           -2.80941590022197        1.76072676920464        0.80737062534664
H           -4.85016557409821        0.56174580147314        0.62967346519588
H           -3.12147369502273       -0.81877210878284        3.03602942311066
H            0.10371349759338       -1.40402639492661        2.54462519381907
H            0.78688272705401       -0.34515174691170       -2.03758145838809
H            2.64307115218118       -0.88013679807327       -3.54853270307718
H            4.91682615482271       -1.23302945978384       -2.64671815663822
H            5.31124707122544       -1.04966094699178       -0.22090666249181
H            4.55675508317029       -0.64452039710699        1.97798902290948
H            2.93037731733869       -1.31755416182830        2.24504284816765
H            2.25287973299044        0.95011727578203        1.93637637887892
