----- Optimization -----
      -----------------------------------------------------------      
     |                   =====================                   |     
     |                           x T B                           |     
     |                   =====================                   |     
     |                         S. Grimme                         |     
     |          Mulliken Center for Theoretical Chemistry        |     
     |                    University of Bonn                     |     
      -----------------------------------------------------------      

   * xtb version 6.7.1 (edcfbbe) compiled by 'conda@3ef47c1a292c' on 2024-11-25

   xtb is free software: you can redistribute it and/or modify it under
   the terms of the GNU Lesser General Public License as published by
   the Free Software Foundation, either version 3 of the License, or
   (at your option) any later version.
   
   xtb is distributed in the hope that it will be useful,
   but WITHOUT ANY WARRANTY; without even the implied warranty of
   MERCHANTABILITY or FITNESS FOR A PARTICULAR PURPOSE.  See the
   GNU Lesser General Public License for more details.
   
   Cite this work as:
   * C. Bannwarth, E. Caldeweyher, S. Ehlert, A. Hansen, P. Pracht,
     J. Seibert, S. Spicher, S. Grimme, WIREs Comput. Mol. Sci., 2020, 11,
     e01493. DOI: 10.1002/wcms.1493
   
   for GFN2-xTB:
   * C. Bannwarth, S. Ehlert and S. Grimme., J. Chem. Theory Comput., 2019,
     15, 1652-1671. DOI: 10.1021/acs.jctc.8b01176
   for GFN1-xTB:
   * S. Grimme, C. Bannwarth, P. Shushkov, J. Chem. Theory Comput., 2017,
     13, 1989-2009. DOI: 10.1021/acs.jctc.7b00118
   for GFN0-xTB:
   * P. Pracht, E. Caldeweyher, S. Ehlert, S. Grimme, ChemRxiv, 2019, preprint.
     DOI: 10.26434/chemrxiv.8326202.v1
   for GFN-FF:
   * S. Spicher and S. Grimme, Angew. Chem. Int. Ed., 2020, 59, 15665-15673.
     DOI: 10.1002/anie.202004239
   
   for ALPB and GBSA implicit solvation:
   * S. Ehlert, M. Stahn, S. Spicher, S. Grimme, J. Chem. Theory Comput.,
     2021, 17, 4250-4261. DOI: 10.1021/acs.jctc.1c00471
   
   for ddCOSMO and CPCM-X implicit solvation:
   * M. Stahn, S. Ehlert, S. Grimme, J. Phys. Chem. A,
     2023, XX, XXXX-XXXX. DOI: 10.1021/acs.jpca.3c04382
   
   for DFT-D4:
   * E. Caldeweyher, C. Bannwarth and S. Grimme, J. Chem. Phys., 2017,
     147, 034112. DOI: 10.1063/1.4993215
   * E. Caldeweyher, S. Ehlert, A. Hansen, H. Neugebauer, S. Spicher,
     C. Bannwarth and S. Grimme, J. Chem. Phys., 2019, 150, 154122.
     DOI: 10.1063/1.5090222
   * E. Caldeweyher, J.-M. Mewes, S. Ehlert and S. Grimme, Phys. Chem. Chem. Phys.
     2020, 22, 8499-8512. DOI: 10.1039/D0CP00502A
   
   for sTDA-xTB:
   * S. Grimme and C. Bannwarth, J. Chem. Phys., 2016, 145, 054103.
     DOI: 10.1063/1.4959605
   
   in the mass-spec context:
   * V. Asgeirsson, C. Bauer and S. Grimme, Chem. Sci., 2017, 8, 4879.
     DOI: 10.1039/c7sc00601b
   * J. Koopman and S. Grimme, ACS Omega 2019, 4, 12, 15120-15133.
     DOI: 10.1021/acsomega.9b02011
   
   for metadynamics refer to:
   * S. Grimme, J. Chem. Theory Comput., 2019, 155, 2847-2862
     DOI: 10.1021/acs.jctc.9b00143
   
   for SPH calculations refer to:
   * S. Spicher and S. Grimme, J. Chem. Theory Comput., 2021, 17, 1701-1714
     DOI: 10.1021/acs.jctc.0c01306
   
   for ONIOM refer to:
   * C. Plett, A. Katbashev, S. Ehlert, S. Grimme, M. Bursch,
     Phys. Chem. Chem. Phys., 2023, 25, 17860-17868. DOI: 10.1039/D3CP02178E
   
   for DIPRO refer to:
   * J. Kohn, N. Gildemeister, S. Grimme, D. Fazzi, A. Hansen,
     J. Chem. Phys., 2023, just accepted.
   
   for PTB refer to:
   * S. Grimme, M. Mueller, A. Hansen, J. Chem. Phys., 2023, 158, 124111.
     DOI: 10.1063/5.0137838
   
   with help from (in alphabetical order)
   P. Atkinson, C. Bannwarth, F. Bohle, G. Brandenburg, E. Caldeweyher
   M. Checinski, S. Dohm, S. Ehlert, S. Ehrlich, I. Gerasimov, C. Hölzer
   A. Katbashev, J. Kohn, J. Koopman, C. Lavigne, S. Lehtola, F. März, M. Müller,
   F. Musil, H. Neugebauer, J. Pisarek, C. Plett, P. Pracht, F. Pultar,
   J. Seibert, P. Shushkov, S. Spicher, M. Stahn, M. Steiner, T. Strunk,
   J. Stückrath, T. Rose, and J. Unsleber
   
 * started run on 2025/05/15 at 16:11:43.202     
   ID    Z sym.   atoms
    1    8 O      1, 4, 9-12, 20
    2    6 C      2, 3, 5-8, 13-19
    3    1 H      21-38

           -------------------------------------------------
          |                Calculation Setup                |
           -------------------------------------------------

          program call               : xtb /rds/general/user/hgt20/home/callum/QDESCP/Salicin_rdkit_conf_23/Salicin_rdkit_conf_23.xyz --opt normal --acc 1 --gfn 2 --chrg 0 --uhf 0 -P 1
          hostname                   : login-c
          coordinate file            : /rds/general/user/hgt20/home/callum/QDESCP/Salicin_rdkit_conf_23/Salicin_rdkit_conf_23.xyz
          omp threads                :                     1


           -------------------------------------------------
          |                 G F N 2 - x T B                 |
           -------------------------------------------------

        Reference                      10.1021/acs.jctc.8b01176
      * Hamiltonian:
        H0-scaling (s, p, d)           1.850000    2.230000    2.230000
        zeta-weighting                 0.500000
      * Dispersion:
        s8                             2.700000
        a1                             0.520000
        a2                             5.000000
        s9                             5.000000
      * Repulsion:
        kExp                           1.500000    1.000000
        rExp                           1.000000
      * Coulomb:
        alpha                          2.000000
        third order                    shell-resolved
        anisotropic                    true
        a3                             3.000000
        a5                             4.000000
        cn-shift                       1.200000
        cn-exp                         4.000000
        max-rad                        5.000000


          ...................................................
          :                      SETUP                      :
          :.................................................:
          :  # basis functions                  98          :
          :  # atomic orbitals                  98          :
          :  # shells                           58          :
          :  # electrons                       112          :
          :  max. iterations                   250          :
          :  Hamiltonian                  GFN2-xTB          :
          :  restarted?                      false          :
          :  GBSA solvation                  false          :
          :  PC potential                    false          :
          :  electronic temp.          300.0000000     K    :
          :  accuracy                    1.0000000          :
          :  -> integral cutoff          0.2500000E+02      :
          :  -> integral neglect         0.1000000E-07      :
          :  -> SCF convergence          0.1000000E-05 Eh   :
          :  -> wf. convergence          0.1000000E-03 e    :
          :  Broyden damping             0.4000000          :
          :  net charge                          0          :
          :  unpaired electrons                  0          :
          ...................................................

 iter      E             dE          RMSdq      gap      omega  full diag
   1    -66.0082793 -0.660083E+02  0.470E+00    4.13       0.0  T
   2    -66.0717065 -0.634272E-01  0.263E+00    4.28       1.0  T
   3    -66.0685865  0.312004E-02  0.921E-01    4.16       1.0  T
   4    -66.0752368 -0.665032E-02  0.299E-01    4.30       1.0  T
   5    -66.0768944 -0.165761E-02  0.946E-02    4.28       1.0  T
   6    -66.0769366 -0.421620E-04  0.435E-02    4.27       1.0  T
   7    -66.0769438 -0.722424E-05  0.167E-02    4.28       1.0  T
   8    -66.0769470 -0.322839E-05  0.554E-03    4.27       2.9  T
   9    -66.0769476 -0.532121E-06  0.226E-03    4.27       7.2  T
  10    -66.0769476 -0.410054E-07  0.105E-03    4.27      15.4  T
  11    -66.0769476 -0.159894E-07  0.361E-04    4.27      45.0  T
  12    -66.0769476 -0.182712E-08  0.129E-04    4.27     125.7  T

   *** convergence criteria satisfied after 12 iterations ***

         #    Occupation            Energy/Eh            Energy/eV
      -------------------------------------------------------------
         1        2.0000           -0.7460969             -20.3023
       ...           ...                  ...                  ...
        50        2.0000           -0.4381973             -11.9240
        51        2.0000           -0.4368285             -11.8867
        52        2.0000           -0.4299728             -11.7002
        53        2.0000           -0.4170625             -11.3488
        54        2.0000           -0.4144791             -11.2786
        55        2.0000           -0.4100113             -11.1570
        56        2.0000           -0.4019460             -10.9375 (HOMO)
        57                         -0.2449526              -6.6655 (LUMO)
        58                         -0.2350389              -6.3957
        59                         -0.1170798              -3.1859
        60                         -0.0791480              -2.1537
        61                         -0.0498144              -1.3555
       ...                                ...                  ...
        98                          0.6154218              16.7465
      -------------------------------------------------------------
                  HL-Gap            0.1569934 Eh            4.2720 eV
             Fermi-level           -0.3234493 Eh           -8.8015 eV

 SCC (total)                   0 d,  0 h,  0 min,  0.081 sec
 SCC setup                      ...        0 min,  0.000 sec (  0.380%)
 Dispersion                     ...        0 min,  0.000 sec (  0.494%)
 classical contributions        ...        0 min,  0.000 sec (  0.149%)
 integral evaluation            ...        0 min,  0.006 sec (  7.825%)
 iterations                     ...        0 min,  0.021 sec ( 25.498%)
 molecular gradient             ...        0 min,  0.053 sec ( 65.461%)
 printout                       ...        0 min,  0.000 sec (  0.186%)

         :::::::::::::::::::::::::::::::::::::::::::::::::::::
         ::                     SUMMARY                     ::
         :::::::::::::::::::::::::::::::::::::::::::::::::::::
         :: total energy             -65.464476498598 Eh    ::
         :: gradient norm              0.073444602402 Eh/a0 ::
         :: HOMO-LUMO gap              4.272008613177 eV    ::
         ::.................................................::
         :: SCC energy               -66.076722213327 Eh    ::
         :: -> isotropic ES            0.154012690210 Eh    ::
         :: -> anisotropic ES         -0.004330121656 Eh    ::
         :: -> anisotropic XC          0.000027247561 Eh    ::
         :: -> dispersion             -0.035803849733 Eh    ::
         :: repulsion energy           0.612245714729 Eh    ::
         :: add. restraining           0.000000000000 Eh    ::
         :: total charge               0.000000000000 e     ::
         :::::::::::::::::::::::::::::::::::::::::::::::::::::

      ----------------------------------------------------------- 
     |                   =====================                   |
     |                        A N C O P T                        |
     |                   =====================                   |
     |               Approximate Normal Coordinate               |
     |                Rational Function Optimizer                |
      ----------------------------------------------------------- 
      ----------------------------------------------------------- 
     |                   =====================                   |
     |                        A N C O P T                        |
     |                   =====================                   |
     |               Approximate Normal Coordinate               |
     |                Rational Function Optimizer                |
      ----------------------------------------------------------- 

          ...................................................
          :                      SETUP                      :
          :.................................................:
          :   optimization level            normal          :
          :   max. optcycles                   200          :
          :   ANC micro-cycles                  20          :
          :   degrees of freedom               108          :
          :.................................................:
          :   RF solver                   davidson          :
          :   write xtbopt.log                true          :
          :   linear?                        false          :
          :   energy convergence         0.5000000E-05 Eh   :
          :   grad. convergence          0.1000000E-02 Eh/α :
          :   maxmium RF displ.          1.0000000          :
          :   Hlow (freq-cutoff)         0.1000000E-01      :
          :   Hmax (freq-cutoff)         5.0000000          :
          :   S6 in model hess.         20.0000000          :
          ...................................................

generating ANC from exact Hessian ...
Using Lindh-Hessian (1995)
 Shifting diagonal of input Hessian by    9.6769363751314560E-003
 Lowest  eigenvalues of input Hessian
    0.000000    0.000000    0.000000    0.000000    0.000000    0.000000
    0.010000    0.010490    0.010637    0.012024    0.013132    0.013776
    0.014268    0.015247    0.016144    0.017469    0.018946    0.021271
 Highest eigenvalues
    1.530950    1.572683    1.719835    1.839342    1.952204    2.029127


........................................................................
.............................. CYCLE    1 ..............................
........................................................................

 iter      E             dE          RMSdq      gap      omega  full diag
   1    -66.0769476 -0.660769E+02  0.517E-05    4.27       0.0  T
   2    -66.0769476 -0.175646E-10  0.317E-05    4.27     511.0  T
   3    -66.0769476 -0.180478E-11  0.201E-05    4.27     807.0  T
     SCC iter.                  ...        0 min,  0.006 sec
     gradient                   ...        0 min,  0.068 sec
 * total energy  :   -65.4644765 Eh     change       -0.7551648E-10 Eh
   gradient norm :     0.0734451 Eh/α   predicted     0.0000000E+00 (-100.00%)
   displ. norm   :     0.2685338 α      lambda       -0.9426690E-02
   maximum displ.:     0.0878934 α      in ANC's #23, #9, #13, ...

........................................................................
.............................. CYCLE    2 ..............................
........................................................................

 iter      E             dE          RMSdq      gap      omega  full diag
   1    -66.1070322 -0.661070E+02  0.153E-01    4.37       0.0  T
   2    -66.1070653 -0.331274E-04  0.913E-02    4.36       1.0  T
   3    -66.1070564  0.886069E-05  0.258E-02    4.36       1.0  T
   4    -66.1070705 -0.140046E-04  0.703E-03    4.36       2.3  T
   5    -66.1070714 -0.982852E-06  0.319E-03    4.36       5.1  T
   6    -66.1070715 -0.496331E-07  0.141E-03    4.36      11.5  T
   7    -66.1070715 -0.118823E-07  0.533E-04    4.36      30.4  T
   8    -66.1070715 -0.256928E-08  0.191E-04    4.36      85.1  T
     SCC iter.                  ...        0 min,  0.013 sec
     gradient                   ...        0 min,  0.020 sec
 * total energy  :   -65.4711696 Eh     change       -0.6693070E-02 Eh
   gradient norm :     0.0375408 Eh/α   predicted    -0.5054373E-02 ( -24.48%)
   displ. norm   :     0.2969173 α      lambda       -0.4024351E-02
   maximum displ.:     0.1084695 α      in ANC's #7, #9, #10, ...

........................................................................
.............................. CYCLE    3 ..............................
........................................................................

 iter      E             dE          RMSdq      gap      omega  full diag
   1    -66.1234490 -0.661234E+02  0.128E-01    4.41       0.0  T
   2    -66.1234719 -0.228997E-04  0.761E-02    4.41       1.0  T
   3    -66.1234631  0.877464E-05  0.263E-02    4.41       1.0  T
   4    -66.1234770 -0.139137E-04  0.596E-03    4.41       2.7  T
   5    -66.1234775 -0.536037E-06  0.287E-03    4.41       5.6  T
   6    -66.1234776 -0.545839E-07  0.115E-03    4.41      14.1  T
   7    -66.1234776 -0.592799E-08  0.562E-04    4.41      28.9  T
   8    -66.1234776 -0.210136E-08  0.154E-04    4.41     105.1  T
     SCC iter.                  ...        0 min,  0.061 sec
     gradient                   ...        0 min,  0.020 sec
 * total energy  :   -65.4736273 Eh     change       -0.2457692E-02 Eh
   gradient norm :     0.0112263 Eh/α   predicted    -0.2190603E-02 ( -10.87%)
   displ. norm   :     0.2238506 α      lambda       -0.8762349E-03
   maximum displ.:     0.1118997 α      in ANC's #7, #6, #9, ...

........................................................................
.............................. CYCLE    4 ..............................
........................................................................

 iter      E             dE          RMSdq      gap      omega  full diag
   1    -66.1236862 -0.661237E+02  0.631E-02    4.42       0.0  T
   2    -66.1236892 -0.298856E-05  0.377E-02    4.42       1.0  T
   3    -66.1236867  0.249866E-05  0.121E-02    4.42       1.3  T
   4    -66.1236902 -0.352719E-05  0.246E-03    4.42       6.6  T
   5    -66.1236902 -0.533373E-07  0.117E-03    4.42      13.9  T
   6    -66.1236902 -0.991120E-08  0.503E-04    4.42      32.3  T
   7    -66.1236902 -0.990667E-09  0.220E-04    4.42      73.7  T
     SCC iter.                  ...        0 min,  0.062 sec
     gradient                   ...        0 min,  0.020 sec
 * total energy  :   -65.4742802 Eh     change       -0.6529242E-03 Eh
   gradient norm :     0.0118593 Eh/α   predicted    -0.4600795E-03 ( -29.54%)
   displ. norm   :     0.3032698 α      lambda       -0.8077905E-03
   maximum displ.:     0.1637139 α      in ANC's #7, #6, #9, ...

........................................................................
.............................. CYCLE    5 ..............................
........................................................................

 iter      E             dE          RMSdq      gap      omega  full diag
   1    -66.1212919 -0.661213E+02  0.739E-02    4.42       0.0  T
   2    -66.1212950 -0.302380E-05  0.443E-02    4.42       1.0  T
   3    -66.1212915  0.349440E-05  0.135E-02    4.42       1.2  T
   4    -66.1212962 -0.472162E-05  0.259E-03    4.42       6.3  T
   5    -66.1212962 -0.466353E-07  0.128E-03    4.42      12.7  T
   6    -66.1212962 -0.880760E-08  0.533E-04    4.42      30.4  T
   7    -66.1212962 -0.173726E-08  0.211E-04    4.42      76.9  T
     SCC iter.                  ...        0 min,  0.012 sec
     gradient                   ...        0 min,  0.065 sec
 * total energy  :   -65.4748217 Eh     change       -0.5415455E-03 Eh
   gradient norm :     0.0154917 Eh/α   predicted    -0.4410601E-03 ( -18.56%)
   displ. norm   :     0.2150375 α      lambda       -0.4533656E-03
   maximum displ.:     0.1215235 α      in ANC's #7, #6, #9, ...

........................................................................
.............................. CYCLE    6 ..............................
........................................................................

 iter      E             dE          RMSdq      gap      omega  full diag
   1    -66.1208242 -0.661208E+02  0.483E-02    4.42       0.0  T
   2    -66.1208253 -0.112572E-05  0.287E-02    4.42       1.0  T
   3    -66.1208239  0.138498E-05  0.823E-03    4.42       2.0  T
   4    -66.1208257 -0.179400E-05  0.150E-03    4.42      10.8  T
   5    -66.1208257 -0.217655E-07  0.755E-04    4.42      21.5  T
   6    -66.1208257 -0.184193E-08  0.277E-04    4.42      58.5  T
     SCC iter.                  ...        0 min,  0.010 sec
     gradient                   ...        0 min,  0.020 sec
 * total energy  :   -65.4751355 Eh     change       -0.3137273E-03 Eh
   gradient norm :     0.0095855 Eh/α   predicted    -0.2372880E-03 ( -24.36%)
   displ. norm   :     0.2563796 α      lambda       -0.3867545E-03
   maximum displ.:     0.1575596 α      in ANC's #7, #6, #4, ...

........................................................................
.............................. CYCLE    7 ..............................
........................................................................

 iter      E             dE          RMSdq      gap      omega  full diag
   1    -66.1204342 -0.661204E+02  0.625E-02    4.43       0.0  T
   2    -66.1204367 -0.251472E-05  0.375E-02    4.43       1.0  T
   3    -66.1204334  0.335046E-05  0.127E-02    4.43       1.3  T
   4    -66.1204378 -0.446641E-05  0.233E-03    4.43       7.0  T
   5    -66.1204379 -0.367634E-07  0.120E-03    4.43      13.5  T
   6    -66.1204379 -0.630472E-08  0.494E-04    4.43      32.9  T
   7    -66.1204379 -0.161560E-08  0.168E-04    4.43      96.4  T
     SCC iter.                  ...        0 min,  0.052 sec
     gradient                   ...        0 min,  0.020 sec
 * total energy  :   -65.4753662 Eh     change       -0.2307497E-03 Eh
   gradient norm :     0.0127734 Eh/α   predicted    -0.2060992E-03 ( -10.68%)
   displ. norm   :     0.1863970 α      lambda       -0.3910881E-03
   maximum displ.:     0.0992456 α      in ANC's #4, #7, #6, ...

........................................................................
.............................. CYCLE    8 ..............................
........................................................................

 iter      E             dE          RMSdq      gap      omega  full diag
   1    -66.1234428 -0.661234E+02  0.537E-02    4.44       0.0  T
   2    -66.1234446 -0.179348E-05  0.318E-02    4.43       1.0  T
   3    -66.1234433  0.124750E-05  0.756E-03    4.43       2.1  T
   4    -66.1234449 -0.158142E-05  0.186E-03    4.43       8.7  T
   5    -66.1234450 -0.640624E-07  0.562E-04    4.43      28.9  T
   6    -66.1234450 -0.275936E-08  0.252E-04    4.43      64.4  T
     SCC iter.                  ...        0 min,  0.010 sec
     gradient                   ...        0 min,  0.065 sec
 * total energy  :   -65.4755934 Eh     change       -0.2271908E-03 Eh
   gradient norm :     0.0053627 Eh/α   predicted    -0.2023789E-03 ( -10.92%)
   displ. norm   :     0.1989057 α      lambda       -0.2317937E-03
   maximum displ.:     0.1094022 α      in ANC's #4, #7, #9, ...

........................................................................
.............................. CYCLE    9 ..............................
........................................................................

 iter      E             dE          RMSdq      gap      omega  full diag
   1    -66.1241142 -0.661241E+02  0.509E-02    4.44       0.0  T
   2    -66.1241153 -0.112576E-05  0.307E-02    4.44       1.0  T
   3    -66.1241137  0.163650E-05  0.851E-03    4.44       1.9  T
   4    -66.1241158 -0.213942E-05  0.166E-03    4.44       9.8  T
   5    -66.1241159 -0.182712E-07  0.852E-04    4.44      19.0  T
   6    -66.1241159 -0.275872E-08  0.337E-04    4.44      48.1  T
     SCC iter.                  ...        0 min,  0.010 sec
     gradient                   ...        0 min,  0.020 sec
 * total energy  :   -65.4757742 Eh     change       -0.1808302E-03 Eh
   gradient norm :     0.0070915 Eh/α   predicted    -0.1204859E-03 ( -33.37%)
   displ. norm   :     0.3087973 α      lambda       -0.3794990E-03
   maximum displ.:     0.1666372 α      in ANC's #9, #4, #5, ...

........................................................................
.............................. CYCLE   10 ..............................
........................................................................

 iter      E             dE          RMSdq      gap      omega  full diag
   1    -66.1249262 -0.661249E+02  0.770E-02    4.45       0.0  T
   2    -66.1249281 -0.196325E-05  0.465E-02    4.45       1.0  T
   3    -66.1249266  0.152657E-05  0.845E-03    4.45       1.9  T
   4    -66.1249287 -0.211455E-05  0.227E-03    4.45       7.2  T
   5    -66.1249288 -0.619403E-07  0.105E-03    4.45      15.4  T
   6    -66.1249288 -0.549592E-08  0.426E-04    4.45      38.1  T
   7    -66.1249288 -0.126602E-08  0.167E-04    4.45      97.4  T
     SCC iter.                  ...        0 min,  0.058 sec
     gradient                   ...        0 min,  0.020 sec
 * total energy  :   -65.4760142 Eh     change       -0.2399852E-03 Eh
   gradient norm :     0.0079431 Eh/α   predicted    -0.2078452E-03 ( -13.39%)
   displ. norm   :     0.1373736 α      lambda       -0.1511794E-03
   maximum displ.:     0.0761518 α      in ANC's #9, #4, #5, ...

........................................................................
.............................. CYCLE   11 ..............................
........................................................................

 iter      E             dE          RMSdq      gap      omega  full diag
   1    -66.1248006 -0.661248E+02  0.339E-02    4.45       0.0  T
   2    -66.1248009 -0.308864E-06  0.203E-02    4.45       1.0  T
   3    -66.1248006  0.268050E-06  0.314E-03    4.45       5.2  T
   4    -66.1248010 -0.368016E-06  0.846E-04    4.45      19.2  T
   5    -66.1248010 -0.763923E-08  0.363E-04    4.45      44.8  T
     SCC iter.                  ...        0 min,  0.008 sec
     gradient                   ...        0 min,  0.065 sec
 * total energy  :   -65.4761247 Eh     change       -0.1105277E-03 Eh
   gradient norm :     0.0051893 Eh/α   predicted    -0.7702598E-04 ( -30.31%)
   displ. norm   :     0.2504912 α      lambda       -0.1518288E-03
   maximum displ.:     0.1386568 α      in ANC's #4, #7, #9, ...

........................................................................
.............................. CYCLE   12 ..............................
........................................................................

 iter      E             dE          RMSdq      gap      omega  full diag
   1    -66.1223805 -0.661224E+02  0.658E-02    4.44       0.0  T
   2    -66.1223816 -0.103870E-05  0.397E-02    4.44       1.0  T
   3    -66.1223803  0.123149E-05  0.706E-03    4.44       2.3  T
   4    -66.1223820 -0.162796E-05  0.167E-03    4.44       9.7  T
   5    -66.1223820 -0.213327E-07  0.811E-04    4.44      20.0  T
   6    -66.1223820 -0.421083E-08  0.309E-04    4.44      52.5  T
     SCC iter.                  ...        0 min,  0.010 sec
     gradient                   ...        0 min,  0.020 sec
 * total energy  :   -65.4762006 Eh     change       -0.7586753E-04 Eh
   gradient norm :     0.0056721 Eh/α   predicted    -0.8068435E-04 (   6.35%)
   displ. norm   :     0.0680640 α      lambda       -0.1192140E-03
   maximum displ.:     0.0264375 α      in ANC's #1, #8, #5, ...

........................................................................
.............................. CYCLE   13 ..............................
........................................................................

 iter      E             dE          RMSdq      gap      omega  full diag
   1    -66.1236289 -0.661236E+02  0.238E-02    4.44       0.0  T
   2    -66.1236294 -0.508924E-06  0.144E-02    4.44       1.1  T
   3    -66.1236288  0.687545E-06  0.500E-03    4.44       3.2  T
   4    -66.1236296 -0.895666E-06  0.914E-04    4.44      17.7  T
   5    -66.1236297 -0.750077E-08  0.535E-04    4.44      30.3  T
     SCC iter.                  ...        0 min,  0.053 sec
     gradient                   ...        0 min,  0.020 sec
 * total energy  :   -65.4762357 Eh     change       -0.3511889E-04 Eh
   gradient norm :     0.0048474 Eh/α   predicted    -0.5988490E-04 (  70.52%)
   displ. norm   :     0.0691941 α      lambda       -0.4335868E-04
   maximum displ.:     0.0362006 α      in ANC's #4, #7, #6, ...

........................................................................
.............................. CYCLE   14 ..............................
........................................................................

 iter      E             dE          RMSdq      gap      omega  full diag
   1    -66.1235587 -0.661236E+02  0.207E-02    4.44       0.0  T
   2    -66.1235589 -0.189487E-06  0.125E-02    4.44       1.3  T
   3    -66.1235585  0.400958E-06  0.388E-03    4.44       4.2  T
   4    -66.1235590 -0.484980E-06  0.543E-04    4.44      29.9  T
   5    -66.1235590 -0.207979E-08  0.273E-04    4.44      59.5  T
     SCC iter.                  ...        0 min,  0.008 sec
     gradient                   ...        0 min,  0.020 sec
 * total energy  :   -65.4762651 Eh     change       -0.2938263E-04 Eh
   gradient norm :     0.0025600 Eh/α   predicted    -0.2179765E-04 ( -25.81%)
   displ. norm   :     0.0703875 α      lambda       -0.2373403E-04
   maximum displ.:     0.0333986 α      in ANC's #2, #7, #4, ...

........................................................................
.............................. CYCLE   15 ..............................
........................................................................

 iter      E             dE          RMSdq      gap      omega  full diag
   1    -66.1239840 -0.661240E+02  0.199E-02    4.45       0.0  T
   2    -66.1239841 -0.126011E-06  0.120E-02    4.45       1.4  T
   3    -66.1239839  0.194864E-06  0.299E-03    4.45       5.4  T
   4    -66.1239842 -0.259572E-06  0.598E-04    4.45      27.1  T
   5    -66.1239842 -0.188146E-08  0.316E-04    4.45      51.3  T
     SCC iter.                  ...        0 min,  0.041 sec
     gradient                   ...        0 min,  0.020 sec
 * total energy  :   -65.4762805 Eh     change       -0.1537195E-04 Eh
   gradient norm :     0.0013385 Eh/α   predicted    -0.1193338E-04 ( -22.37%)
   displ. norm   :     0.0979263 α      lambda       -0.1491728E-04
   maximum displ.:     0.0605051 α      in ANC's #2, #4, #1, ...

........................................................................
.............................. CYCLE   16 ..............................
........................................................................

 iter      E             dE          RMSdq      gap      omega  full diag
   1    -66.1245339 -0.661245E+02  0.288E-02    4.45       0.0  T
   2    -66.1245341 -0.187852E-06  0.174E-02    4.45       1.0  T
   3    -66.1245339  0.164518E-06  0.272E-03    4.45       6.0  T
   4    -66.1245342 -0.230265E-06  0.699E-04    4.45      23.2  T
   5    -66.1245342 -0.481617E-08  0.305E-04    4.45      53.1  T
     SCC iter.                  ...        0 min,  0.008 sec
     gradient                   ...        0 min,  0.060 sec
 * total energy  :   -65.4762930 Eh     change       -0.1250618E-04 Eh
   gradient norm :     0.0022203 Eh/α   predicted    -0.7492741E-05 ( -40.09%)
   displ. norm   :     0.0465925 α      lambda       -0.1425552E-04
   maximum displ.:     0.0392303 α      in ANC's #2, #8, #1, ...

........................................................................
.............................. CYCLE   17 ..............................
........................................................................

 iter      E             dE          RMSdq      gap      omega  full diag
   1    -66.1247100 -0.661247E+02  0.112E-02    4.45       0.0  T
   2    -66.1247100 -0.693068E-07  0.676E-03    4.45       2.4  T
   3    -66.1247100  0.578608E-08  0.101E-03    4.45      16.1  T
   4    -66.1247101 -0.263243E-07  0.421E-04    4.45      38.5  T
   5    -66.1247101 -0.264417E-08  0.213E-04    4.45      76.1  T
     SCC iter.                  ...        0 min,  0.008 sec
     gradient                   ...        0 min,  0.020 sec
 * total energy  :   -65.4763026 Eh     change       -0.9653529E-05 Eh
   gradient norm :     0.0014999 Eh/α   predicted    -0.7144335E-05 ( -25.99%)
   displ. norm   :     0.1065396 α      lambda       -0.1370436E-04
   maximum displ.:     0.0896614 α      in ANC's #2, #8, #1, ...

........................................................................
.............................. CYCLE   18 ..............................
........................................................................

 iter      E             dE          RMSdq      gap      omega  full diag
   1    -66.1239721 -0.661240E+02  0.285E-02    4.44       0.0  T
   2    -66.1239723 -0.171336E-06  0.172E-02    4.44       1.0  T
   3    -66.1239723  0.485198E-08  0.163E-03    4.44       9.9  T
   4    -66.1239723 -0.670282E-07  0.736E-04    4.44      22.0  T
   5    -66.1239723 -0.504106E-08  0.315E-04    4.44      51.6  T
     SCC iter.                  ...        0 min,  0.010 sec
     gradient                   ...        0 min,  0.060 sec
 * total energy  :   -65.4763148 Eh     change       -0.1219004E-04 Eh
   gradient norm :     0.0010116 Eh/α   predicted    -0.6897309E-05 ( -43.42%)
   displ. norm   :     0.0414083 α      lambda       -0.5359233E-05
   maximum displ.:     0.0325459 α      in ANC's #2, #5, #3, ...

........................................................................
.............................. CYCLE   19 ..............................
........................................................................

 iter      E             dE          RMSdq      gap      omega  full diag
   1    -66.1240534 -0.661241E+02  0.113E-02    4.44       0.0  T
   2    -66.1240535 -0.184621E-07  0.670E-03    4.44       2.4  T
   3    -66.1240535  0.905587E-08  0.719E-04    4.44      22.6  T
   4    -66.1240535 -0.160253E-07  0.232E-04    4.44      70.1  T
     SCC iter.                  ...        0 min,  0.007 sec
     gradient                   ...        0 min,  0.020 sec
 * total energy  :   -65.4763213 Eh     change       -0.6477380E-05 Eh
   gradient norm :     0.0006976 Eh/α   predicted    -0.2683227E-05 ( -58.58%)
   displ. norm   :     0.0492308 α      lambda       -0.5559385E-05
   maximum displ.:     0.0340395 α      in ANC's #2, #3, #5, ...

........................................................................
.............................. CYCLE   20 ..............................
........................................................................

 iter      E             dE          RMSdq      gap      omega  full diag
   1    -66.1240178 -0.661240E+02  0.135E-02    4.44       0.0  T
   2    -66.1240178 -0.374824E-07  0.800E-03    4.44       2.0  T
   3    -66.1240178  0.861776E-08  0.814E-04    4.44      19.9  T
   4    -66.1240178 -0.194500E-07  0.307E-04    4.44      52.8  T
     SCC iter.                  ...        0 min,  0.007 sec
     gradient                   ...        0 min,  0.055 sec
 * total energy  :   -65.4763271 Eh     change       -0.5770760E-05 Eh
   gradient norm :     0.0005176 Eh/α   predicted    -0.2785037E-05 ( -51.74%)
   displ. norm   :     0.0485100 α      lambda       -0.3071395E-05
   maximum displ.:     0.0363487 α      in ANC's #2, #3, #5, ...
 * RMSD in coord.:     0.3608310 α      energy gain  -0.1185058E-01 Eh

generating ANC from exact Hessian ...
Using Lindh-Hessian (1995)
 Shifting diagonal of input Hessian by    9.6244943878259076E-003
 Lowest  eigenvalues of input Hessian
    0.000000    0.000000    0.000000    0.000000    0.000000    0.000000
    0.010000    0.010557    0.010692    0.012206    0.013282    0.014079
    0.014941    0.015505    0.016143    0.018241    0.019802    0.020342
 Highest eigenvalues
    1.622179    1.641435    1.783884    1.905485    2.024685    2.084376


........................................................................
.............................. CYCLE   21 ..............................
........................................................................

 iter      E             dE          RMSdq      gap      omega  full diag
   1    -66.1241487 -0.661241E+02  0.134E-02    4.44       0.0  T
   2    -66.1241487 -0.235055E-07  0.793E-03    4.44       2.0  T
   3    -66.1241487  0.802500E-08  0.853E-04    4.44      19.0  T
   4    -66.1241487 -0.185458E-07  0.275E-04    4.44      59.0  T
     SCC iter.                  ...        0 min,  0.007 sec
     gradient                   ...        0 min,  0.067 sec
 * total energy  :   -65.4763304 Eh     change       -0.3338677E-05 Eh
   gradient norm :     0.0004834 Eh/α   predicted     0.0000000E+00 (-100.00%)
   displ. norm   :     0.0131142 α      lambda       -0.2233660E-06
   maximum displ.:     0.0087353 α      in ANC's #2, #3, #10, ...

   *** GEOMETRY OPTIMIZATION CONVERGED AFTER 21 ITERATIONS ***

------------------------------------------------------------------------
 total energy gain   :        -0.0118539 Eh       -7.4384 kcal/mol
 total RMSD          :         0.3608310 a0        0.1909 Å
 total power (kW/mol):        -1.4820221 (step)  -22.1925 (real)
------------------------------------------------------------------------

 ANCopt (total)                0 d,  0 h,  0 min,  1.402 sec
 optimizer setup                ...        0 min,  0.000 sec (  0.006%)
 model hessian                  ...        0 min,  0.030 sec (  2.170%)
 ANC generation                 ...        0 min,  0.002 sec (  0.175%)
 coordinate transformation      ...        0 min,  0.000 sec (  0.009%)
 single point calculation       ...        0 min,  1.364 sec ( 97.257%)
 optimization log               ...        0 min,  0.003 sec (  0.211%)
 hessian update                 ...        0 min,  0.000 sec (  0.016%)
 rational function              ...        0 min,  0.002 sec (  0.109%)

================
 final structure:
================
38
 xtb: 6.7.1 (edcfbbe)
O           -3.46909605601173        1.78346539204867       -2.62687246946792
C           -2.28624657034905        1.93309894656329       -1.90080698682350
C           -2.04190565757455        0.75577380605564       -0.94593812524659
O           -0.69320634262856        0.80501473256600       -0.53085887284400
C           -0.32860082013032       -0.27826170150770        0.28515429340314
C           -1.15010773772912       -0.27938299977359        1.58663618252701
C           -2.63636735806171       -0.33539644730321        1.23247264846155
C           -2.97588523315857        0.81096366014866        0.27345011498690
O           -4.31120357322000        0.72440140636934       -0.15541701161729
O           -3.45247384036235       -0.20517861847862        2.36908772381539
O           -0.84859456851520       -1.39135485310029        2.38999445556554
O            1.00222142380448       -0.16403726502349        0.65898536107268
C            1.99447557444384       -0.43710857125479       -0.27228652016096
C            1.77053076098567       -0.52473801352254       -1.63577795243080
C            2.82468385893946       -0.81428713810142       -2.48670744831404
C            4.09641705550445       -1.00924817021245       -1.98232377829949
C            4.31804382955925       -0.90612345076080       -0.61920664944196
C            3.27901459131960       -0.62598580422120        0.25267086533909
C            3.49850200758701       -0.51558004850523        1.74098463233072
O            3.13445192042542        0.73732591633088        2.26760634652657
H           -4.17748448770294        1.57340193394738       -2.00135043987687
H           -2.28370963155442        2.86653572026352       -1.31976896613653
H           -1.46894865859867        1.97480475301255       -2.62450328973537
H           -2.23761005457883       -0.18408281408388       -1.48924145739433
H           -0.50171547100685       -1.23378513571611       -0.25294256761318
H           -0.93789730723061        0.65902431361334        2.12252910403438
H           -2.83818522118973       -1.29879738140782        0.73466283050658
H           -2.80941590022197        1.76072676920464        0.80737062534664
H           -4.85016557409821        0.56174580147314        0.62967346519588
H           -3.12147369502273       -0.81877210878284        3.03602942311066
H            0.10371349759338       -1.40402639492661        2.54462519381907
H            0.78688272705401       -0.34515174691170       -2.03758145838809
H            2.64307115218118       -0.88013679807327       -3.54853270307718
H            4.91682615482271       -1.23302945978384       -2.64671815663822
H            5.31124707122544       -1.04966094699178       -0.22090666249181
H            4.55675508317029       -0.64452039710699        1.97798902290948
H            2.93037731733869       -1.31755416182830        2.24504284816765
H            2.25287973299044        0.95011727578203        1.93637637887892

 Bond Distances (Angstroems)
 ---------------------------
O1-C2=1.3960         O1-H21=0.9681        C2-O1=1.3960         C2-C3=1.5354         C2-H22=1.0995        C2-H23=1.0925        
C3-C2=1.5354         C3-O4=1.4120         C3-C8=1.5370         C3-H24=1.1031        O4-C3=1.4120         O4-C5=1.4044         
C5-O4=1.4044         C5-C6=1.5391         C5-O12=1.3870        C5-H25=1.1102        C6-C5=1.5391         C6-C7=1.5289         
C6-O11=1.4046        C6-H26=1.1013        C7-C6=1.5289         C7-C8=1.5327         C7-O10=1.4053        C7-H27=1.1030        
C8-C3=1.5370         C8-C7=1.5327         C8-O9=1.4052         C8-H28=1.1022        O9-C8=1.4052         O9-H29=0.9661        
O10-C7=1.4053        O10-H30=0.9648       O11-C6=1.4046        O11-H31=0.9649       O12-C5=1.3870        O12-C13=1.3879       
C13-O12=1.3879       C13-C14=1.3845       C13-C18=1.4005       C14-C13=1.3845       C14-C15=1.3853       C14-H32=1.0776       
C15-C14=1.3853       C15-C16=1.3819       C15-H33=1.0793       C16-C15=1.3819       C16-C17=1.3849       C16-H34=1.0792       
C17-C16=1.3849       C17-C18=1.3850       C17-H35=1.0797       C18-C13=1.4005       C18-C17=1.3850       C18-C19=1.5085       
C19-C18=1.5085       C19-O20=1.4070       C19-H36=1.0921       C19-H37=1.1045       O20-C19=1.4070       O20-H38=0.9655       
H21-O1=0.9681        H22-C2=1.0995        H23-C2=1.0925        H24-C3=1.1031        H25-C5=1.1102        H26-C6=1.1013        
H27-C7=1.1030        H28-C8=1.1022        H29-O9=0.9661        H30-O10=0.9648       H31-O11=0.9649       H32-C14=1.0776       
H33-C15=1.0793       H34-C16=1.0792       H35-C17=1.0797       H36-C19=1.0921       H37-C19=1.1045       H38-O20=0.9655       
 C  H  Rav=1.0942 sigma=0.0111  Rmin=1.0776  Rmax=1.1102    13
 C  C  Rav=1.4586 sigma=0.0721  Rmin=1.3819  Rmax=1.5391    12
 O  H  Rav=0.9659 sigma=0.0012  Rmin=0.9648  Rmax=0.9681     5
 O  C  Rav=1.4010 sigma=0.0082  Rmin=1.3870  Rmax=1.4120     9

 selected bond angles (degree)
 --------------------
H21-O1-C2=107.89               C3-C2-O1=112.09                H22-C2-O1=111.58               H22-C2-C3=108.78               
H23-C2-O1=107.07               H23-C2-C3=108.80               H23-C2-H22=108.42              O4-C3-C2=107.94                
C8-C3-C2=111.66                C8-C3-O4=110.24                H24-C3-C2=108.59               H24-C3-O4=110.12               
H24-C3-C8=108.27               C5-O4-C3=113.07                C6-C5-O4=110.69                O12-C5-O4=110.01               
O12-C5-C6=106.52               H25-C5-O4=109.99               H25-C5-C6=109.03               H25-C5-O12=110.56              
C7-C6-C5=108.85                O11-C6-C5=111.69               O11-C6-C7=108.19               H26-C6-C5=107.94               
H26-C6-C7=109.35               H26-C6-O11=110.79              C8-C7-C6=109.44                O10-C7-C6=111.95               
O10-C7-C8=107.95               H27-C7-C6=108.32               H27-C7-C8=109.29               H27-C7-O10=109.86              
C7-C8-C3=109.57                O9-C8-C3=109.46                O9-C8-C7=110.82                H28-C8-C3=108.87               
H28-C8-C7=107.94               H28-C8-O9=110.15               H29-O9-C8=107.01               H30-O10-C7=107.51              

 selected dihedral angles (degree)
 ---------------------------------
C3-C2-O1-H21= 49.96           H22-C2-O1-H21=287.67          H23-C2-O1-H21=169.19          O4-C3-C2-O1=164.67            
O4-C3-C2-H22=288.54           O4-C3-C2-H23= 46.46           C8-C3-C2-O1=285.99            C8-C3-C2-H22= 49.86           
C8-C3-C2-H23=167.78           H24-C3-C2-O1= 45.30           H24-C3-C2-H22=169.17          H24-C3-C2-H23=287.09          
C5-O4-C3-C2=183.77            C5-O4-C3-C8= 61.56            C5-O4-C3-H24=302.15           C6-C5-O4-C3=297.68            
O12-C5-O4-C3=180.23           H25-C5-O4-C3= 58.22           C7-C6-C5-O4= 57.72            C7-C6-C5-O12=177.29           
C7-C6-C5-H25=296.61           O11-C6-C5-O4=177.11           O11-C6-C5-O12=296.68          O11-C6-C5-H25= 56.00          
H26-C6-C5-O4=299.14           H26-C6-C5-O12= 58.71          H26-C6-C5-H25=178.02          C8-C7-C6-C5=305.56            
C8-C7-C6-O11=184.00           C8-C7-C6-H26= 63.25           O10-C7-C6-C5=185.92           O10-C7-C6-O11= 64.36          
O10-C7-C6-H26=303.61          H27-C7-C6-C5= 64.63           H27-C7-C6-O11=303.08          H27-C7-C6-H26=182.33          
C7-C8-C3-C2=183.31            C7-C8-C3-O4=303.30            C7-C8-C3-H24= 63.82           O9-C8-C3-C2= 61.60            
O9-C8-C3-O4=181.59            O9-C8-C3-H24=302.11           H28-C8-C3-C2=301.15           H28-C8-C3-O4= 61.13           
H28-C8-C3-H24=181.65          C3-C8-C7-C6= 54.41            C3-C8-C7-O10=176.48           C3-C8-C7-H27=295.93           
O9-C8-C7-C6=175.30            O9-C8-C7-O10=297.37           O9-C8-C7-H27= 56.82           H28-C8-C7-C6=295.99           
H28-C8-C7-O10= 58.06          H28-C8-C7-H27=177.51          H29-O9-C8-C3=167.50           H29-O9-C8-C7= 46.54           
H29-O9-C8-H28=287.17          H30-O10-C7-C6=311.22          H30-O10-C7-C8=190.70          H30-O10-C7-H27= 71.61         
           -------------------------------------------------
          |                Final Singlepoint                |
           -------------------------------------------------

          ...................................................
          :                      SETUP                      :
          :.................................................:
          :  # basis functions                  98          :
          :  # atomic orbitals                  98          :
          :  # shells                           58          :
          :  # electrons                       112          :
          :  max. iterations                   250          :
          :  Hamiltonian                  GFN2-xTB          :
          :  restarted?                      false          :
          :  GBSA solvation                  false          :
          :  PC potential                    false          :
          :  electronic temp.          300.0000000     K    :
          :  accuracy                    1.0000000          :
          :  -> integral cutoff          0.2500000E+02      :
          :  -> integral neglect         0.1000000E-07      :
          :  -> SCF convergence          0.1000000E-05 Eh   :
          :  -> wf. convergence          0.1000000E-03 e    :
          :  Broyden damping             0.4000000          :
          :  net charge                          0          :
          :  unpaired electrons                  0          :
          ...................................................

 iter      E             dE          RMSdq      gap      omega  full diag
   1    -66.1241487 -0.661241E+02  0.136E-04    4.44       0.0  T
   2    -66.1241487 -0.791971E-10  0.853E-05    4.44     190.1  T
   3    -66.1241487 -0.125198E-10  0.532E-05    4.44     305.0  T

   *** convergence criteria satisfied after 3 iterations ***

         #    Occupation            Energy/Eh            Energy/eV
      -------------------------------------------------------------
         1        2.0000           -0.7504683             -20.4213
       ...           ...                  ...                  ...
        50        2.0000           -0.4371970             -11.8967
        51        2.0000           -0.4348824             -11.8338
        52        2.0000           -0.4253218             -11.5736
        53        2.0000           -0.4178057             -11.3691
        54        2.0000           -0.4160324             -11.3208
        55        2.0000           -0.4099594             -11.1556
        56        2.0000           -0.4022637             -10.9462 (HOMO)
        57                         -0.2389950              -6.5034 (LUMO)
        58                         -0.2325226              -6.3273
        59                         -0.1085060              -2.9526
        60                         -0.0458407              -1.2474
        61                         -0.0303617              -0.8262
       ...                                ...                  ...
        98                          0.6490120              17.6605
      -------------------------------------------------------------
                  HL-Gap            0.1632687 Eh            4.4428 eV
             Fermi-level           -0.3206293 Eh           -8.7248 eV

 SCC (total)                   0 d,  0 h,  0 min,  0.032 sec
 SCC setup                      ...        0 min,  0.000 sec (  0.779%)
 Dispersion                     ...        0 min,  0.000 sec (  0.725%)
 classical contributions        ...        0 min,  0.000 sec (  0.354%)
 integral evaluation            ...        0 min,  0.006 sec ( 19.389%)
 iterations                     ...        0 min,  0.005 sec ( 15.469%)
 molecular gradient             ...        0 min,  0.020 sec ( 62.856%)
 printout                       ...        0 min,  0.000 sec (  0.407%)

         :::::::::::::::::::::::::::::::::::::::::::::::::::::
         ::                     SUMMARY                     ::
         :::::::::::::::::::::::::::::::::::::::::::::::::::::
         :: total energy             -65.476330419757 Eh    ::
         :: gradient norm              0.000483415395 Eh/a0 ::
         :: HOMO-LUMO gap              4.442767653866 eV    ::
         ::.................................................::
         :: SCC energy               -66.123908948151 Eh    ::
         :: -> isotropic ES            0.150391806978 Eh    ::
         :: -> anisotropic ES         -0.007089177800 Eh    ::
         :: -> anisotropic XC         -0.002753659536 Eh    ::
         :: -> dispersion             -0.036602984088 Eh    ::
         :: repulsion energy           0.647578528393 Eh    ::
         :: add. restraining           0.000000000000 Eh    ::
         :: total charge               0.000000000000 e     ::
         :::::::::::::::::::::::::::::::::::::::::::::::::::::

           -------------------------------------------------
          |                Property Printout                |
           -------------------------------------------------

    * Orbital Energies and Occupations

         #    Occupation            Energy/Eh            Energy/eV
      -------------------------------------------------------------
         1        2.0000           -0.7504683             -20.4213
       ...           ...                  ...                  ...
        44        2.0000           -0.4752057             -12.9310
        45        2.0000           -0.4659769             -12.6799
        46        2.0000           -0.4633706             -12.6090
        47        2.0000           -0.4522475             -12.3063
        48        2.0000           -0.4483145             -12.1993
        49        2.0000           -0.4420633             -12.0292
        50        2.0000           -0.4371970             -11.8967
        51        2.0000           -0.4348824             -11.8338
        52        2.0000           -0.4253218             -11.5736
        53        2.0000           -0.4178057             -11.3691
        54        2.0000           -0.4160324             -11.3208
        55        2.0000           -0.4099594             -11.1556
        56        2.0000           -0.4022637             -10.9462 (HOMO)
        57                         -0.2389950              -6.5034 (LUMO)
        58                         -0.2325226              -6.3273
        59                         -0.1085060              -2.9526
        60                         -0.0458407              -1.2474
        61                         -0.0303617              -0.8262
        62                         -0.0011498              -0.0313
        63                          0.0230535               0.6273
        64                          0.0339916               0.9250
        65                          0.0462338               1.2581
        66                          0.0663231               1.8047
        67                          0.0745097               2.0275
       ...                                ...                  ...
        98                          0.6490120              17.6605
      -------------------------------------------------------------
                  HL-Gap            0.1632687 Eh            4.4428 eV
             Fermi-level           -0.3206293 Eh           -8.7248 eV

     #   Z          covCN         q      C6AA      α(0)
     1   8 O        1.656    -0.433    21.509     6.261
     2   6 C        3.676     0.076    19.526     6.331
     3   6 C        3.756     0.095    19.060     6.225
     4   8 O        1.702    -0.336    19.641     5.984
     5   6 C        3.651     0.246    17.074     5.935
     6   6 C        3.728     0.088    19.217     6.258
     7   6 C        3.731     0.100    19.025     6.226
     8   6 C        3.729     0.096    19.080     6.236
     9   8 O        1.656    -0.444    21.717     6.291
    10   8 O        1.656    -0.443    21.711     6.290
    11   8 O        1.656    -0.443    21.697     6.288
    12   8 O        1.706    -0.295    18.910     5.871
    13   6 C        2.869     0.137    24.999     8.196
    14   6 C        2.916    -0.057    29.427     8.895
    15   6 C        2.922    -0.030    28.745     8.792
    16   6 C        2.917    -0.036    28.901     8.816
    17   6 C        2.925    -0.035    28.870     8.811
    18   6 C        2.966    -0.021    28.521     8.760
    19   6 C        3.679     0.083    19.406     6.310
    20   8 O        1.655    -0.441    21.669     6.284
    21   1 H        0.805     0.317     0.671     1.287
    22   1 H        0.923     0.036     2.500     2.473
    23   1 H        0.924     0.068     2.110     2.272
    24   1 H        0.923     0.038     2.475     2.460
    25   1 H        0.922     0.009     2.911     2.668
    26   1 H        0.923     0.040     2.443     2.445
    27   1 H        0.923     0.033     2.551     2.498
    28   1 H        0.923     0.038     2.473     2.459
    29   1 H        0.805     0.322     0.658     1.274
    30   1 H        0.805     0.317     0.672     1.288
    31   1 H        0.805     0.312     0.687     1.302
    32   1 H        0.926     0.052     2.301     2.372
    33   1 H        0.926     0.046     2.375     2.410
    34   1 H        0.926     0.045     2.387     2.416
    35   1 H        0.926     0.047     2.357     2.401
    36   1 H        0.924     0.054     2.265     2.353
    37   1 H        0.923     0.019     2.746     2.591
    38   1 H        0.805     0.302     0.715     1.329

 Mol. C6AA /au·bohr⁶  :      14036.087355
 Mol. C8AA /au·bohr⁸  :     316479.717662
 Mol. α(0) /au        :        177.357946


Wiberg/Mayer (AO) data.
largest (>0.10) Wiberg bond orders for each atom

 ---------------------------------------------------------------------------
     #   Z sym  total        # sym  WBO       # sym  WBO       # sym  WBO
 ---------------------------------------------------------------------------
     1   8 O    1.963 --     2 C    1.023    21 H    0.871
     2   6 C    3.962 --     1 O    1.023     3 C    0.973    23 H    0.968
                            22 H    0.965
     3   6 C    3.938 --     2 C    0.973     8 C    0.969     4 O    0.964
                            24 H    0.955
     4   8 O    2.078 --     5 C    0.965     3 C    0.964
     5   6 C    3.930 --    12 O    0.990     4 O    0.965     6 C    0.949
                            25 H    0.942
     6   6 C    3.959 --    11 O    1.000     7 C    0.971    26 H    0.956
                             5 C    0.949
     7   6 C    3.963 --    10 O    0.999     6 C    0.971     8 C    0.970
                            27 H    0.955
     8   6 C    3.961 --     9 O    1.000     7 C    0.970     3 C    0.969
                            28 H    0.955
     9   8 O    1.965 --     8 C    1.000    29 H    0.875
    10   8 O    1.958 --     7 C    0.999    30 H    0.881
    11   8 O    1.960 --     6 C    1.000    31 H    0.884
    12   8 O    2.204 --    13 C    0.993     5 C    0.990
    13   6 C    3.915 --    14 C    1.403    18 C    1.344    12 O    0.993
    14   6 C    3.989 --    15 C    1.430    13 C    1.403    32 H    0.964
                            17 C    0.105
    15   6 C    3.991 --    16 C    1.446    14 C    1.430    33 H    0.970
                            18 C    0.109
    16   6 C    3.991 --    15 C    1.446    17 C    1.429    34 H    0.970
    17   6 C    3.990 --    18 C    1.433    16 C    1.429    35 H    0.967
                            14 C    0.105
    18   6 C    3.985 --    17 C    1.433    13 C    1.344    19 C    0.998
                            15 C    0.109
    19   6 C    3.963 --    20 O    1.002    18 C    0.998    36 H    0.971
                            37 H    0.956
    20   8 O    1.959 --    19 C    1.002    38 H    0.884
    21   1 H    0.899 --     1 O    0.871
    22   1 H    0.999 --     2 C    0.965
    23   1 H    0.995 --     2 C    0.968
    24   1 H    0.999 --     3 C    0.955
    25   1 H    1.000 --     5 C    0.942
    26   1 H    0.998 --     6 C    0.956
    27   1 H    0.999 --     7 C    0.955
    28   1 H    0.999 --     8 C    0.955
    29   1 H    0.896 --     9 O    0.875
    30   1 H    0.899 --    10 O    0.881
    31   1 H    0.902 --    11 O    0.884
    32   1 H    0.997 --    14 C    0.964
    33   1 H    0.997 --    15 C    0.970
    34   1 H    0.998 --    16 C    0.970
    35   1 H    0.997 --    17 C    0.967
    36   1 H    0.997 --    19 C    0.971
    37   1 H    1.000 --    19 C    0.956
    38   1 H    0.909 --    20 O    0.884
 ---------------------------------------------------------------------------

Topologies differ in total number of bonds
Writing topology from bond orders to xtbtopo.mol

molecular dipole:
                 x           y           z       tot (Debye)
 q only:        0.094      -0.780       0.166
   full:        0.058      -1.126       0.489       3.125
molecular quadrupole (traceless):
                xx          xy          yy          xz          yz          zz
 q only:        4.048      -4.795      -0.255     -12.175       0.572      -3.792
  q+dip:        0.264      -3.746       2.459     -17.465       3.760      -2.723
   full:        0.711      -3.769       3.324     -17.293       2.415      -4.035

           -------------------------------------------------
          |                Geometry Summary                 |
           -------------------------------------------------

      molecular mass/u    :      286.2783346
   center of mass at/Å    :       -0.0540660       0.0343370       0.0563841
  moments of inertia/u·Å² :        0.9273874E+03   0.2465460E+04   0.3123235E+04
rotational constants/cm⁻¹ :        0.1817755E-01   0.6837519E-02   0.5397490E-02

 * 38 selected distances

     #   Z          #   Z                                           value/Å
     1   8 O        2   6 C                                       1.3959565
     2   6 C        3   6 C                                       1.5354387
     3   6 C        4   8 O                                       1.4119864
     4   8 O        5   6 C                                       1.4043870
     5   6 C        6   6 C                                       1.5390680 (max)
     6   6 C        7   6 C                                       1.5289007
     3   6 C        8   6 C                                       1.5369684
     7   6 C        8   6 C                                       1.5326900
     8   6 C        9   8 O                                       1.4051674
     7   6 C       10   8 O                                       1.4053045
     6   6 C       11   8 O                                       1.4045556
     5   6 C       12   8 O                                       1.3870418
    12   8 O       13   6 C                                       1.3879495
    13   6 C       14   6 C                                       1.3845358
    14   6 C       15   6 C                                       1.3853371
    15   6 C       16   6 C                                       1.3819256
    16   6 C       17   6 C                                       1.3848617
    13   6 C       18   6 C                                       1.4004627
    17   6 C       18   6 C                                       1.3850017
    19   6 C       20   8 O                                       1.4069956
     1   8 O       21   1 H                                       0.9681006
     2   6 C       22   1 H                                       1.0995072
     2   6 C       23   1 H                                       1.0924522
     3   6 C       24   1 H                                       1.1030908
     5   6 C       25   1 H                                       1.1101992
     6   6 C       26   1 H                                       1.1012824
     7   6 C       27   1 H                                       1.1030352
     8   6 C       28   1 H                                       1.1021948
     9   8 O       29   1 H                                       0.9660767
    10   8 O       30   1 H                                       0.9648158 (min)
    11   8 O       31   1 H                                       0.9648638
    14   6 C       32   1 H                                       1.0776182
    15   6 C       33   1 H                                       1.0792555
    16   6 C       34   1 H                                       1.0791521
    17   6 C       35   1 H                                       1.0796753
    19   6 C       36   1 H                                       1.0921064
    19   6 C       37   1 H                                       1.1045375
    20   8 O       38   1 H                                       0.9654860

 * 4 distinct bonds (by element types)

   Z      Z             #   av. dist./Å        max./Å        min./Å
   1 H    6 C          13     1.0941621     1.1101992     1.0776182
   6 C    6 C          11     1.4541082     1.5390680     1.3819256
   1 H    8 O           5     0.9658686     0.9681006     0.9648158
   6 C    8 O           9     1.4010383     1.4119864     1.3870418


optimized geometry written to: xtbopt.xyz


           -------------------------------------------------
          | TOTAL ENERGY              -65.476330419757 Eh   |
          | GRADIENT NORM               0.000483415395 Eh/α |
          | HOMO-LUMO GAP               4.442767653866 eV   |
           -------------------------------------------------

------------------------------------------------------------------------
 * finished run on 2025/05/15 at 16:11:44.731     
------------------------------------------------------------------------
 total:
 * wall-time:     0 d,  0 h,  0 min,  1.529 sec
 *  cpu-time:     0 d,  0 h,  0 min,  0.879 sec
 * ratio c/w:     0.575 speedup
 SCF:
 * wall-time:     0 d,  0 h,  0 min,  0.081 sec
 *  cpu-time:     0 d,  0 h,  0 min,  0.047 sec
 * ratio c/w:     0.587 speedup
 ANC optimizer:
 * wall-time:     0 d,  0 h,  0 min,  1.436 sec
 *  cpu-time:     0 d,  0 h,  0 min,  0.821 sec
 * ratio c/w:     0.571 speedup



----- Single-point -----
      -----------------------------------------------------------      
     |                   =====================                   |     
     |                           x T B                           |     
     |                   =====================                   |     
     |                         S. Grimme                         |     
     |          Mulliken Center for Theoretical Chemistry        |     
     |                    University of Bonn                     |     
      -----------------------------------------------------------      

   * xtb version 6.7.1 (edcfbbe) compiled by 'conda@3ef47c1a292c' on 2024-11-25

   xtb is free software: you can redistribute it and/or modify it under
   the terms of the GNU Lesser General Public License as published by
   the Free Software Foundation, either version 3 of the License, or
   (at your option) any later version.
   
   xtb is distributed in the hope that it will be useful,
   but WITHOUT ANY WARRANTY; without even the implied warranty of
   MERCHANTABILITY or FITNESS FOR A PARTICULAR PURPOSE.  See the
   GNU Lesser General Public License for more details.
   
   Cite this work as:
   * C. Bannwarth, E. Caldeweyher, S. Ehlert, A. Hansen, P. Pracht,
     J. Seibert, S. Spicher, S. Grimme, WIREs Comput. Mol. Sci., 2020, 11,
     e01493. DOI: 10.1002/wcms.1493
   
   for GFN2-xTB:
   * C. Bannwarth, S. Ehlert and S. Grimme., J. Chem. Theory Comput., 2019,
     15, 1652-1671. DOI: 10.1021/acs.jctc.8b01176
   for GFN1-xTB:
   * S. Grimme, C. Bannwarth, P. Shushkov, J. Chem. Theory Comput., 2017,
     13, 1989-2009. DOI: 10.1021/acs.jctc.7b00118
   for GFN0-xTB:
   * P. Pracht, E. Caldeweyher, S. Ehlert, S. Grimme, ChemRxiv, 2019, preprint.
     DOI: 10.26434/chemrxiv.8326202.v1
   for GFN-FF:
   * S. Spicher and S. Grimme, Angew. Chem. Int. Ed., 2020, 59, 15665-15673.
     DOI: 10.1002/anie.202004239
   
   for ALPB and GBSA implicit solvation:
   * S. Ehlert, M. Stahn, S. Spicher, S. Grimme, J. Chem. Theory Comput.,
     2021, 17, 4250-4261. DOI: 10.1021/acs.jctc.1c00471
   
   for ddCOSMO and CPCM-X implicit solvation:
   * M. Stahn, S. Ehlert, S. Grimme, J. Phys. Chem. A,
     2023, XX, XXXX-XXXX. DOI: 10.1021/acs.jpca.3c04382
   
   for DFT-D4:
   * E. Caldeweyher, C. Bannwarth and S. Grimme, J. Chem. Phys., 2017,
     147, 034112. DOI: 10.1063/1.4993215
   * E. Caldeweyher, S. Ehlert, A. Hansen, H. Neugebauer, S. Spicher,
     C. Bannwarth and S. Grimme, J. Chem. Phys., 2019, 150, 154122.
     DOI: 10.1063/1.5090222
   * E. Caldeweyher, J.-M. Mewes, S. Ehlert and S. Grimme, Phys. Chem. Chem. Phys.
     2020, 22, 8499-8512. DOI: 10.1039/D0CP00502A
   
   for sTDA-xTB:
   * S. Grimme and C. Bannwarth, J. Chem. Phys., 2016, 145, 054103.
     DOI: 10.1063/1.4959605
   
   in the mass-spec context:
   * V. Asgeirsson, C. Bauer and S. Grimme, Chem. Sci., 2017, 8, 4879.
     DOI: 10.1039/c7sc00601b
   * J. Koopman and S. Grimme, ACS Omega 2019, 4, 12, 15120-15133.
     DOI: 10.1021/acsomega.9b02011
   
   for metadynamics refer to:
   * S. Grimme, J. Chem. Theory Comput., 2019, 155, 2847-2862
     DOI: 10.1021/acs.jctc.9b00143
   
   for SPH calculations refer to:
   * S. Spicher and S. Grimme, J. Chem. Theory Comput., 2021, 17, 1701-1714
     DOI: 10.1021/acs.jctc.0c01306
   
   for ONIOM refer to:
   * C. Plett, A. Katbashev, S. Ehlert, S. Grimme, M. Bursch,
     Phys. Chem. Chem. Phys., 2023, 25, 17860-17868. DOI: 10.1039/D3CP02178E
   
   for DIPRO refer to:
   * J. Kohn, N. Gildemeister, S. Grimme, D. Fazzi, A. Hansen,
     J. Chem. Phys., 2023, just accepted.
   
   for PTB refer to:
   * S. Grimme, M. Mueller, A. Hansen, J. Chem. Phys., 2023, 158, 124111.
     DOI: 10.1063/5.0137838
   
   with help from (in alphabetical order)
   P. Atkinson, C. Bannwarth, F. Bohle, G. Brandenburg, E. Caldeweyher
   M. Checinski, S. Dohm, S. Ehlert, S. Ehrlich, I. Gerasimov, C. Hölzer
   A. Katbashev, J. Kohn, J. Koopman, C. Lavigne, S. Lehtola, F. März, M. Müller,
   F. Musil, H. Neugebauer, J. Pisarek, C. Plett, P. Pracht, F. Pultar,
   J. Seibert, P. Shushkov, S. Spicher, M. Stahn, M. Steiner, T. Strunk,
   J. Stückrath, T. Rose, and J. Unsleber
   
 * started run on 2025/05/15 at 16:11:44.743     
   ID    Z sym.   atoms
    1    8 O      1, 4, 9-12, 20
    2    6 C      2, 3, 5-8, 13-19
    3    1 H      21-38

           -------------------------------------------------
          |                Calculation Setup                |
           -------------------------------------------------

          program call               : xtb /rds/general/user/hgt20/home/callum/QDESCP/Salicin_rdkit_conf_23/Salicin_rdkit_conf_23.xyz --acc 1 --gfn 2 --chrg 0 --uhf 0 --etemp 300 --input /rds/general/user/hgt20/home/callum/QDESCP/Salicin_rdkit_conf_23/Salicin_rdkit_conf_23_xtb.inp -P 1
          hostname                   : login-c
          coordinate file            : /rds/general/user/hgt20/home/callum/QDESCP/Salicin_rdkit_conf_23/Salicin_rdkit_conf_23.xyz
          omp threads                :                     1


           -------------------------------------------------
          |                 G F N 2 - x T B                 |
           -------------------------------------------------

        Reference                      10.1021/acs.jctc.8b01176
      * Hamiltonian:
        H0-scaling (s, p, d)           1.850000    2.230000    2.230000
        zeta-weighting                 0.500000
      * Dispersion:
        s8                             2.700000
        a1                             0.520000
        a2                             5.000000
        s9                             5.000000
      * Repulsion:
        kExp                           1.500000    1.000000
        rExp                           1.000000
      * Coulomb:
        alpha                          2.000000
        third order                    shell-resolved
        anisotropic                    true
        a3                             3.000000
        a5                             4.000000
        cn-shift                       1.200000
        cn-exp                         4.000000
        max-rad                        5.000000

q/qsh data taken from xtbrestart
CAMM data taken from xtbrestart

          ...................................................
          :                      SETUP                      :
          :.................................................:
          :  # basis functions                  98          :
          :  # atomic orbitals                  98          :
          :  # shells                           58          :
          :  # electrons                       112          :
          :  max. iterations                   250          :
          :  Hamiltonian                  GFN2-xTB          :
          :  restarted?                       true          :
          :  GBSA solvation                  false          :
          :  PC potential                    false          :
          :  electronic temp.          300.0000000     K    :
          :  accuracy                    1.0000000          :
          :  -> integral cutoff          0.2500000E+02      :
          :  -> integral neglect         0.1000000E-07      :
          :  -> SCF convergence          0.1000000E-05 Eh   :
          :  -> wf. convergence          0.1000000E-03 e    :
          :  Broyden damping             0.4000000          :
          :  net charge                          0          :
          :  unpaired electrons                  0          :
          ...................................................

 iter      E             dE          RMSdq      gap      omega  full diag
   1    -66.1241487 -0.661241E+02  0.105E-05    4.44       0.0  T
   2    -66.1241487 -0.122213E-11  0.647E-06    4.44    2508.3  T
   3    -66.1241487 -0.540012E-12  0.372E-06    4.44    4362.9  T

   *** convergence criteria satisfied after 3 iterations ***

         #    Occupation            Energy/Eh            Energy/eV
      -------------------------------------------------------------
         1        2.0000           -0.7504685             -20.4213
       ...           ...                  ...                  ...
        50        2.0000           -0.4371970             -11.8967
        51        2.0000           -0.4348824             -11.8338
        52        2.0000           -0.4253218             -11.5736
        53        2.0000           -0.4178058             -11.3691
        54        2.0000           -0.4160323             -11.3208
        55        2.0000           -0.4099595             -11.1556
        56        2.0000           -0.4022637             -10.9462 (HOMO)
        57                         -0.2389950              -6.5034 (LUMO)
        58                         -0.2325226              -6.3273
        59                         -0.1085060              -2.9526
        60                         -0.0458407              -1.2474
        61                         -0.0303617              -0.8262
       ...                                ...                  ...
        98                          0.6490120              17.6605
      -------------------------------------------------------------
                  HL-Gap            0.1632687 Eh            4.4428 eV
             Fermi-level           -0.3206294 Eh           -8.7248 eV

 SCC (total)                   0 d,  0 h,  0 min,  0.034 sec
 SCC setup                      ...        0 min,  0.000 sec (  0.879%)
 Dispersion                     ...        0 min,  0.000 sec (  1.078%)
 classical contributions        ...        0 min,  0.000 sec (  0.353%)
 integral evaluation            ...        0 min,  0.006 sec ( 18.936%)
 iterations                     ...        0 min,  0.006 sec ( 18.641%)
 molecular gradient             ...        0 min,  0.020 sec ( 59.552%)
 printout                       ...        0 min,  0.000 sec (  0.543%)

         :::::::::::::::::::::::::::::::::::::::::::::::::::::
         ::                     SUMMARY                     ::
         :::::::::::::::::::::::::::::::::::::::::::::::::::::
         :: total energy             -65.476330419779 Eh    ::
         :: gradient norm              0.000483385562 Eh/a0 ::
         :: HOMO-LUMO gap              4.442767655272 eV    ::
         ::.................................................::
         :: SCC energy               -66.123908948172 Eh    ::
         :: -> isotropic ES            0.150391636413 Eh    ::
         :: -> anisotropic ES         -0.007089216260 Eh    ::
         :: -> anisotropic XC         -0.002753660725 Eh    ::
         :: -> dispersion             -0.036602984578 Eh    ::
         :: repulsion energy           0.647578528393 Eh    ::
         :: add. restraining           0.000000000000 Eh    ::
         :: total charge               0.000000000000 e     ::
         :::::::::::::::::::::::::::::::::::::::::::::::::::::

           -------------------------------------------------
          |                Property Printout                |
           -------------------------------------------------

    * Orbital Energies and Occupations

         #    Occupation            Energy/Eh            Energy/eV
      -------------------------------------------------------------
         1        2.0000           -0.7504685             -20.4213
       ...           ...                  ...                  ...
        44        2.0000           -0.4752057             -12.9310
        45        2.0000           -0.4659771             -12.6799
        46        2.0000           -0.4633706             -12.6090
        47        2.0000           -0.4522474             -12.3063
        48        2.0000           -0.4483145             -12.1993
        49        2.0000           -0.4420632             -12.0292
        50        2.0000           -0.4371970             -11.8967
        51        2.0000           -0.4348824             -11.8338
        52        2.0000           -0.4253218             -11.5736
        53        2.0000           -0.4178058             -11.3691
        54        2.0000           -0.4160323             -11.3208
        55        2.0000           -0.4099595             -11.1556
        56        2.0000           -0.4022637             -10.9462 (HOMO)
        57                         -0.2389950              -6.5034 (LUMO)
        58                         -0.2325226              -6.3273
        59                         -0.1085060              -2.9526
        60                         -0.0458407              -1.2474
        61                         -0.0303617              -0.8262
        62                         -0.0011498              -0.0313
        63                          0.0230535               0.6273
        64                          0.0339916               0.9250
        65                          0.0462338               1.2581
        66                          0.0663230               1.8047
        67                          0.0745096               2.0275
       ...                                ...                  ...
        98                          0.6490120              17.6605
      -------------------------------------------------------------
                  HL-Gap            0.1632687 Eh            4.4428 eV
             Fermi-level           -0.3206294 Eh           -8.7248 eV

     #   Z          covCN         q      C6AA      α(0)
     1   8 O        1.656    -0.433    21.509     6.261
     2   6 C        3.676     0.076    19.526     6.331
     3   6 C        3.756     0.095    19.060     6.225
     4   8 O        1.702    -0.336    19.641     5.984
     5   6 C        3.651     0.246    17.074     5.935
     6   6 C        3.728     0.088    19.217     6.258
     7   6 C        3.731     0.100    19.025     6.226
     8   6 C        3.729     0.096    19.080     6.236
     9   8 O        1.656    -0.444    21.717     6.291
    10   8 O        1.656    -0.443    21.711     6.290
    11   8 O        1.656    -0.443    21.697     6.288
    12   8 O        1.706    -0.295    18.910     5.871
    13   6 C        2.869     0.137    25.000     8.196
    14   6 C        2.916    -0.057    29.427     8.895
    15   6 C        2.922    -0.030    28.745     8.792
    16   6 C        2.917    -0.036    28.901     8.816
    17   6 C        2.925    -0.035    28.870     8.811
    18   6 C        2.966    -0.021    28.521     8.760
    19   6 C        3.679     0.083    19.406     6.310
    20   8 O        1.655    -0.441    21.669     6.284
    21   1 H        0.805     0.317     0.671     1.287
    22   1 H        0.923     0.036     2.500     2.473
    23   1 H        0.924     0.068     2.110     2.272
    24   1 H        0.923     0.038     2.475     2.460
    25   1 H        0.922     0.009     2.911     2.668
    26   1 H        0.923     0.040     2.443     2.445
    27   1 H        0.923     0.033     2.551     2.498
    28   1 H        0.923     0.038     2.473     2.459
    29   1 H        0.805     0.322     0.658     1.274
    30   1 H        0.805     0.317     0.672     1.288
    31   1 H        0.805     0.312     0.687     1.302
    32   1 H        0.926     0.052     2.301     2.372
    33   1 H        0.926     0.046     2.375     2.410
    34   1 H        0.926     0.045     2.387     2.416
    35   1 H        0.926     0.047     2.357     2.401
    36   1 H        0.924     0.054     2.265     2.353
    37   1 H        0.923     0.019     2.746     2.591
[...]
   
   Cite this work as:
   * C. Bannwarth, E. Caldeweyher, S. Ehlert, A. Hansen, P. Pracht,
     J. Seibert, S. Spicher, S. Grimme, WIREs Comput. Mol. Sci., 2020, 11,
     e01493. DOI: 10.1002/wcms.1493
   
   for GFN2-xTB:
   * C. Bannwarth, S. Ehlert and S. Grimme., J. Chem. Theory Comput., 2019,
     15, 1652-1671. DOI: 10.1021/acs.jctc.8b01176
   for GFN1-xTB:
   * S. Grimme, C. Bannwarth, P. Shushkov, J. Chem. Theory Comput., 2017,
     13, 1989-2009. DOI: 10.1021/acs.jctc.7b00118
   for GFN0-xTB:
   * P. Pracht, E. Caldeweyher, S. Ehlert, S. Grimme, ChemRxiv, 2019, preprint.
     DOI: 10.26434/chemrxiv.8326202.v1
   for GFN-FF:
   * S. Spicher and S. Grimme, Angew. Chem. Int. Ed., 2020, 59, 15665-15673.
     DOI: 10.1002/anie.202004239
   
   for ALPB and GBSA implicit solvation:
   * S. Ehlert, M. Stahn, S. Spicher, S. Grimme, J. Chem. Theory Comput.,
     2021, 17, 4250-4261. DOI: 10.1021/acs.jctc.1c00471
   
   for ddCOSMO and CPCM-X implicit solvation:
   * M. Stahn, S. Ehlert, S. Grimme, J. Phys. Chem. A,
     2023, XX, XXXX-XXXX. DOI: 10.1021/acs.jpca.3c04382
   
   for DFT-D4:
   * E. Caldeweyher, C. Bannwarth and S. Grimme, J. Chem. Phys., 2017,
     147, 034112. DOI: 10.1063/1.4993215
   * E. Caldeweyher, S. Ehlert, A. Hansen, H. Neugebauer, S. Spicher,
     C. Bannwarth and S. Grimme, J. Chem. Phys., 2019, 150, 154122.
     DOI: 10.1063/1.5090222
   * E. Caldeweyher, J.-M. Mewes, S. Ehlert and S. Grimme, Phys. Chem. Chem. Phys.
     2020, 22, 8499-8512. DOI: 10.1039/D0CP00502A
   
   for sTDA-xTB:
   * S. Grimme and C. Bannwarth, J. Chem. Phys., 2016, 145, 054103.
     DOI: 10.1063/1.4959605
   
   in the mass-spec context:
   * V. Asgeirsson, C. Bauer and S. Grimme, Chem. Sci., 2017, 8, 4879.
     DOI: 10.1039/c7sc00601b
   * J. Koopman and S. Grimme, ACS Omega 2019, 4, 12, 15120-15133.
     DOI: 10.1021/acsomega.9b02011
   
   for metadynamics refer to:
   * S. Grimme, J. Chem. Theory Comput., 2019, 155, 2847-2862
     DOI: 10.1021/acs.jctc.9b00143
   
   for SPH calculations refer to:
   * S. Spicher and S. Grimme, J. Chem. Theory Comput., 2021, 17, 1701-1714
     DOI: 10.1021/acs.jctc.0c01306
   
   for ONIOM refer to:
   * C. Plett, A. Katbashev, S. Ehlert, S. Grimme, M. Bursch,
     Phys. Chem. Chem. Phys., 2023, 25, 17860-17868. DOI: 10.1039/D3CP02178E
   
   for DIPRO refer to:
   * J. Kohn, N. Gildemeister, S. Grimme, D. Fazzi, A. Hansen,
     J. Chem. Phys., 2023, just accepted.
   
   for PTB refer to:
   * S. Grimme, M. Mueller, A. Hansen, J. Chem. Phys., 2023, 158, 124111.
     DOI: 10.1063/5.0137838
   
   with help from (in alphabetical order)
   P. Atkinson, C. Bannwarth, F. Bohle, G. Brandenburg, E. Caldeweyher
   M. Checinski, S. Dohm, S. Ehlert, S. Ehrlich, I. Gerasimov, C. Hölzer
   A. Katbashev, J. Kohn, J. Koopman, C. Lavigne, S. Lehtola, F. März, M. Müller,
   F. Musil, H. Neugebauer, J. Pisarek, C. Plett, P. Pracht, F. Pultar,
   J. Seibert, P. Shushkov, S. Spicher, M. Stahn, M. Steiner, T. Strunk,
   J. Stückrath, T. Rose, and J. Unsleber
   
 * started run on 2025/05/15 at 16:11:46.590     
   ID    Z sym.   atoms
    1    8 O      1, 4, 9-12, 20
    2    6 C      2, 3, 5-8, 13-19
    3    1 H      21-38

           -------------------------------------------------
          |                Calculation Setup                |
           -------------------------------------------------

          program call               : xtb /rds/general/user/hgt20/home/callum/QDESCP/Salicin_rdkit_conf_23/Salicin_rdkit_conf_23.xyz --acc 1 --gfn 2 --chrg 0 --uhf 2 --etemp 300 --input /rds/general/user/hgt20/home/callum/QDESCP/Salicin_rdkit_conf_23/Salicin_rdkit_conf_23_xtb.inp -P 1
          hostname                   : login-c
          coordinate file            : /rds/general/user/hgt20/home/callum/QDESCP/Salicin_rdkit_conf_23/Salicin_rdkit_conf_23.xyz
          omp threads                :                     1


           -------------------------------------------------
          |                 G F N 2 - x T B                 |
           -------------------------------------------------

        Reference                      10.1021/acs.jctc.8b01176
      * Hamiltonian:
        H0-scaling (s, p, d)           1.850000    2.230000    2.230000
        zeta-weighting                 0.500000
      * Dispersion:
        s8                             2.700000
        a1                             0.520000
        a2                             5.000000
        s9                             5.000000
      * Repulsion:
        kExp                           1.500000    1.000000
        rExp                           1.000000
      * Coulomb:
        alpha                          2.000000
        third order                    shell-resolved
        anisotropic                    true
        a3                             3.000000
        a5                             4.000000
        cn-shift                       1.200000
        cn-exp                         4.000000
        max-rad                        5.000000


          ...................................................
          :                      SETUP                      :
          :.................................................:
          :  # basis functions                  98          :
          :  # atomic orbitals                  98          :
          :  # shells                           58          :
          :  # electrons                       112          :
          :  max. iterations                   250          :
          :  Hamiltonian                  GFN2-xTB          :
          :  restarted?                      false          :
          :  GBSA solvation                  false          :
          :  PC potential                    false          :
          :  electronic temp.          300.0000000     K    :
          :  accuracy                    1.0000000          :
          :  -> integral cutoff          0.2500000E+02      :
          :  -> integral neglect         0.1000000E-07      :
          :  -> SCF convergence          0.1000000E-05 Eh   :
          :  -> wf. convergence          0.1000000E-03 e    :
          :  Broyden damping             0.4000000          :
          :  net charge                          0          :
          :  unpaired electrons                  2          :
          ...................................................

 iter      E             dE          RMSdq      gap      omega  full diag
   1    -65.8533285 -0.658533E+02  0.458E+00    0.34       0.0  T
   2    -65.7830317  0.702968E-01  0.373E+00    0.66       1.0  T
   3    -65.8521764 -0.691448E-01  0.256E+00    0.74       1.0  T
   4    -65.9444959 -0.923194E-01  0.642E-01    0.09       1.0  T
   5    -65.9503808 -0.588491E-02  0.462E-01    0.07       1.0  T
   6    -65.9555924 -0.521168E-02  0.277E-01    0.08       1.0  T
   7    -65.9559377 -0.345210E-03  0.157E-01    0.06       1.0  T
   8    -65.9524134  0.352427E-02  0.416E-01    0.13       1.0  T
   9    -65.9561915 -0.377811E-02  0.857E-02    0.07       1.0  T
  10    -65.9563396 -0.148147E-03  0.203E-02    0.07       1.0  T
  11    -65.9563379  0.172795E-05  0.249E-02    0.07       1.0  T
  12    -65.9563499 -0.120285E-04  0.266E-03    0.08       6.1  T
  13    -65.9563500 -0.486936E-07  0.130E-03    0.08      12.5  T
  14    -65.9563500 -0.138437E-07  0.972E-04    0.07      16.7  T
  15    -65.9563500 -0.136643E-07  0.374E-04    0.07      43.4  T

   *** convergence criteria satisfied after 15 iterations ***

         #    Occupation            Energy/Eh            Energy/eV
      -------------------------------------------------------------
         1        2.0000           -0.7600062             -20.6808
       ...           ...                  ...                  ...
        51        2.0000           -0.4335131             -11.7965
        52        2.0000           -0.4282090             -11.6522
        53        2.0000           -0.4184782             -11.3874
        54        2.0000           -0.4138939             -11.2626
        55        1.9560           -0.4060490             -11.0492
        56        1.0440           -0.4001987             -10.8900
        57        0.8099           -0.2297735              -6.2525 (HOMO)
        58        0.1901           -0.2270192              -6.1775 (LUMO)
        59                         -0.1007946              -2.7428
        60                         -0.0503811              -1.3709
        61                         -0.0354327              -0.9642
        62                         -0.0055891              -0.1521
       ...                                ...                  ...
        98                          0.6559593              17.8496
      -------------------------------------------------------------
                  HL-Gap            0.0027543 Eh            0.0749 eV
             Fermi-level           -0.3157600 Eh           -8.5923 eV

 transition dipole moment (au) for excitation:          56          57
     X       Y       Z   
  -1.2005   0.1819  -0.6296  total (au/Debye):    1.368   3.476
 dE (eV)             :    4.638
 oscillator strength :  0.30057E+00

 SCC (total)                   0 d,  0 h,  0 min,  0.100 sec
 SCC setup                      ...        0 min,  0.000 sec (  0.293%)
 Dispersion                     ...        0 min,  0.000 sec (  0.357%)
 classical contributions        ...        0 min,  0.000 sec (  0.119%)
 integral evaluation            ...        0 min,  0.006 sec (  6.419%)
 iterations                     ...        0 min,  0.026 sec ( 26.166%)
 molecular gradient             ...        0 min,  0.061 sec ( 60.834%)
 printout                       ...        0 min,  0.006 sec (  5.806%)

         :::::::::::::::::::::::::::::::::::::::::::::::::::::
         ::                     SUMMARY                     ::
         :::::::::::::::::::::::::::::::::::::::::::::::::::::
         :: total energy             -65.308531726038 Eh    ::
         :: gradient norm              0.143502135687 Eh/a0 ::
         :: HOMO-LUMO gap              0.074948505714 eV    ::
         ::.................................................::
         :: SCC energy               -65.956110254432 Eh    ::
         :: -> isotropic ES            0.147311497254 Eh    ::
         :: -> anisotropic ES         -0.005025357814 Eh    ::
         :: -> anisotropic XC         -0.003180556002 Eh    ::
         :: -> dispersion             -0.036568138172 Eh    ::
         :: repulsion energy           0.647578528393 Eh    ::
         :: add. restraining           0.000000000000 Eh    ::
         :: total charge               0.000000000000 e     ::
         :::::::::::::::::::::::::::::::::::::::::::::::::::::

           -------------------------------------------------
          |                Property Printout                |
           -------------------------------------------------

    * Orbital Energies and Occupations

         #    Occupation            Energy/Eh            Energy/eV
      -------------------------------------------------------------
         1        2.0000           -0.7600062             -20.6808
       ...           ...                  ...                  ...
        45        2.0000           -0.4667356             -12.7005
        46        2.0000           -0.4625014             -12.5853
        47        2.0000           -0.4531803             -12.3317
        48        2.0000           -0.4463880             -12.1468
        49        2.0000           -0.4458273             -12.1316
        50        2.0000           -0.4386180             -11.9354
        51        2.0000           -0.4335131             -11.7965
        52        2.0000           -0.4282090             -11.6522
        53        2.0000           -0.4184782             -11.3874
        54        2.0000           -0.4138939             -11.2626
        55        1.9560           -0.4060490             -11.0492
        56        1.0440           -0.4001987             -10.8900
        57        0.8099           -0.2297735              -6.2525 (HOMO)
        58        0.1901           -0.2270192              -6.1775 (LUMO)
        59                         -0.1007946              -2.7428
        60                         -0.0503811              -1.3709
        61                         -0.0354327              -0.9642
        62                         -0.0055891              -0.1521
        63                          0.0189045               0.5144
        64                          0.0302101               0.8221
        65                          0.0408995               1.1129
        66                          0.0623370               1.6963
        67                          0.0727712               1.9802
        68                          0.0762053               2.0737
       ...                                ...                  ...
        98                          0.6559593              17.8496
      -------------------------------------------------------------
                  HL-Gap            0.0027543 Eh            0.0749 eV
             Fermi-level           -0.3157600 Eh           -8.5923 eV

     #   Z          covCN         q      C6AA      α(0)
     1   8 O        1.656    -0.431    21.459     6.253
     2   6 C        3.676     0.076    19.533     6.333
     3   6 C        3.756     0.095    19.067     6.226
     4   8 O        1.702    -0.331    19.545     5.969
     5   6 C        3.651     0.243    17.114     5.941
     6   6 C        3.728     0.088    19.222     6.259
     7   6 C        3.731     0.099    19.030     6.227
     8   6 C        3.729     0.096    19.086     6.237
     9   8 O        1.656    -0.443    21.699     6.288
    10   8 O        1.656    -0.442    21.690     6.287
    11   8 O        1.656    -0.442    21.672     6.284
    12   8 O        1.706    -0.265    18.398     5.791
    13   6 C        2.869     0.137    25.008     8.197
    14   6 C        2.916    -0.069    29.710     8.938
    15   6 C        2.922    -0.049    29.221     8.865
    16   6 C        2.917    -0.021    28.532     8.759
    17   6 C        2.925    -0.051    29.257     8.870
    18   6 C        2.966    -0.033    28.812     8.804
    19   6 C        3.679     0.081    19.437     6.315
    20   8 O        1.655    -0.436    21.565     6.269
    21   1 H        0.805     0.318     0.670     1.285
    22   1 H        0.923     0.038     2.482     2.464
    23   1 H        0.924     0.070     2.081     2.256
    24   1 H        0.923     0.041     2.442     2.444
    25   1 H        0.922     0.018     2.762     2.599
    26   1 H        0.923     0.042     2.429     2.437
    27   1 H        0.923     0.034     2.534     2.489
    28   1 H        0.923     0.039     2.461     2.453
    29   1 H        0.805     0.323     0.656     1.273
    30   1 H        0.805     0.317     0.671     1.286
    31   1 H        0.805     0.311     0.688     1.303
    32   1 H        0.926     0.041     2.431     2.438
    33   1 H        0.926     0.035     2.522     2.483
    34   1 H        0.926     0.042     2.426     2.436
    35   1 H        0.926     0.038     2.474     2.460
    36   1 H        0.924     0.059     2.213     2.326
    37   1 H        0.923     0.031     2.567     2.506
    38   1 H        0.805     0.302     0.715     1.328

 Mol. C6AA /au·bohr⁶  :      14035.697666
 Mol. C8AA /au·bohr⁸  :     316604.870056
 Mol. α(0) /au        :        177.380862


Wiberg/Mayer (AO) data.
largest (>0.10) Wiberg bond orders for each atom

 ---------------------------------------------------------------------------
     #   Z sym  total        # sym  WBO       # sym  WBO       # sym  WBO
 ---------------------------------------------------------------------------
     1   8 O    1.963 --     2 C    1.024    21 H    0.871
     2   6 C    3.960 --     1 O    1.024     3 C    0.971    23 H    0.968
                            22 H    0.965
     3   6 C    3.935 --     2 C    0.971     8 C    0.969     4 O    0.963
                            24 H    0.955
     4   8 O    2.079 --     5 C    0.966     3 C    0.963
     5   6 C    3.926 --    12 O    0.987     4 O    0.966     6 C    0.948
                            25 H    0.939
     6   6 C    3.958 --    11 O    1.001     7 C    0.971    26 H    0.956
                             5 C    0.948
     7   6 C    3.963 --    10 O    1.000     6 C    0.971     8 C    0.970
                            27 H    0.955
     8   6 C    3.961 --     9 O    1.001     7 C    0.970     3 C    0.969
                            28 H    0.955
     9   8 O    1.965 --     8 C    1.001    29 H    0.874
    10   8 O    1.958 --     7 C    1.000    30 H    0.881
    11   8 O    1.961 --     6 C    1.001    31 H    0.884
    12   8 O    2.261 --    13 C    1.057     5 C    0.987
    13   6 C    3.644 --    14 C    1.343    12 O    1.057    18 C    1.032
                            15 C    0.124
    14   6 C    3.854 --    15 C    1.395    13 C    1.343    32 H    0.965
    15   6 C    3.698 --    14 C    1.395    16 C    1.103    33 H    0.971
                            13 C    0.124
    16   6 C    3.722 --    17 C    1.424    15 C    1.103    34 H    0.970
                            18 C    0.140
    17   6 C    3.850 --    16 C    1.424    18 C    1.332    35 H    0.968
    18   6 C    3.658 --    17 C    1.332    13 C    1.032    19 C    1.020
                            16 C    0.140
    19   6 C    3.958 --    18 C    1.020    20 O    0.993    36 H    0.967
                            37 H    0.928
    20   8 O    1.968 --    19 C    0.993    38 H    0.883
    21   1 H    0.899 --     1 O    0.871
    22   1 H    0.998 --     2 C    0.965
    23   1 H    0.995 --     2 C    0.968
    24   1 H    0.998 --     3 C    0.955
    25   1 H    0.999 --     5 C    0.939
    26   1 H    0.998 --     6 C    0.956
    27   1 H    0.999 --     7 C    0.955
    28   1 H    0.998 --     8 C    0.955
    29   1 H    0.896 --     9 O    0.874
    30   1 H    0.899 --    10 O    0.881
    31   1 H    0.903 --    11 O    0.884
    32   1 H    0.998 --    14 C    0.965
    33   1 H    0.998 --    15 C    0.971
    34   1 H    0.998 --    16 C    0.970
    35   1 H    0.998 --    17 C    0.968
    36   1 H    0.996 --    19 C    0.967
    37   1 H    0.989 --    19 C    0.928
    38   1 H    0.909 --    20 O    0.883
 ---------------------------------------------------------------------------

Topologies differ in total number of bonds
Writing topology from bond orders to xtbtopo.mol

molecular dipole:
                 x           y           z       tot (Debye)
 q only:       -0.229      -0.701       0.472
   full:       -0.260      -1.046       0.842       3.476
molecular quadrupole (traceless):
                xx          xy          yy          xz          yz          zz
 q only:        2.828      -4.285       0.778      -9.820      -0.203      -3.606
  q+dip:       -1.841      -3.022       3.945     -15.403       3.013      -2.104
   full:       -0.970      -3.146       4.572     -14.970       1.604      -3.602


           -------------------------------------------------
          | TOTAL ENERGY              -65.308531726038 Eh   |
          | GRADIENT NORM               0.143502135687 Eh/α |
          | HOMO-LUMO GAP               0.074948505714 eV   |
           -------------------------------------------------

------------------------------------------------------------------------
 * finished run on 2025/05/15 at 16:11:46.702     
------------------------------------------------------------------------
 total:
 * wall-time:     0 d,  0 h,  0 min,  0.112 sec
 *  cpu-time:     0 d,  0 h,  0 min,  0.068 sec
 * ratio c/w:     0.611 speedup
 SCF:
 * wall-time:     0 d,  0 h,  0 min,  0.100 sec
 *  cpu-time:     0 d,  0 h,  0 min,  0.058 sec
 * ratio c/w:     0.577 speedup


