29
 energy: -55.283127857914 gnorm: 0.000596754966 xtb: 6.7.1 (edcfbbe)
O           -0.07376095005570        2.41331823511218       -0.82774746956009
C           -1.03907359912931        1.75964188399542       -0.05983704254670
C           -1.75957893839749        0.66283239376033       -0.87292880163758
C           -2.50525425168877       -0.32847096415316        0.02698359264512
C           -1.40344991026923       -1.35987146628570        0.36569195256994
C           -0.44107032766857       -1.24177746609435       -0.85952983244412
N            0.93585932655155       -1.09299815856850       -0.44425313609338
C            1.90051715993266       -2.02122508250942       -0.26269839448666
N            3.00083458849698       -1.45375308486620        0.15082601097608
C            2.68787609857193       -0.14013957918216        0.21673447616529
C            3.61658183117462        0.94459925883086        0.63035915165448
N            3.04264224204742        2.16879640824395        0.57509268715648
O            4.75753986896243        0.75724076996539        0.98340344736028
N            1.43783966924070        0.10504048625088       -0.13629773917047
O           -0.83826511479924       -0.13608233318579       -1.60933854746640
O           -1.87942776831122       -2.64364086423838        0.56558838455754
O           -3.51981434315292       -1.03044746580495       -0.64981171180104
H            0.49383892818386        1.71844695930186       -1.20037375636214
H           -1.76184288072450        2.51446583035611        0.25726554337138
H           -0.57868355761128        1.30829664290571        0.83107365586290
H           -2.40587563005601        1.12558774829588       -1.62547488264966
H           -2.90068708277198        0.15609095971210        0.92827696331125
H           -0.86670369858913       -1.06712299119950        1.27411746996008
H           -0.49966085098213       -2.14650946326950       -1.47944836205400
H            1.75682953491216       -3.06726558982038       -0.43503890292497
H            2.09737984835523        2.30141247480837        0.25592739533437
H            3.60120973246068        2.97012253562571        0.81675330689231
H           -2.65725857367486       -2.76135141983690       -0.00077935650022
H           -4.19864135100723       -0.41533665814512       -0.94413610212109
