----- Optimization -----
      -----------------------------------------------------------      
     |                   =====================                   |     
     |                           x T B                           |     
     |                   =====================                   |     
     |                         S. Grimme                         |     
     |          Mulliken Center for Theoretical Chemistry        |     
     |                    University of Bonn                     |     
      -----------------------------------------------------------      

   * xtb version 6.7.1 (edcfbbe) compiled by 'conda@3ef47c1a292c' on 2024-11-25

   xtb is free software: you can redistribute it and/or modify it under
   the terms of the GNU Lesser General Public License as published by
   the Free Software Foundation, either version 3 of the License, or
   (at your option) any later version.
   
   xtb is distributed in the hope that it will be useful,
   but WITHOUT ANY WARRANTY; without even the implied warranty of
   MERCHANTABILITY or FITNESS FOR A PARTICULAR PURPOSE.  See the
   GNU Lesser General Public License for more details.
   
   Cite this work as:
   * C. Bannwarth, E. Caldeweyher, S. Ehlert, A. Hansen, P. Pracht,
     J. Seibert, S. Spicher, S. Grimme, WIREs Comput. Mol. Sci., 2020, 11,
     e01493. DOI: 10.1002/wcms.1493
   
   for GFN2-xTB:
   * C. Bannwarth, S. Ehlert and S. Grimme., J. Chem. Theory Comput., 2019,
     15, 1652-1671. DOI: 10.1021/acs.jctc.8b01176
   for GFN1-xTB:
   * S. Grimme, C. Bannwarth, P. Shushkov, J. Chem. Theory Comput., 2017,
     13, 1989-2009. DOI: 10.1021/acs.jctc.7b00118
   for GFN0-xTB:
   * P. Pracht, E. Caldeweyher, S. Ehlert, S. Grimme, ChemRxiv, 2019, preprint.
     DOI: 10.26434/chemrxiv.8326202.v1
   for GFN-FF:
   * S. Spicher and S. Grimme, Angew. Chem. Int. Ed., 2020, 59, 15665-15673.
     DOI: 10.1002/anie.202004239
   
   for ALPB and GBSA implicit solvation:
   * S. Ehlert, M. Stahn, S. Spicher, S. Grimme, J. Chem. Theory Comput.,
     2021, 17, 4250-4261. DOI: 10.1021/acs.jctc.1c00471
   
   for ddCOSMO and CPCM-X implicit solvation:
   * M. Stahn, S. Ehlert, S. Grimme, J. Phys. Chem. A,
     2023, XX, XXXX-XXXX. DOI: 10.1021/acs.jpca.3c04382
   
   for DFT-D4:
   * E. Caldeweyher, C. Bannwarth and S. Grimme, J. Chem. Phys., 2017,
     147, 034112. DOI: 10.1063/1.4993215
   * E. Caldeweyher, S. Ehlert, A. Hansen, H. Neugebauer, S. Spicher,
     C. Bannwarth and S. Grimme, J. Chem. Phys., 2019, 150, 154122.
     DOI: 10.1063/1.5090222
   * E. Caldeweyher, J.-M. Mewes, S. Ehlert and S. Grimme, Phys. Chem. Chem. Phys.
     2020, 22, 8499-8512. DOI: 10.1039/D0CP00502A
   
   for sTDA-xTB:
   * S. Grimme and C. Bannwarth, J. Chem. Phys., 2016, 145, 054103.
     DOI: 10.1063/1.4959605
   
   in the mass-spec context:
   * V. Asgeirsson, C. Bauer and S. Grimme, Chem. Sci., 2017, 8, 4879.
     DOI: 10.1039/c7sc00601b
   * J. Koopman and S. Grimme, ACS Omega 2019, 4, 12, 15120-15133.
     DOI: 10.1021/acsomega.9b02011
   
   for metadynamics refer to:
   * S. Grimme, J. Chem. Theory Comput., 2019, 155, 2847-2862
     DOI: 10.1021/acs.jctc.9b00143
   
   for SPH calculations refer to:
   * S. Spicher and S. Grimme, J. Chem. Theory Comput., 2021, 17, 1701-1714
     DOI: 10.1021/acs.jctc.0c01306
   
   for ONIOM refer to:
   * C. Plett, A. Katbashev, S. Ehlert, S. Grimme, M. Bursch,
     Phys. Chem. Chem. Phys., 2023, 25, 17860-17868. DOI: 10.1039/D3CP02178E
   
   for DIPRO refer to:
   * J. Kohn, N. Gildemeister, S. Grimme, D. Fazzi, A. Hansen,
     J. Chem. Phys., 2023, just accepted.
   
   for PTB refer to:
   * S. Grimme, M. Mueller, A. Hansen, J. Chem. Phys., 2023, 158, 124111.
     DOI: 10.1063/5.0137838
   
   with help from (in alphabetical order)
   P. Atkinson, C. Bannwarth, F. Bohle, G. Brandenburg, E. Caldeweyher
   M. Checinski, S. Dohm, S. Ehlert, S. Ehrlich, I. Gerasimov, C. Hölzer
   A. Katbashev, J. Kohn, J. Koopman, C. Lavigne, S. Lehtola, F. März, M. Müller,
   F. Musil, H. Neugebauer, J. Pisarek, C. Plett, P. Pracht, F. Pultar,
   J. Seibert, P. Shushkov, S. Spicher, M. Stahn, M. Steiner, T. Strunk,
   J. Stückrath, T. Rose, and J. Unsleber
   
 * started run on 2025/05/15 at 16:17:33.686     
   ID    Z sym.   atoms
    1    8 O      1, 13, 15-17
    2    6 C      2-6, 8, 10, 11
    3    7 N      7, 9, 12, 14
    4    1 H      18-29

           -------------------------------------------------
          |                Calculation Setup                |
           -------------------------------------------------

          program call               : xtb /rds/general/user/hgt20/home/callum/QDESCP/Ribavirin_rdkit_conf_21/Ribavirin_rdkit_conf_21.xyz --opt normal --acc 1 --gfn 2 --chrg 0 --uhf 0 -P 1
          hostname                   : login-c
          coordinate file            : /rds/general/user/hgt20/home/callum/QDESCP/Ribavirin_rdkit_conf_21/Ribavirin_rdkit_conf_21.xyz
          omp threads                :                     1


           -------------------------------------------------
          |                 G F N 2 - x T B                 |
           -------------------------------------------------

        Reference                      10.1021/acs.jctc.8b01176
      * Hamiltonian:
        H0-scaling (s, p, d)           1.850000    2.230000    2.230000
        zeta-weighting                 0.500000
      * Dispersion:
        s8                             2.700000
        a1                             0.520000
        a2                             5.000000
        s9                             5.000000
      * Repulsion:
        kExp                           1.500000    1.000000
        rExp                           1.000000
      * Coulomb:
        alpha                          2.000000
        third order                    shell-resolved
        anisotropic                    true
        a3                             3.000000
        a5                             4.000000
        cn-shift                       1.200000
        cn-exp                         4.000000
        max-rad                        5.000000


          ...................................................
          :                      SETUP                      :
          :.................................................:
          :  # basis functions                  80          :
          :  # atomic orbitals                  80          :
          :  # shells                           46          :
          :  # electrons                        94          :
          :  max. iterations                   250          :
          :  Hamiltonian                  GFN2-xTB          :
          :  restarted?                      false          :
          :  GBSA solvation                  false          :
          :  PC potential                    false          :
          :  electronic temp.          300.0000000     K    :
          :  accuracy                    1.0000000          :
          :  -> integral cutoff          0.2500000E+02      :
          :  -> integral neglect         0.1000000E-07      :
          :  -> SCF convergence          0.1000000E-05 Eh   :
          :  -> wf. convergence          0.1000000E-03 e    :
          :  Broyden damping             0.4000000          :
          :  net charge                          0          :
          :  unpaired electrons                  0          :
          ...................................................

 iter      E             dE          RMSdq      gap      omega  full diag
   1    -55.5431025 -0.555431E+02  0.473E+00    3.44       0.0  T
   2    -55.6903480 -0.147245E+00  0.296E+00    3.08       1.0  T
   3    -55.7251116 -0.347637E-01  0.158E+00    3.39       1.0  T
   4    -55.7336488 -0.853716E-02  0.536E-01    3.22       1.0  T
   5    -55.7371359 -0.348714E-02  0.113E-01    3.20       1.0  T
   6    -55.7371763 -0.403759E-04  0.494E-02    3.25       1.0  T
   7    -55.7371870 -0.107582E-04  0.218E-02    3.24       1.0  T
   8    -55.7371886 -0.160190E-05  0.706E-03    3.24       2.6  T
   9    -55.7371889 -0.291360E-06  0.274E-03    3.24       6.8  T
  10    -55.7371890 -0.436204E-07  0.136E-03    3.24      13.6  T
  11    -55.7371890 -0.161725E-07  0.451E-04    3.24      41.1  T
  12    -55.7371890 -0.117910E-08  0.173E-04    3.24     107.6  T

   *** convergence criteria satisfied after 12 iterations ***

         #    Occupation            Energy/Eh            Energy/eV
      -------------------------------------------------------------
         1        2.0000           -0.7499881             -20.4082
       ...           ...                  ...                  ...
        41        2.0000           -0.4509530             -12.2711
        42        2.0000           -0.4469087             -12.1610
        43        2.0000           -0.4336230             -11.7995
        44        2.0000           -0.4298387             -11.6965
        45        2.0000           -0.4173595             -11.3569
        46        2.0000           -0.4060351             -11.0488
        47        2.0000           -0.3977780             -10.8241 (HOMO)
        48                         -0.2786692              -7.5830 (LUMO)
        49                         -0.2386212              -6.4932
        50                         -0.1535934              -4.1795
        51                         -0.0803374              -2.1861
        52                         -0.0619189              -1.6849
       ...                                ...                  ...
        80                          0.6227042              16.9446
      -------------------------------------------------------------
                  HL-Gap            0.1191089 Eh            3.2411 eV
             Fermi-level           -0.3382236 Eh           -9.2035 eV

 SCC (total)                   0 d,  0 h,  0 min,  0.032 sec
 SCC setup                      ...        0 min,  0.000 sec (  0.831%)
 Dispersion                     ...        0 min,  0.000 sec (  0.718%)
 classical contributions        ...        0 min,  0.000 sec (  0.235%)
 integral evaluation            ...        0 min,  0.005 sec ( 14.377%)
 iterations                     ...        0 min,  0.014 sec ( 44.053%)
 molecular gradient             ...        0 min,  0.013 sec ( 39.425%)
 printout                       ...        0 min,  0.000 sec (  0.340%)

         :::::::::::::::::::::::::::::::::::::::::::::::::::::
         ::                     SUMMARY                     ::
         :::::::::::::::::::::::::::::::::::::::::::::::::::::
         :: total energy             -55.269851928144 Eh    ::
         :: gradient norm              0.101248016287 Eh/a0 ::
         :: HOMO-LUMO gap              3.241117417908 eV    ::
         ::.................................................::
         :: SCC energy               -55.736901235595 Eh    ::
         :: -> isotropic ES            0.145611901805 Eh    ::
         :: -> anisotropic ES          0.003628130049 Eh    ::
         :: -> anisotropic XC          0.011311827443 Eh    ::
         :: -> dispersion             -0.027226452533 Eh    ::
         :: repulsion energy           0.467049307452 Eh    ::
         :: add. restraining           0.000000000000 Eh    ::
         :: total charge               0.000000000000 e     ::
         :::::::::::::::::::::::::::::::::::::::::::::::::::::

      ----------------------------------------------------------- 
     |                   =====================                   |
     |                        A N C O P T                        |
     |                   =====================                   |
     |               Approximate Normal Coordinate               |
     |                Rational Function Optimizer                |
      ----------------------------------------------------------- 
      ----------------------------------------------------------- 
     |                   =====================                   |
     |                        A N C O P T                        |
     |                   =====================                   |
     |               Approximate Normal Coordinate               |
     |                Rational Function Optimizer                |
      ----------------------------------------------------------- 

          ...................................................
          :                      SETUP                      :
          :.................................................:
          :   optimization level            normal          :
          :   max. optcycles                   200          :
          :   ANC micro-cycles                  20          :
          :   degrees of freedom                81          :
          :.................................................:
          :   RF solver                   davidson          :
          :   write xtbopt.log                true          :
          :   linear?                        false          :
          :   energy convergence         0.5000000E-05 Eh   :
          :   grad. convergence          0.1000000E-02 Eh/α :
          :   maxmium RF displ.          1.0000000          :
          :   Hlow (freq-cutoff)         0.1000000E-01      :
          :   Hmax (freq-cutoff)         5.0000000          :
          :   S6 in model hess.         20.0000000          :
          ...................................................

generating ANC from exact Hessian ...
Using Lindh-Hessian (1995)
 Shifting diagonal of input Hessian by    9.2839573544861321E-003
 Lowest  eigenvalues of input Hessian
    0.000000    0.000000    0.000000    0.000000    0.000000    0.000000
    0.010000    0.010405    0.011906    0.013561    0.014137    0.014932
    0.016589    0.017890    0.019323    0.023494    0.024287    0.028725
 Highest eigenvalues
    1.712660    1.769019    1.945009    2.009782    2.112039    2.322733


........................................................................
.............................. CYCLE    1 ..............................
........................................................................

 iter      E             dE          RMSdq      gap      omega  full diag
   1    -55.7371890 -0.557372E+02  0.686E-05    3.24       0.0  T
   2    -55.7371890 -0.202647E-10  0.386E-05    3.24     480.5  T
   3    -55.7371890 -0.249401E-11  0.240E-05    3.24     773.9  T
     SCC iter.                  ...        0 min,  0.004 sec
     gradient                   ...        0 min,  0.044 sec
 * total energy  :   -55.2698519 Eh     change       -0.2205098E-09 Eh
   gradient norm :     0.1012480 Eh/α   predicted     0.0000000E+00 (-100.00%)
   displ. norm   :     0.2060169 α      lambda       -0.1190728E-01
   maximum displ.:     0.0730502 α      in ANC's #17, #55, #10, ...

........................................................................
.............................. CYCLE    2 ..............................
........................................................................

 iter      E             dE          RMSdq      gap      omega  full diag
   1    -55.7702679 -0.557703E+02  0.221E-01    3.40       0.0  T
   2    -55.7703420 -0.741114E-04  0.128E-01    3.41       1.0  T
   3    -55.7703318  0.101791E-04  0.419E-02    3.42       1.0  T
   4    -55.7703521 -0.203398E-04  0.112E-02    3.42       1.7  T
   5    -55.7703540 -0.184411E-05  0.425E-03    3.42       4.4  T
   6    -55.7703541 -0.103148E-06  0.182E-03    3.42      10.2  T
   7    -55.7703541 -0.181129E-07  0.664E-04    3.42      28.0  T
   8    -55.7703541 -0.254381E-08  0.282E-04    3.42      66.0  T
     SCC iter.                  ...        0 min,  0.009 sec
     gradient                   ...        0 min,  0.013 sec
 * total energy  :   -55.2779820 Eh     change       -0.8130055E-02 Eh
   gradient norm :     0.0460187 Eh/α   predicted    -0.6207127E-02 ( -23.65%)
   displ. norm   :     0.1849363 α      lambda       -0.3647566E-02
   maximum displ.:     0.0869766 α      in ANC's #2, #16, #10, ...

........................................................................
.............................. CYCLE    3 ..............................
........................................................................

 iter      E             dE          RMSdq      gap      omega  full diag
   1    -55.7858992 -0.557859E+02  0.133E-01    3.51       0.0  T
   2    -55.7859264 -0.272239E-04  0.794E-02    3.51       1.0  T
   3    -55.7859217  0.471690E-05  0.244E-02    3.52       1.0  T
   4    -55.7859303 -0.864069E-05  0.643E-03    3.51       2.9  T
   5    -55.7859309 -0.558253E-06  0.226E-03    3.51       8.2  T
   6    -55.7859309 -0.536017E-07  0.961E-04    3.51      19.3  T
   7    -55.7859309 -0.227733E-08  0.367E-04    3.51      50.7  T
     SCC iter.                  ...        0 min,  0.008 sec
     gradient                   ...        0 min,  0.055 sec
 * total energy  :   -55.2800293 Eh     change       -0.2047271E-02 Eh
   gradient norm :     0.0130345 Eh/α   predicted    -0.1886918E-02 (  -7.83%)
   displ. norm   :     0.1354071 α      lambda       -0.4732438E-03
   maximum displ.:     0.1002780 α      in ANC's #2, #10, #12, ...

........................................................................
.............................. CYCLE    4 ..............................
........................................................................

 iter      E             dE          RMSdq      gap      omega  full diag
   1    -55.7847311 -0.557847E+02  0.475E-02    3.51       0.0  T
   2    -55.7847340 -0.290155E-05  0.282E-02    3.51       1.0  T
   3    -55.7847338  0.227863E-06  0.797E-03    3.51       2.3  T
   4    -55.7847344 -0.613073E-06  0.212E-03    3.51       8.8  T
   5    -55.7847345 -0.440959E-07  0.857E-04    3.51      21.7  T
   6    -55.7847345 -0.667019E-08  0.373E-04    3.51      49.8  T
     SCC iter.                  ...        0 min,  0.007 sec
     gradient                   ...        0 min,  0.013 sec
 * total energy  :   -55.2803786 Eh     change       -0.3493491E-03 Eh
   gradient norm :     0.0063778 Eh/α   predicted    -0.2409928E-03 ( -31.02%)
   displ. norm   :     0.2079742 α      lambda       -0.3734772E-03
   maximum displ.:     0.1678981 α      in ANC's #2, #10, #1, ...

........................................................................
.............................. CYCLE    5 ..............................
........................................................................

 iter      E             dE          RMSdq      gap      omega  full diag
   1    -55.7819768 -0.557820E+02  0.569E-02    3.50       0.0  T
   2    -55.7819802 -0.341322E-05  0.340E-02    3.51       1.0  T
   3    -55.7819801  0.558440E-07  0.748E-03    3.50       2.5  T
   4    -55.7819807 -0.565131E-06  0.196E-03    3.51       9.5  T
   5    -55.7819807 -0.178938E-07  0.863E-04    3.50      21.5  T
   6    -55.7819807 -0.475194E-08  0.409E-04    3.50      45.4  T
     SCC iter.                  ...        0 min,  0.007 sec
     gradient                   ...        0 min,  0.013 sec
 * total energy  :   -55.2806325 Eh     change       -0.2538595E-03 Eh
   gradient norm :     0.0057282 Eh/α   predicted    -0.1948188E-03 ( -23.26%)
   displ. norm   :     0.1737204 α      lambda       -0.1810977E-03
   maximum displ.:     0.1483807 α      in ANC's #2, #1, #4, ...

........................................................................
.............................. CYCLE    6 ..............................
........................................................................

 iter      E             dE          RMSdq      gap      omega  full diag
   1    -55.7811030 -0.557811E+02  0.414E-02    3.50       0.0  T
   2    -55.7811040 -0.106184E-05  0.247E-02    3.50       1.0  T
   3    -55.7811036  0.426797E-06  0.595E-03    3.50       3.1  T
   4    -55.7811043 -0.697213E-06  0.166E-03    3.50      11.2  T
   5    -55.7811043 -0.219186E-07  0.805E-04    3.50      23.1  T
   6    -55.7811043 -0.183253E-08  0.254E-04    3.50      73.0  T
     SCC iter.                  ...        0 min,  0.007 sec
     gradient                   ...        0 min,  0.040 sec
 * total energy  :   -55.2807861 Eh     change       -0.1536815E-03 Eh
   gradient norm :     0.0062409 Eh/α   predicted    -0.9328215E-04 ( -39.30%)
   displ. norm   :     0.1831130 α      lambda       -0.1940318E-03
   maximum displ.:     0.1533367 α      in ANC's #2, #1, #4, ...

........................................................................
.............................. CYCLE    7 ..............................
........................................................................

 iter      E             dE          RMSdq      gap      omega  full diag
   1    -55.7816436 -0.557816E+02  0.454E-02    3.49       0.0  T
   2    -55.7816446 -0.102215E-05  0.270E-02    3.50       1.0  T
   3    -55.7816436  0.981231E-06  0.820E-03    3.49       2.3  T
   4    -55.7816450 -0.141447E-05  0.170E-03    3.50      10.9  T
   5    -55.7816451 -0.102365E-07  0.835E-04    3.50      22.2  T
   6    -55.7816451 -0.152356E-08  0.210E-04    3.50      88.4  T
     SCC iter.                  ...        0 min,  0.007 sec
     gradient                   ...        0 min,  0.013 sec
 * total energy  :   -55.2809600 Eh     change       -0.1738741E-03 Eh
   gradient norm :     0.0047736 Eh/α   predicted    -0.1002700E-03 ( -42.33%)
   displ. norm   :     0.2352914 α      lambda       -0.2313276E-03
   maximum displ.:     0.1935215 α      in ANC's #2, #1, #4, ...

........................................................................
.............................. CYCLE    8 ..............................
........................................................................

 iter      E             dE          RMSdq      gap      omega  full diag
   1    -55.7828831 -0.557829E+02  0.617E-02    3.49       0.0  T
   2    -55.7828847 -0.155278E-05  0.365E-02    3.50       1.0  T
   3    -55.7828832  0.148491E-05  0.101E-02    3.49       1.8  T
   4    -55.7828854 -0.216436E-05  0.218E-03    3.49       8.5  T
   5    -55.7828854 -0.173820E-07  0.106E-03    3.49      17.5  T
   6    -55.7828854 -0.226553E-08  0.241E-04    3.49      77.2  T
   7    -55.7828854 -0.364579E-09  0.129E-04    3.49     143.7  T
     SCC iter.                  ...        0 min,  0.008 sec
     gradient                   ...        0 min,  0.013 sec
 * total energy  :   -55.2811645 Eh     change       -0.2045121E-03 Eh
   gradient norm :     0.0037916 Eh/α   predicted    -0.1220696E-03 ( -40.31%)
   displ. norm   :     0.2760257 α      lambda       -0.2331726E-03
   maximum displ.:     0.2240472 α      in ANC's #2, #1, #4, ...

........................................................................
.............................. CYCLE    9 ..............................
........................................................................

 iter      E             dE          RMSdq      gap      omega  full diag
   1    -55.7837674 -0.557838E+02  0.733E-02    3.49       0.0  T
   2    -55.7837690 -0.168709E-05  0.434E-02    3.49       1.0  T
   3    -55.7837679  0.110854E-05  0.930E-03    3.49       2.0  T
   4    -55.7837698 -0.185372E-05  0.247E-03    3.49       7.5  T
   5    -55.7837698 -0.186067E-07  0.115E-03    3.49      16.1  T
   6    -55.7837698 -0.428202E-08  0.263E-04    3.49      70.5  T
   7    -55.7837698 -0.291415E-09  0.146E-04    3.49     127.6  T
     SCC iter.                  ...        0 min,  0.008 sec
     gradient                   ...        0 min,  0.040 sec
 * total energy  :   -55.2813747 Eh     change       -0.2102112E-03 Eh
   gradient norm :     0.0045641 Eh/α   predicted    -0.1254722E-03 ( -40.31%)
   displ. norm   :     0.2993062 α      lambda       -0.2347861E-03
   maximum displ.:     0.2409020 α      in ANC's #2, #1, #4, ...

........................................................................
.............................. CYCLE   10 ..............................
........................................................................

 iter      E             dE          RMSdq      gap      omega  full diag
   1    -55.7840822 -0.557841E+02  0.803E-02    3.49       0.0  T
   2    -55.7840840 -0.175932E-05  0.474E-02    3.49       1.0  T
   3    -55.7840834  0.582761E-06  0.813E-03    3.49       2.3  T
   4    -55.7840848 -0.135171E-05  0.264E-03    3.49       7.0  T
   5    -55.7840848 -0.197537E-07  0.118E-03    3.49      15.8  T
   6    -55.7840848 -0.613304E-08  0.283E-04    3.49      65.5  T
   7    -55.7840848 -0.229903E-09  0.152E-04    3.49     122.5  T
     SCC iter.                  ...        0 min,  0.008 sec
     gradient                   ...        0 min,  0.013 sec
 * total energy  :   -55.2815908 Eh     change       -0.2160379E-03 Eh
   gradient norm :     0.0049546 Eh/α   predicted    -0.1279115E-03 ( -40.79%)
   displ. norm   :     0.3351593 α      lambda       -0.2548416E-03
   maximum displ.:     0.2695238 α      in ANC's #2, #1, #4, ...

........................................................................
.............................. CYCLE   11 ..............................
........................................................................

 iter      E             dE          RMSdq      gap      omega  full diag
   1    -55.7839134 -0.557839E+02  0.909E-02    3.49       0.0  T
   2    -55.7839155 -0.215439E-05  0.536E-02    3.50       1.0  T
   3    -55.7839153  0.215966E-06  0.772E-03    3.49       2.4  T
   4    -55.7839165 -0.112436E-05  0.296E-03    3.50       6.3  T
   5    -55.7839165 -0.265804E-07  0.128E-03    3.50      14.5  T
   6    -55.7839165 -0.804081E-08  0.331E-04    3.49      56.0  T
   7    -55.7839165 -0.301370E-09  0.170E-04    3.50     109.5  T
     SCC iter.                  ...        0 min,  0.008 sec
     gradient                   ...        0 min,  0.057 sec
 * total energy  :   -55.2818215 Eh     change       -0.2307198E-03 Eh
   gradient norm :     0.0041893 Eh/α   predicted    -0.1417368E-03 ( -38.57%)
   displ. norm   :     0.3700241 α      lambda       -0.2559944E-03
   maximum displ.:     0.3009092 α      in ANC's #2, #4, #1, ...

........................................................................
.............................. CYCLE   12 ..............................
........................................................................

 iter      E             dE          RMSdq      gap      omega  full diag
   1    -55.7833643 -0.557834E+02  0.101E-01    3.50       0.0  T
   2    -55.7833669 -0.266680E-05  0.594E-02    3.50       1.0  T
   3    -55.7833668  0.164610E-06  0.827E-03    3.50       2.2  T
   4    -55.7833680 -0.125239E-05  0.330E-03    3.50       5.6  T
   5    -55.7833681 -0.385498E-07  0.141E-03    3.50      13.1  T
   6    -55.7833681 -0.852126E-08  0.376E-04    3.50      49.4  T
   7    -55.7833681 -0.366192E-09  0.187E-04    3.50      99.5  T
     SCC iter.                  ...        0 min,  0.008 sec
     gradient                   ...        0 min,  0.013 sec
 * total energy  :   -55.2820412 Eh     change       -0.2197175E-03 Eh
   gradient norm :     0.0031511 Eh/α   predicted    -0.1455234E-03 ( -33.77%)
   displ. norm   :     0.3470239 α      lambda       -0.1953414E-03
   maximum displ.:     0.2886426 α      in ANC's #2, #4, #7, ...

........................................................................
.............................. CYCLE   13 ..............................
........................................................................

 iter      E             dE          RMSdq      gap      omega  full diag
   1    -55.7830599 -0.557831E+02  0.936E-02    3.50       0.0  T
   2    -55.7830622 -0.229203E-05  0.552E-02    3.50       1.0  T
   3    -55.7830619  0.262995E-06  0.798E-03    3.50       2.3  T
   4    -55.7830631 -0.121267E-05  0.312E-03    3.50       5.9  T
   5    -55.7830632 -0.337625E-07  0.123E-03    3.50      15.1  T
   6    -55.7830632 -0.678484E-08  0.365E-04    3.50      50.9  T
   7    -55.7830632 -0.375756E-09  0.171E-04    3.50     108.6  T
     SCC iter.                  ...        0 min,  0.008 sec
     gradient                   ...        0 min,  0.013 sec
 * total energy  :   -55.2821989 Eh     change       -0.1577245E-03 Eh
   gradient norm :     0.0033498 Eh/α   predicted    -0.1094355E-03 ( -30.62%)
   displ. norm   :     0.2618096 α      lambda       -0.1153229E-03
   maximum displ.:     0.2240806 α      in ANC's #2, #4, #7, ...

........................................................................
.............................. CYCLE   14 ..............................
........................................................................

 iter      E             dE          RMSdq      gap      omega  full diag
   1    -55.7832816 -0.557833E+02  0.699E-02    3.51       0.0  T
   2    -55.7832829 -0.129598E-05  0.412E-02    3.51       1.0  T
   3    -55.7832826  0.322101E-06  0.655E-03    3.51       2.8  T
   4    -55.7832835 -0.855764E-06  0.237E-03    3.51       7.8  T
   5    -55.7832835 -0.214958E-07  0.896E-04    3.51      20.7  T
   6    -55.7832835 -0.351283E-08  0.281E-04    3.51      66.1  T
     SCC iter.                  ...        0 min,  0.007 sec
     gradient                   ...        0 min,  0.013 sec
 * total energy  :   -55.2822929 Eh     change       -0.9397119E-04 Eh
   gradient norm :     0.0035436 Eh/α   predicted    -0.6161434E-04 ( -34.43%)
   displ. norm   :     0.2079575 α      lambda       -0.8449285E-04
   maximum displ.:     0.1816058 α      in ANC's #2, #4, #7, ...

........................................................................
.............................. CYCLE   15 ..............................
........................................................................

 iter      E             dE          RMSdq      gap      omega  full diag
   1    -55.7839693 -0.557840E+02  0.547E-02    3.51       0.0  T
   2    -55.7839702 -0.880037E-06  0.323E-02    3.51       1.0  T
   3    -55.7839698  0.462551E-06  0.609E-03    3.51       3.1  T
   4    -55.7839706 -0.830112E-06  0.190E-03    3.51       9.8  T
   5    -55.7839706 -0.126564E-07  0.696E-04    3.51      26.7  T
   6    -55.7839706 -0.243745E-08  0.230E-04    3.51      80.9  T
     SCC iter.                  ...        0 min,  0.016 sec
     gradient                   ...        0 min,  0.013 sec
 * total energy  :   -55.2823645 Eh     change       -0.7161607E-04 Eh
   gradient norm :     0.0030809 Eh/α   predicted    -0.4407386E-04 ( -38.46%)
   displ. norm   :     0.2199464 α      lambda       -0.8457264E-04
   maximum displ.:     0.1910039 α      in ANC's #2, #4, #6, ...

........................................................................
.............................. CYCLE   16 ..............................
........................................................................

 iter      E             dE          RMSdq      gap      omega  full diag
   1    -55.7841232 -0.557841E+02  0.579E-02    3.51       0.0  T
   2    -55.7841244 -0.116749E-05  0.340E-02    3.51       1.0  T
   3    -55.7841240  0.413054E-06  0.650E-03    3.51       2.9  T
   4    -55.7841248 -0.797776E-06  0.212E-03    3.51       8.8  T
   5    -55.7841248 -0.287772E-07  0.955E-04    3.51      19.5  T
   6    -55.7841248 -0.275250E-08  0.239E-04    3.51      77.7  T
     SCC iter.                  ...        0 min,  0.006 sec
     gradient                   ...        0 min,  0.013 sec
 * total energy  :   -55.2824338 Eh     change       -0.6923635E-04 Eh
   gradient norm :     0.0018520 Eh/α   predicted    -0.4433857E-04 ( -35.96%)
   displ. norm   :     0.3507925 α      lambda       -0.7954775E-04
   maximum displ.:     0.3002006 α      in ANC's #2, #6, #1, ...

........................................................................
.............................. CYCLE   17 ..............................
........................................................................

 iter      E             dE          RMSdq      gap      omega  full diag
   1    -55.7850666 -0.557851E+02  0.887E-02    3.51       0.0  T
   2    -55.7850696 -0.300883E-05  0.527E-02    3.52       1.0  T
   3    -55.7850676  0.197459E-05  0.116E-02    3.51       1.6  T
   4    -55.7850707 -0.312581E-05  0.325E-03    3.52       5.7  T
   5    -55.7850708 -0.398115E-07  0.148E-03    3.52      12.5  T
   6    -55.7850708 -0.104759E-07  0.374E-04    3.52      49.7  T
   7    -55.7850708 -0.402487E-09  0.148E-04    3.52     125.6  T
     SCC iter.                  ...        0 min,  0.008 sec
     gradient                   ...        0 min,  0.050 sec
 * total energy  :   -55.2825047 Eh     change       -0.7094321E-04 Eh
   gradient norm :     0.0046493 Eh/α   predicted    -0.4195109E-04 ( -40.87%)
   displ. norm   :     0.1372200 α      lambda       -0.4551350E-04
   maximum displ.:     0.1129104 α      in ANC's #2, #1, #6, ...

........................................................................
.............................. CYCLE   18 ..............................
........................................................................

 iter      E             dE          RMSdq      gap      omega  full diag
   1    -55.7846271 -0.557846E+02  0.341E-02    3.52       0.0  T
   2    -55.7846284 -0.132180E-05  0.199E-02    3.51       1.0  T
   3    -55.7846284  0.199082E-08  0.526E-03    3.51       3.5  T
   4    -55.7846286 -0.183885E-06  0.118E-03    3.51      15.7  T
   5    -55.7846286 -0.417237E-08  0.600E-04    3.51      30.9  T
   6    -55.7846286 -0.215858E-08  0.242E-04    3.51      76.9  T
     SCC iter.                  ...        0 min,  0.007 sec
     gradient                   ...        0 min,  0.013 sec
 * total energy  :   -55.2825341 Eh     change       -0.2936843E-04 Eh
   gradient norm :     0.0029485 Eh/α   predicted    -0.2318857E-04 ( -21.04%)
   displ. norm   :     0.0914601 α      lambda       -0.2704121E-04
   maximum displ.:     0.0666747 α      in ANC's #2, #1, #6, ...

........................................................................
.............................. CYCLE   19 ..............................
........................................................................

 iter      E             dE          RMSdq      gap      omega  full diag
   1    -55.7847303 -0.557847E+02  0.210E-02    3.51       0.0  T
   2    -55.7847305 -0.138128E-06  0.125E-02    3.51       1.5  T
   3    -55.7847305 -0.304428E-08  0.163E-03    3.51      11.4  T
   4    -55.7847305 -0.379781E-07  0.707E-04    3.51      26.3  T
   5    -55.7847305 -0.238695E-08  0.343E-04    3.51      54.2  T
     SCC iter.                  ...        0 min,  0.006 sec
     gradient                   ...        0 min,  0.013 sec
 * total energy  :   -55.2825578 Eh     change       -0.2371379E-04 Eh
   gradient norm :     0.0026283 Eh/α   predicted    -0.1363440E-04 ( -42.50%)
   displ. norm   :     0.1402576 α      lambda       -0.4929345E-04
   maximum displ.:     0.0944030 α      in ANC's #1, #2, #6, ...

........................................................................
.............................. CYCLE   20 ..............................
........................................................................

 iter      E             dE          RMSdq      gap      omega  full diag
   1    -55.7846779 -0.557847E+02  0.325E-02    3.51       0.0  T
   2    -55.7846782 -0.316842E-06  0.193E-02    3.52       1.0  T
   3    -55.7846783 -0.465443E-07  0.205E-03    3.51       9.1  T
   4    -55.7846783 -0.509600E-07  0.938E-04    3.51      19.8  T
   5    -55.7846783 -0.160949E-08  0.403E-04    3.51      46.1  T
     SCC iter.                  ...        0 min,  0.006 sec
     gradient                   ...        0 min,  0.013 sec
 * total energy  :   -55.2825988 Eh     change       -0.4102076E-04 Eh
   gradient norm :     0.0021507 Eh/α   predicted    -0.2513878E-04 ( -38.72%)
   displ. norm   :     0.1757265 α      lambda       -0.5365531E-04
   maximum displ.:     0.1319716 α      in ANC's #1, #2, #6, ...
 * RMSD in coord.:     0.7229303 α      energy gain  -0.1274688E-01 Eh

generating ANC from exact Hessian ...
Using Lindh-Hessian (1995)
 Shifting diagonal of input Hessian by    9.2031192834529721E-003
 Lowest  eigenvalues of input Hessian
    0.000000    0.000000    0.000000    0.000000    0.000000    0.000000
    0.010000    0.010770    0.011952    0.013591    0.014270    0.014860
    0.017698    0.018158    0.020219    0.023114    0.024982    0.028210
 Highest eigenvalues
    1.802051    1.892628    2.029668    2.109450    2.219925    2.455046


........................................................................
.............................. CYCLE   21 ..............................
........................................................................

 iter      E             dE          RMSdq      gap      omega  full diag
   1    -55.7844024 -0.557844E+02  0.437E-02    3.51       0.0  T
   2    -55.7844029 -0.549473E-06  0.257E-02    3.51       1.0  T
   3    -55.7844030 -0.124388E-06  0.249E-03    3.51       7.5  T
   4    -55.7844031 -0.565908E-07  0.124E-03    3.51      15.0  T
   5    -55.7844031 -0.274296E-08  0.458E-04    3.51      40.6  T
   6    -55.7844031 -0.258989E-08  0.165E-04    3.51     112.7  T
     SCC iter.                  ...        0 min,  0.007 sec
     gradient                   ...        0 min,  0.013 sec
 * total energy  :   -55.2826430 Eh     change       -0.4418390E-04 Eh
   gradient norm :     0.0026814 Eh/α   predicted     0.0000000E+00 (-100.00%)
   displ. norm   :     0.0355814 α      lambda       -0.2210122E-04
   maximum displ.:     0.0281479 α      in ANC's #1, #7, #4, ...

........................................................................
.............................. CYCLE   22 ..............................
........................................................................

 iter      E             dE          RMSdq      gap      omega  full diag
   1    -55.7841625 -0.557842E+02  0.121E-02    3.51       0.0  T
   2    -55.7841626 -0.104061E-06  0.700E-03    3.51       2.7  T
   3    -55.7841626 -0.927750E-08  0.108E-03    3.51      17.3  T
   4    -55.7841626 -0.132798E-07  0.398E-04    3.51      46.7  T
   5    -55.7841626 -0.390607E-09  0.170E-04    3.51     109.3  T
     SCC iter.                  ...        0 min,  0.006 sec
     gradient                   ...        0 min,  0.013 sec
 * total energy  :   -55.2826645 Eh     change       -0.2151061E-04 Eh
   gradient norm :     0.0011483 Eh/α   predicted    -0.1229224E-04 ( -42.86%)
   displ. norm   :     0.1529656 α      lambda       -0.5249586E-04
   maximum displ.:     0.1134192 α      in ANC's #1, #7, #2, ...

........................................................................
.............................. CYCLE   23 ..............................
........................................................................

 iter      E             dE          RMSdq      gap      omega  full diag
   1    -55.7834794 -0.557835E+02  0.529E-02    3.50       0.0  T
   2    -55.7834809 -0.156660E-05  0.305E-02    3.50       1.0  T
   3    -55.7834812 -0.246055E-06  0.378E-03    3.49       4.9  T
   4    -55.7834813 -0.155868E-06  0.165E-03    3.50      11.2  T
   5    -55.7834813 -0.588295E-08  0.693E-04    3.50      26.8  T
   6    -55.7834813 -0.310388E-08  0.193E-04    3.50      96.3  T
     SCC iter.                  ...        0 min,  0.007 sec
     gradient                   ...        0 min,  0.013 sec
 * total energy  :   -55.2827142 Eh     change       -0.4969764E-04 Eh
   gradient norm :     0.0035999 Eh/α   predicted    -0.2652617E-04 ( -46.62%)
   displ. norm   :     0.0687749 α      lambda       -0.2486009E-04
   maximum displ.:     0.0543083 α      in ANC's #1, #7, #2, ...

........................................................................
.............................. CYCLE   24 ..............................
........................................................................

 iter      E             dE          RMSdq      gap      omega  full diag
   1    -55.7835230 -0.557835E+02  0.227E-02    3.49       0.0  T
   2    -55.7835232 -0.191647E-06  0.131E-02    3.49       1.4  T
   3    -55.7835233 -0.428403E-07  0.141E-03    3.49      13.1  T
   4    -55.7835233 -0.269736E-07  0.694E-04    3.49      26.7  T
   5    -55.7835233 -0.161851E-08  0.227E-04    3.49      81.9  T
     SCC iter.                  ...        0 min,  0.006 sec
     gradient                   ...        0 min,  0.013 sec
 * total energy  :   -55.2827373 Eh     change       -0.2313116E-04 Eh
   gradient norm :     0.0033567 Eh/α   predicted    -0.1249436E-04 ( -45.98%)
   displ. norm   :     0.1293439 α      lambda       -0.5405068E-04
   maximum displ.:     0.0989109 α      in ANC's #1, #7, #2, ...

........................................................................
.............................. CYCLE   25 ..............................
........................................................................

 iter      E             dE          RMSdq      gap      omega  full diag
   1    -55.7837493 -0.557837E+02  0.433E-02    3.49       0.0  T
   2    -55.7837500 -0.678269E-06  0.248E-02    3.49       1.0  T
   3    -55.7837501 -0.969332E-07  0.304E-03    3.49       6.1  T
   4    -55.7837502 -0.166734E-06  0.130E-03    3.49      14.3  T
   5    -55.7837502 -0.468334E-08  0.360E-04    3.49      51.5  T
   6    -55.7837502 -0.104005E-08  0.102E-04    3.49     181.4  T
     SCC iter.                  ...        0 min,  0.007 sec
     gradient                   ...        0 min,  0.045 sec
 * total energy  :   -55.2827856 Eh     change       -0.4822901E-04 Eh
   gradient norm :     0.0018363 Eh/α   predicted    -0.2748447E-04 ( -43.01%)
   displ. norm   :     0.3608876 α      lambda       -0.8649598E-04
   maximum displ.:     0.2735579 α      in ANC's #1, #7, #2, ...

........................................................................
.............................. CYCLE   26 ..............................
........................................................................

 iter      E             dE          RMSdq      gap      omega  full diag
   1    -55.7830778 -0.557831E+02  0.121E-01    3.49       0.0  T
   2    -55.7830835 -0.570553E-05  0.695E-02    3.48       1.0  T
   3    -55.7830839 -0.437120E-06  0.944E-03    3.48       2.0  T
   4    -55.7830856 -0.170240E-05  0.368E-03    3.48       5.1  T
   5    -55.7830857 -0.459479E-07  0.128E-03    3.48      14.5  T
   6    -55.7830857 -0.132061E-07  0.291E-04    3.48      63.7  T
   7    -55.7830857 -0.290875E-09  0.145E-04    3.48     128.2  T
     SCC iter.                  ...        0 min,  0.008 sec
     gradient                   ...        0 min,  0.013 sec
 * total energy  :   -55.2828825 Eh     change       -0.9691861E-04 Eh
   gradient norm :     0.0035205 Eh/α   predicted    -0.4576382E-04 ( -52.78%)
   displ. norm   :     0.1811978 α      lambda       -0.5590280E-04
   maximum displ.:     0.1416329 α      in ANC's #1, #7, #2, ...

........................................................................
.............................. CYCLE   27 ..............................
........................................................................

 iter      E             dE          RMSdq      gap      omega  full diag
   1    -55.7830874 -0.557831E+02  0.583E-02    3.48       0.0  T
   2    -55.7830886 -0.124835E-05  0.334E-02    3.48       1.0  T
   3    -55.7830889 -0.285601E-06  0.351E-03    3.48       5.3  T
   4    -55.7830891 -0.178601E-06  0.164E-03    3.48      11.3  T
   5    -55.7830891 -0.623696E-08  0.584E-04    3.48      31.8  T
   6    -55.7830891 -0.482501E-08  0.148E-04    3.48     125.3  T
     SCC iter.                  ...        0 min,  0.007 sec
     gradient                   ...        0 min,  0.013 sec
 * total energy  :   -55.2829302 Eh     change       -0.4770507E-04 Eh
   gradient norm :     0.0034788 Eh/α   predicted    -0.2886999E-04 ( -39.48%)
   displ. norm   :     0.2302997 α      lambda       -0.7221663E-04
   maximum displ.:     0.1820097 α      in ANC's #1, #7, #2, ...

........................................................................
.............................. CYCLE   28 ..............................
........................................................................

 iter      E             dE          RMSdq      gap      omega  full diag
   1    -55.7833216 -0.557833E+02  0.730E-02    3.48       0.0  T
   2    -55.7833237 -0.201810E-05  0.418E-02    3.48       1.0  T
   3    -55.7833242 -0.517049E-06  0.413E-03    3.48       4.5  T
   4    -55.7833244 -0.198783E-06  0.199E-03    3.48       9.3  T
   5    -55.7833244 -0.969636E-08  0.787E-04    3.48      23.6  T
   6    -55.7833244 -0.767126E-08  0.209E-04    3.48      88.9  T
     SCC iter.                  ...        0 min,  0.007 sec
     gradient                   ...        0 min,  0.013 sec
 * total energy  :   -55.2829876 Eh     change       -0.5744334E-04 Eh
   gradient norm :     0.0025471 Eh/α   predicted    -0.3802671E-04 ( -33.80%)
   displ. norm   :     0.2538881 α      lambda       -0.6056252E-04
   maximum displ.:     0.2014934 α      in ANC's #1, #7, #2, ...

........................................................................
.............................. CYCLE   29 ..............................
........................................................................

 iter      E             dE          RMSdq      gap      omega  full diag
   1    -55.7830805 -0.557831E+02  0.794E-02    3.47       0.0  T
   2    -55.7830828 -0.230021E-05  0.456E-02    3.47       1.0  T
   3    -55.7830834 -0.628369E-06  0.444E-03    3.47       4.2  T
   4    -55.7830836 -0.217869E-06  0.222E-03    3.47       8.4  T
   5    -55.7830836 -0.129860E-07  0.782E-04    3.47      23.7  T
   6    -55.7830836 -0.816129E-08  0.232E-04    3.47      80.0  T
     SCC iter.                  ...        0 min,  0.007 sec
     gradient                   ...        0 min,  0.013 sec
 * total energy  :   -55.2830330 Eh     change       -0.4538121E-04 Eh
   gradient norm :     0.0021261 Eh/α   predicted    -0.3223519E-04 ( -28.97%)
   displ. norm   :     0.2222197 α      lambda       -0.4829809E-04
   maximum displ.:     0.1780096 α      in ANC's #1, #7, #4, ...

........................................................................
.............................. CYCLE   30 ..............................
........................................................................

 iter      E             dE          RMSdq      gap      omega  full diag
   1    -55.7834883 -0.557835E+02  0.665E-02    3.47       0.0  T
   2    -55.7834900 -0.167274E-05  0.382E-02    3.47       1.0  T
   3    -55.7834904 -0.392243E-06  0.402E-03    3.47       4.6  T
   4    -55.7834906 -0.193759E-06  0.192E-03    3.47       9.7  T
   5    -55.7834906 -0.141326E-07  0.859E-04    3.47      21.6  T
   6    -55.7834906 -0.517968E-08  0.215E-04    3.47      86.4  T
     SCC iter.                  ...        0 min,  0.007 sec
     gradient                   ...        0 min,  0.013 sec
 * total energy  :   -55.2830663 Eh     change       -0.3324254E-04 Eh
   gradient norm :     0.0016039 Eh/α   predicted    -0.2534423E-04 ( -23.76%)
   displ. norm   :     0.3296792 α      lambda       -0.3079453E-04
   maximum displ.:     0.2600015 α      in ANC's #1, #7, #5, ...

........................................................................
.............................. CYCLE   31 ..............................
........................................................................

 iter      E             dE          RMSdq      gap      omega  full diag
   1    -55.7821317 -0.557821E+02  0.101E-01    3.46       0.0  T
   2    -55.7821366 -0.494643E-05  0.582E-02    3.46       1.0  T
   3    -55.7821371 -0.433650E-06  0.844E-03    3.46       2.2  T
   4    -55.7821381 -0.105496E-05  0.328E-03    3.46       5.7  T
   5    -55.7821382 -0.649905E-07  0.150E-03    3.46      12.4  T
   6    -55.7821382 -0.876731E-08  0.342E-04    3.46      54.3  T
   7    -55.7821382 -0.876980E-09  0.177E-04    3.46     105.1  T
     SCC iter.                  ...        0 min,  0.008 sec
     gradient                   ...        0 min,  0.049 sec
 * total energy  :   -55.2830824 Eh     change       -0.1612812E-04 Eh
   gradient norm :     0.0043130 Eh/α   predicted    -0.1614607E-04 (   0.11%)
   displ. norm   :     0.0858335 α      lambda       -0.4871598E-04
   maximum displ.:     0.0556771 α      in ANC's #5, #1, #4, ...

........................................................................
.............................. CYCLE   32 ..............................
........................................................................

 iter      E             dE          RMSdq      gap      omega  full diag
   1    -55.7838707 -0.557839E+02  0.259E-02    3.47       0.0  T
   2    -55.7838718 -0.117815E-05  0.149E-02    3.47       1.2  T
   3    -55.7838718  0.197467E-07  0.500E-03    3.47       3.7  T
   4    -55.7838720 -0.150852E-06  0.112E-03    3.47      16.5  T
   5    -55.7838720 -0.214325E-07  0.580E-04    3.47      32.0  T
   6    -55.7838720 -0.105379E-08  0.159E-04    3.47     117.0  T
     SCC iter.                  ...        0 min,  0.007 sec
     gradient                   ...        0 min,  0.013 sec
 * total energy  :   -55.2831064 Eh     change       -0.2396728E-04 Eh
   gradient norm :     0.0024620 Eh/α   predicted    -0.2453949E-04 (   2.39%)
   displ. norm   :     0.0338740 α      lambda       -0.1084185E-04
   maximum displ.:     0.0209745 α      in ANC's #1, #5, #7, ...

........................................................................
.............................. CYCLE   33 ..............................
........................................................................

 iter      E             dE          RMSdq      gap      omega  full diag
   1    -55.7836560 -0.557837E+02  0.110E-02    3.47       0.0  T
   2    -55.7836561 -0.133973E-06  0.645E-03    3.47       2.9  T
   3    -55.7836561  0.421360E-07  0.241E-03    3.47       7.7  T
   4    -55.7836561 -0.775989E-07  0.515E-04    3.47      36.0  T
   5    -55.7836561 -0.274486E-08  0.230E-04    3.47      80.9  T
     SCC iter.                  ...        0 min,  0.006 sec
     gradient                   ...        0 min,  0.013 sec
 * total energy  :   -55.2831154 Eh     change       -0.9047558E-05 Eh
   gradient norm :     0.0015635 Eh/α   predicted    -0.5427314E-05 ( -40.01%)
   displ. norm   :     0.1429655 α      lambda       -0.1935728E-04
   maximum displ.:     0.0887275 α      in ANC's #1, #5, #7, ...

........................................................................
.............................. CYCLE   34 ..............................
........................................................................

 iter      E             dE          RMSdq      gap      omega  full diag
   1    -55.7831049 -0.557831E+02  0.454E-02    3.47       0.0  T
   2    -55.7831064 -0.148638E-05  0.264E-02    3.47       1.0  T
   3    -55.7831059  0.459049E-06  0.744E-03    3.47       2.5  T
   4    -55.7831068 -0.868234E-06  0.188E-03    3.47       9.9  T
   5    -55.7831068 -0.282114E-07  0.883E-04    3.47      21.0  T
   6    -55.7831068 -0.141878E-08  0.220E-04    3.47      84.3  T
     SCC iter.                  ...        0 min,  0.007 sec
     gradient                   ...        0 min,  0.034 sec
 * total energy  :   -55.2831242 Eh     change       -0.8763951E-05 Eh
   gradient norm :     0.0019481 Eh/α   predicted    -0.9767139E-05 (  11.45%)
   displ. norm   :     0.0222297 α      lambda       -0.4219729E-05
   maximum displ.:     0.0118108 α      in ANC's #1, #5, #7, ...

........................................................................
.............................. CYCLE   35 ..............................
........................................................................

 iter      E             dE          RMSdq      gap      omega  full diag
   1    -55.7834352 -0.557834E+02  0.806E-03    3.47       0.0  T
   2    -55.7834353 -0.130195E-06  0.458E-03    3.47       4.1  T
   3    -55.7834353  0.109439E-08  0.176E-03    3.47      10.6  T
   4    -55.7834353 -0.152886E-07  0.485E-04    3.47      38.3  T
   5    -55.7834353 -0.299625E-08  0.187E-04    3.47      99.3  T
     SCC iter.                  ...        0 min,  0.006 sec
     gradient                   ...        0 min,  0.013 sec
 * total energy  :   -55.2831279 Eh     change       -0.3696221E-05 Eh
   gradient norm :     0.0005955 Eh/α   predicted    -0.2111767E-05 ( -42.87%)
   displ. norm   :     0.0228509 α      lambda        0.2077323E-05
   maximum displ.:     0.0122299 α      in ANC's #1, #5, #7, ...

   *** GEOMETRY OPTIMIZATION CONVERGED AFTER 35 ITERATIONS ***

------------------------------------------------------------------------
 total energy gain   :        -0.0132759 Eh       -8.3308 kcal/mol
 total RMSD          :         0.7270812 a0        0.3848 Å
 total power (kW/mol):        -0.9958842 (step)  -27.1862 (real)
------------------------------------------------------------------------

 ANCopt (total)                0 d,  0 h,  0 min,  1.282 sec
 optimizer setup                ...        0 min,  0.000 sec (  0.006%)
 model hessian                  ...        0 min,  0.048 sec (  3.750%)
 ANC generation                 ...        0 min,  0.002 sec (  0.118%)
 coordinate transformation      ...        0 min,  0.000 sec (  0.012%)
 single point calculation       ...        0 min,  1.224 sec ( 95.428%)
 optimization log               ...        0 min,  0.004 sec (  0.330%)
 hessian update                 ...        0 min,  0.000 sec (  0.022%)
 rational function              ...        0 min,  0.002 sec (  0.134%)

================
 final structure:
================
29
 xtb: 6.7.1 (edcfbbe)
O           -0.07376095005570        2.41331823511218       -0.82774746956009
C           -1.03907359912931        1.75964188399542       -0.05983704254670
C           -1.75957893839749        0.66283239376033       -0.87292880163758
C           -2.50525425168877       -0.32847096415316        0.02698359264512
C           -1.40344991026923       -1.35987146628570        0.36569195256994
C           -0.44107032766857       -1.24177746609435       -0.85952983244412
N            0.93585932655155       -1.09299815856850       -0.44425313609338
C            1.90051715993266       -2.02122508250942       -0.26269839448666
N            3.00083458849698       -1.45375308486620        0.15082601097608
C            2.68787609857193       -0.14013957918216        0.21673447616529
C            3.61658183117462        0.94459925883086        0.63035915165448
N            3.04264224204742        2.16879640824395        0.57509268715648
O            4.75753986896243        0.75724076996539        0.98340344736028
N            1.43783966924070        0.10504048625088       -0.13629773917047
O           -0.83826511479924       -0.13608233318579       -1.60933854746640
O           -1.87942776831122       -2.64364086423838        0.56558838455754
O           -3.51981434315292       -1.03044746580495       -0.64981171180104
H            0.49383892818386        1.71844695930186       -1.20037375636214
H           -1.76184288072450        2.51446583035611        0.25726554337138
H           -0.57868355761128        1.30829664290571        0.83107365586290
H           -2.40587563005601        1.12558774829588       -1.62547488264966
H           -2.90068708277198        0.15609095971210        0.92827696331125
H           -0.86670369858913       -1.06712299119950        1.27411746996008
H           -0.49966085098213       -2.14650946326950       -1.47944836205400
H            1.75682953491216       -3.06726558982038       -0.43503890292497
H            2.09737984835523        2.30141247480837        0.25592739533437
H            3.60120973246068        2.97012253562571        0.81675330689231
H           -2.65725857367486       -2.76135141983690       -0.00077935650022
H           -4.19864135100723       -0.41533665814512       -0.94413610212109

 Bond Distances (Angstroems)
 ---------------------------
O1-C2=1.3960         O1-H18=0.9715        C2-O1=1.3960         C2-C3=1.5438         C2-H19=1.0921        C2-H20=1.0997        
C3-C2=1.5438         C3-C4=1.5325         C3-O15=1.4246        C3-H21=1.0946        C4-C3=1.5325         C4-C5=1.5468         
C4-O17=1.4072        C4-H22=1.0970        C5-C4=1.5468         C5-C6=1.5625         C5-O16=1.3837        C5-H23=1.0950        
C6-C5=1.5625         C6-N7=1.4459         C6-O15=1.3937        C6-H24=1.0983        N7-C6=1.4459         N7-C8=1.3510         
N7-N14=1.3350        C8-N7=1.3510         C8-N9=1.3053         C8-H25=1.0698        N9-C8=1.3053         N9-C10=1.3520        
C10-N9=1.3520        C10-C11=1.4867       C10-N14=1.3219       C11-C10=1.4867       C11-N12=1.3532       C11-O13=1.2089       
N12-C11=1.3532       N12-H26=1.0065       N12-H27=1.0062       O13-C11=1.2089       N14-N7=1.3350        N14-C10=1.3219       
O15-C3=1.4246        O15-C6=1.3937        O16-C5=1.3837        O16-H28=0.9694       O17-C4=1.4072        O17-H29=0.9622       
H18-O1=0.9715        H19-C2=1.0921        H20-C2=1.0997        H21-C3=1.0946        H22-C4=1.0970        H23-C5=1.0950        
H24-C6=1.0983        H25-C8=1.0698        H26-N12=1.0065       H27-N12=1.0062       H28-O16=0.9694       H29-O17=0.9622       
 C  H  Rav=1.0924 sigma=0.0095  Rmin=1.0698  Rmax=1.0997     7
 C  C  Rav=1.5344 sigma=0.0257  Rmin=1.4867  Rmax=1.5625     5
 N  H  Rav=1.0064 sigma=0.0001  Rmin=1.0062  Rmax=1.0065     2
 N  C  Rav=1.3549 sigma=0.0445  Rmin=1.3053  Rmax=1.4459     6
 N  N  Rav=1.3350 sigma=0.0000  Rmin=1.3350  Rmax=1.3350     1
 O  H  Rav=0.9677 sigma=0.0040  Rmin=0.9622  Rmax=0.9715     3
 O  C  Rav=1.3690 sigma=0.0727  Rmin=1.2089  Rmax=1.4246     6

 selected bond angles (degree)
 --------------------
H18-O1-C2=106.26               C3-C2-O1=111.45                H19-C2-O1=107.08               H19-C2-C3=109.58               
H20-C2-O1=110.38               H20-C2-C3=109.30               H20-C2-H19=109.00              C4-C3-C2=112.17                
O15-C3-C2=111.65               O15-C3-C4=104.80               H21-C3-C2=109.71               H21-C3-C4=112.95               
H21-C3-O15=105.28              C5-C4-C3=102.32                O17-C4-C3=113.02               O17-C4-C5=106.63               
H22-C4-C3=111.85               H22-C4-C5=111.80               H22-C4-O17=110.83              C6-C5-C4=102.51                
O16-C5-C4=113.91               O16-C5-C6=113.28               H23-C5-C4=110.64               H23-C5-C6=109.17               
H23-C5-O16=107.27              N7-C6-C5=111.66                O15-C6-C5=107.84               O15-C6-N7=110.14               
H24-C6-C5=110.33               H24-C6-N7=107.32               H24-C6-O15=109.55              C8-N7-C6=130.38                
N14-N7-C6=121.11               N14-N7-C8=108.49               N9-C8-N7=110.23                H25-C8-N7=123.66               
H25-C8-N9=126.11               C10-N9-C8=104.05               C11-C10-N9=125.30              N14-C10-N9=112.71              
N14-C10-C11=121.99             

 selected dihedral angles (degree)
 ---------------------------------
C3-C2-O1-H18=307.18           H19-C2-O1-H18=187.35          H20-C2-O1-H18= 68.83          C4-C3-C2-O1=163.02            
C4-C3-C2-H19=281.36           C4-C3-C2-H20= 40.74           O15-C3-C2-O1= 45.73           O15-C3-C2-H19=164.07          
O15-C3-C2-H20=283.45          H21-C3-C2-O1=289.41           H21-C3-C2-H19= 47.75          H21-C3-C2-H20=167.13          
C5-C4-C3-C2=273.46            C5-C4-C3-O15= 34.77           C5-C4-C3-H21=148.84           O17-C4-C3-C2=159.18           
O17-C4-C3-O15=280.49          O17-C4-C3-H21= 34.56          H22-C4-C3-C2= 33.26           H22-C4-C3-O15=154.57          
H22-C4-C3-H21=268.65          C6-C5-C4-C3=333.73            C6-C5-C4-O17= 92.61           C6-C5-C4-H22=213.89           
O16-C5-C4-C3=210.96           O16-C5-C4-O17=329.84          O16-C5-C4-H22= 91.12          H23-C5-C4-C3= 90.03           
H23-C5-C4-O17=208.91          H23-C5-C4-H22=330.19          N7-C6-C5-C4=130.79            N7-C6-C5-O16=253.98           
N7-C6-C5-H23= 13.43           O15-C6-C5-C4=  9.66           O15-C6-C5-O16=132.85          O15-C6-C5-H23=252.30          
H24-C6-C5-C4=250.05           H24-C6-C5-O16= 13.24          H24-C6-C5-H23=132.69          C8-N7-C6-C5= 93.51            
C8-N7-C6-O15=213.29           C8-N7-C6-H24=332.48           N14-N7-C6-C5=275.20           N14-N7-C6-O15= 34.98          
N14-N7-C6-H24=154.17          N9-C8-N7-C6=181.53            N9-C8-N7-N14=  0.00           H25-C8-N7-C6=  1.22           
H25-C8-N7-N14=179.69          C10-N9-C8-N7=359.85           C10-N9-C8-H25=180.16          C11-C10-N9-C8=180.48          
N14-C10-N9-C8=  0.27          
           -------------------------------------------------
          |                Final Singlepoint                |
           -------------------------------------------------

          ...................................................
          :                      SETUP                      :
          :.................................................:
          :  # basis functions                  80          :
          :  # atomic orbitals                  80          :
          :  # shells                           46          :
          :  # electrons                        94          :
          :  max. iterations                   250          :
          :  Hamiltonian                  GFN2-xTB          :
          :  restarted?                      false          :
          :  GBSA solvation                  false          :
          :  PC potential                    false          :
          :  electronic temp.          300.0000000     K    :
          :  accuracy                    1.0000000          :
          :  -> integral cutoff          0.2500000E+02      :
          :  -> integral neglect         0.1000000E-07      :
          :  -> SCF convergence          0.1000000E-05 Eh   :
          :  -> wf. convergence          0.1000000E-03 e    :
          :  Broyden damping             0.4000000          :
          :  net charge                          0          :
          :  unpaired electrons                  0          :
          ...................................................

 iter      E             dE          RMSdq      gap      omega  full diag
   1    -55.7834353 -0.557834E+02  0.669E-05    3.47       0.0  T
   2    -55.7834353 -0.273843E-10  0.395E-05    3.47     470.0  T
   3    -55.7834353 -0.766676E-11  0.264E-05    3.47     702.7  T

   *** convergence criteria satisfied after 3 iterations ***

         #    Occupation            Energy/Eh            Energy/eV
      -------------------------------------------------------------
         1        2.0000           -0.7553699             -20.5547
       ...           ...                  ...                  ...
        41        2.0000           -0.4498823             -12.2419
        42        2.0000           -0.4452897             -12.1169
        43        2.0000           -0.4327999             -11.7771
        44        2.0000           -0.4272220             -11.6253
        45        2.0000           -0.4176398             -11.3646
        46        2.0000           -0.4028868             -10.9631
        47        2.0000           -0.3958298             -10.7711 (HOMO)
        48                         -0.2682624              -7.2998 (LUMO)
        49                         -0.2331406              -6.3441
        50                         -0.1424182              -3.8754
        51                         -0.0509970              -1.3877
        52                         -0.0444605              -1.2098
       ...                                ...                  ...
        80                          0.6898478              18.7717
      -------------------------------------------------------------
                  HL-Gap            0.1275675 Eh            3.4713 eV
             Fermi-level           -0.3320461 Eh           -9.0354 eV

 SCC (total)                   0 d,  0 h,  0 min,  0.022 sec
 SCC setup                      ...        0 min,  0.000 sec (  0.769%)
 Dispersion                     ...        0 min,  0.000 sec (  0.668%)
 classical contributions        ...        0 min,  0.000 sec (  0.315%)
 integral evaluation            ...        0 min,  0.005 sec ( 20.963%)
 iterations                     ...        0 min,  0.004 sec ( 16.545%)
 molecular gradient             ...        0 min,  0.013 sec ( 60.266%)
 printout                       ...        0 min,  0.000 sec (  0.448%)

         :::::::::::::::::::::::::::::::::::::::::::::::::::::
         ::                     SUMMARY                     ::
         :::::::::::::::::::::::::::::::::::::::::::::::::::::
         :: total energy             -55.283127857914 Eh    ::
         :: gradient norm              0.000596754966 Eh/a0 ::
         :: HOMO-LUMO gap              3.471288260089 eV    ::
         ::.................................................::
         :: SCC energy               -55.783141901795 Eh    ::
         :: -> isotropic ES            0.140185184058 Eh    ::
         :: -> anisotropic ES          0.002060300486 Eh    ::
         :: -> anisotropic XC          0.008979767225 Eh    ::
         :: -> dispersion             -0.028705208853 Eh    ::
         :: repulsion energy           0.500014043881 Eh    ::
         :: add. restraining           0.000000000000 Eh    ::
         :: total charge               0.000000000000 e     ::
         :::::::::::::::::::::::::::::::::::::::::::::::::::::

           -------------------------------------------------
          |                Property Printout                |
           -------------------------------------------------

    * Orbital Energies and Occupations

         #    Occupation            Energy/Eh            Energy/eV
      -------------------------------------------------------------
         1        2.0000           -0.7553699             -20.5547
       ...           ...                  ...                  ...
        35        2.0000           -0.4948246             -13.4649
        36        2.0000           -0.4884908             -13.2925
        37        2.0000           -0.4824683             -13.1286
        38        2.0000           -0.4730612             -12.8727
        39        2.0000           -0.4675011             -12.7214
        40        2.0000           -0.4548903             -12.3782
        41        2.0000           -0.4498823             -12.2419
        42        2.0000           -0.4452897             -12.1169
        43        2.0000           -0.4327999             -11.7771
        44        2.0000           -0.4272220             -11.6253
        45        2.0000           -0.4176398             -11.3646
        46        2.0000           -0.4028868             -10.9631
        47        2.0000           -0.3958298             -10.7711 (HOMO)
        48                         -0.2682624              -7.2998 (LUMO)
        49                         -0.2331406              -6.3441
        50                         -0.1424182              -3.8754
        51                         -0.0509970              -1.3877
        52                         -0.0444605              -1.2098
        53                         -0.0287265              -0.7817
        54                         -0.0029710              -0.0808
        55                          0.0091534               0.2491
        56                          0.0361845               0.9846
        57                          0.0423970               1.1537
        58                          0.0494111               1.3445
       ...                                ...                  ...
        80                          0.6898478              18.7717
      -------------------------------------------------------------
                  HL-Gap            0.1275675 Eh            3.4713 eV
             Fermi-level           -0.3320461 Eh           -9.0354 eV

     #   Z          covCN         q      C6AA      α(0)
     1   8 O        1.655    -0.435    21.537     6.265
     2   6 C        3.674     0.064    19.728     6.365
     3   6 C        3.783     0.078    19.307     6.259
     4   6 C        3.736     0.093    19.123     6.240
     5   6 C        3.740     0.104    18.937     6.209
     6   6 C        3.717     0.154    18.219     6.097
     7   7 N        3.035     0.045    20.447     6.716
     8   6 C        3.143     0.093    25.692     8.294
     9   7 N        1.905    -0.240    27.118     7.721
    10   6 C        3.293     0.127    23.722     7.813
    11   6 C        2.746     0.279    22.273     7.728
    12   7 N        2.644    -0.271    27.012     7.719
    13   8 O        0.859    -0.401    21.695     6.245
    14   7 N        2.021    -0.249    27.264     7.745
    15   8 O        1.703    -0.299    18.971     5.881
    16   8 O        1.657    -0.423    21.308     6.231
    17   8 O        1.657    -0.435    21.548     6.266
    18   1 H        0.804     0.318     0.668     1.284
    19   1 H        0.924     0.055     2.265     2.353
    20   1 H        0.923     0.029     2.598     2.521
    21   1 H        0.924     0.065     2.136     2.286
    22   1 H        0.924     0.030     2.582     2.513
    23   1 H        0.924     0.051     2.303     2.373
    24   1 H        0.923     0.066     2.132     2.283
    25   1 H        0.927     0.059     2.214     2.327
    26   1 H        0.860     0.206     1.074     1.623
    27   1 H        0.860     0.198     1.114     1.653
    28   1 H        0.804     0.330     0.637     1.254
    29   1 H        0.805     0.307     0.701     1.315

 Mol. C6AA /au·bohr⁶  :       8934.111833
 Mol. C8AA /au·bohr⁸  :     198607.622072
 Mol. α(0) /au        :        139.579048


Wiberg/Mayer (AO) data.
largest (>0.10) Wiberg bond orders for each atom

 ---------------------------------------------------------------------------
     #   Z sym  total        # sym  WBO       # sym  WBO       # sym  WBO
 ---------------------------------------------------------------------------
     1   8 O    1.968 --     2 C    1.023    18 H    0.861
     2   6 C    3.968 --     1 O    1.023    19 H    0.971     3 C    0.968
                            20 H    0.964
     3   6 C    3.942 --     4 C    0.972     2 C    0.968    15 O    0.959
                            21 H    0.959
     4   6 C    3.959 --    17 O    0.999     3 C    0.972    22 H    0.961
                             5 C    0.960
     5   6 C    3.967 --    16 O    1.037    23 H    0.961     4 C    0.960
                             6 C    0.928
     6   6 C    3.942 --    15 O    1.005     7 N    0.959    24 H    0.950
                             5 C    0.928
     7   7 N    3.667 --     8 C    1.276    14 N    1.190     6 C    0.959
     8   6 C    3.960 --     9 N    1.533     7 N    1.276    25 H    0.962
                            14 N    0.129
     9   7 N    3.047 --     8 C    1.533    10 C    1.309
    10   6 C    3.965 --    14 N    1.481     9 N    1.309    11 C    0.976
    11   6 C    3.959 --    13 O    1.697    12 N    1.250    10 C    0.976
    12   7 N    3.385 --    11 C    1.250    27 H    0.941    26 H    0.930
                            13 O    0.216
    13   8 O    2.032 --    11 C    1.697    12 N    0.216
    14   7 N    2.986 --    10 C    1.481     7 N    1.190     8 C    0.129
    15   8 O    2.111 --     6 C    1.005     3 C    0.959
    16   8 O    1.991 --     5 C    1.037    28 H    0.863
    17   8 O    1.975 --     4 C    0.999    29 H    0.887
    18   1 H    0.899 --     1 O    0.861
    19   1 H    0.997 --     2 C    0.971
    20   1 H    0.999 --     2 C    0.964
    21   1 H    0.995 --     3 C    0.959
    22   1 H    0.999 --     4 C    0.961
    23   1 H    0.997 --     5 C    0.961
    24   1 H    0.995 --     6 C    0.950
    25   1 H    0.996 --     8 C    0.962
    26   1 H    0.957 --    12 N    0.930
    27   1 H    0.960 --    12 N    0.941
    28   1 H    0.891 --    16 O    0.863
    29   1 H    0.906 --    17 O    0.887
 ---------------------------------------------------------------------------

Topologies differ in total number of bonds
Writing topology from bond orders to xtbtopo.mol

molecular dipole:
                 x           y           z       tot (Debye)
 q only:       -2.777       0.472      -0.429
   full:       -3.425       0.404      -0.615       8.905
molecular quadrupole (traceless):
                xx          xy          yy          xz          yz          zz
 q only:      -12.127       2.594       9.685      -4.355       5.865       2.443
  q+dip:      -15.373       1.545       9.190      -5.142       9.176       6.183
   full:      -15.649       2.148       8.865      -6.152       8.660       6.785

           -------------------------------------------------
          |                Geometry Summary                 |
           -------------------------------------------------

      molecular mass/u    :      244.2050136
   center of mass at/Å    :        0.4002584      -0.1314867      -0.1379711
  moments of inertia/u·Å² :        0.5654855E+03   0.1563806E+04   0.1957953E+04
rotational constants/cm⁻¹ :        0.2981090E-01   0.1077988E-01   0.8609824E-02

 * 26 selected distances

     #   Z          #   Z                                           value/Å
     1   8 O        2   6 C                                       1.3959972
     3   6 C        4   6 C                                       1.5325002 (max)
     6   6 C        7   7 N                                       1.4458650
     7   7 N        8   6 C                                       1.3509746
     8   6 C        9   7 N                                       1.3052684
     9   7 N       10   6 C                                       1.3519866
    11   6 C       12   7 N                                       1.3531888
    11   6 C       13   8 O                                       1.2089371
     7   7 N       14   7 N                                       1.3349598
    10   6 C       14   7 N                                       1.3218685
     3   6 C       15   8 O                                       1.4245644
     6   6 C       15   8 O                                       1.3937499
     5   6 C       16   8 O                                       1.3836827
     4   6 C       17   8 O                                       1.4071800
     1   8 O       18   1 H                                       0.9715278
     2   6 C       19   1 H                                       1.0921121
     2   6 C       20   1 H                                       1.0997243
     3   6 C       21   1 H                                       1.0946085
     4   6 C       22   1 H                                       1.0970403
     5   6 C       23   1 H                                       1.0950047
     6   6 C       24   1 H                                       1.0983042
     8   6 C       25   1 H                                       1.0698357
    12   7 N       26   1 H                                       1.0064664
    12   7 N       27   1 H                                       1.0062411
    16   8 O       28   1 H                                       0.9693550
    17   8 O       29   1 H                                       0.9621821 (min)

 * 7 distinct bonds (by element types)

   Z      Z             #   av. dist./Å        max./Å        min./Å
   1 H    6 C           7     1.0923757     1.0997243     1.0698357
   6 C    6 C           1     1.5325002     1.5325002     1.5325002
   1 H    7 N           2     1.0063538     1.0064664     1.0062411
   6 C    7 N           6     1.3548587     1.4458650     1.3052684
   7 N    7 N           1     1.3349598     1.3349598     1.3349598
   1 H    8 O           3     0.9676883     0.9715278     0.9621821
   6 C    8 O           6     1.3690185     1.4245644     1.2089371


optimized geometry written to: xtbopt.xyz


           -------------------------------------------------
          | TOTAL ENERGY              -55.283127857914 Eh   |
          | GRADIENT NORM               0.000596754966 Eh/α |
          | HOMO-LUMO GAP               3.471288260089 eV   |
           -------------------------------------------------

------------------------------------------------------------------------
 * finished run on 2025/05/15 at 16:17:35.036     
------------------------------------------------------------------------
 total:
 * wall-time:     0 d,  0 h,  0 min,  1.349 sec
 *  cpu-time:     0 d,  0 h,  0 min,  0.956 sec
 * ratio c/w:     0.708 speedup
 SCF:
 * wall-time:     0 d,  0 h,  0 min,  0.032 sec
 *  cpu-time:     0 d,  0 h,  0 min,  0.032 sec
 * ratio c/w:     0.993 speedup
 ANC optimizer:
 * wall-time:     0 d,  0 h,  0 min,  1.306 sec
 *  cpu-time:     0 d,  0 h,  0 min,  0.915 sec
 * ratio c/w:     0.700 speedup



----- Single-point -----
      -----------------------------------------------------------      
     |                   =====================                   |     
     |                           x T B                           |     
     |                   =====================                   |     
     |                         S. Grimme                         |     
     |          Mulliken Center for Theoretical Chemistry        |     
     |                    University of Bonn                     |     
      -----------------------------------------------------------      

   * xtb version 6.7.1 (edcfbbe) compiled by 'conda@3ef47c1a292c' on 2024-11-25

   xtb is free software: you can redistribute it and/or modify it under
   the terms of the GNU Lesser General Public License as published by
   the Free Software Foundation, either version 3 of the License, or
   (at your option) any later version.
   
   xtb is distributed in the hope that it will be useful,
   but WITHOUT ANY WARRANTY; without even the implied warranty of
   MERCHANTABILITY or FITNESS FOR A PARTICULAR PURPOSE.  See the
   GNU Lesser General Public License for more details.
   
   Cite this work as:
   * C. Bannwarth, E. Caldeweyher, S. Ehlert, A. Hansen, P. Pracht,
     J. Seibert, S. Spicher, S. Grimme, WIREs Comput. Mol. Sci., 2020, 11,
     e01493. DOI: 10.1002/wcms.1493
   
   for GFN2-xTB:
   * C. Bannwarth, S. Ehlert and S. Grimme., J. Chem. Theory Comput., 2019,
     15, 1652-1671. DOI: 10.1021/acs.jctc.8b01176
   for GFN1-xTB:
   * S. Grimme, C. Bannwarth, P. Shushkov, J. Chem. Theory Comput., 2017,
     13, 1989-2009. DOI: 10.1021/acs.jctc.7b00118
   for GFN0-xTB:
   * P. Pracht, E. Caldeweyher, S. Ehlert, S. Grimme, ChemRxiv, 2019, preprint.
     DOI: 10.26434/chemrxiv.8326202.v1
   for GFN-FF:
   * S. Spicher and S. Grimme, Angew. Chem. Int. Ed., 2020, 59, 15665-15673.
     DOI: 10.1002/anie.202004239
   
   for ALPB and GBSA implicit solvation:
   * S. Ehlert, M. Stahn, S. Spicher, S. Grimme, J. Chem. Theory Comput.,
     2021, 17, 4250-4261. DOI: 10.1021/acs.jctc.1c00471
   
   for ddCOSMO and CPCM-X implicit solvation:
   * M. Stahn, S. Ehlert, S. Grimme, J. Phys. Chem. A,
     2023, XX, XXXX-XXXX. DOI: 10.1021/acs.jpca.3c04382
   
   for DFT-D4:
   * E. Caldeweyher, C. Bannwarth and S. Grimme, J. Chem. Phys., 2017,
     147, 034112. DOI: 10.1063/1.4993215
[...]
     |          Mulliken Center for Theoretical Chemistry        |     
     |                    University of Bonn                     |     
      -----------------------------------------------------------      

   * xtb version 6.7.1 (edcfbbe) compiled by 'conda@3ef47c1a292c' on 2024-11-25

   xtb is free software: you can redistribute it and/or modify it under
   the terms of the GNU Lesser General Public License as published by
   the Free Software Foundation, either version 3 of the License, or
   (at your option) any later version.
   
   xtb is distributed in the hope that it will be useful,
   but WITHOUT ANY WARRANTY; without even the implied warranty of
   MERCHANTABILITY or FITNESS FOR A PARTICULAR PURPOSE.  See the
   GNU Lesser General Public License for more details.
   
   Cite this work as:
   * C. Bannwarth, E. Caldeweyher, S. Ehlert, A. Hansen, P. Pracht,
     J. Seibert, S. Spicher, S. Grimme, WIREs Comput. Mol. Sci., 2020, 11,
     e01493. DOI: 10.1002/wcms.1493
   
   for GFN2-xTB:
   * C. Bannwarth, S. Ehlert and S. Grimme., J. Chem. Theory Comput., 2019,
     15, 1652-1671. DOI: 10.1021/acs.jctc.8b01176
   for GFN1-xTB:
   * S. Grimme, C. Bannwarth, P. Shushkov, J. Chem. Theory Comput., 2017,
     13, 1989-2009. DOI: 10.1021/acs.jctc.7b00118
   for GFN0-xTB:
   * P. Pracht, E. Caldeweyher, S. Ehlert, S. Grimme, ChemRxiv, 2019, preprint.
     DOI: 10.26434/chemrxiv.8326202.v1
   for GFN-FF:
   * S. Spicher and S. Grimme, Angew. Chem. Int. Ed., 2020, 59, 15665-15673.
     DOI: 10.1002/anie.202004239
   
   for ALPB and GBSA implicit solvation:
   * S. Ehlert, M. Stahn, S. Spicher, S. Grimme, J. Chem. Theory Comput.,
     2021, 17, 4250-4261. DOI: 10.1021/acs.jctc.1c00471
   
   for ddCOSMO and CPCM-X implicit solvation:
   * M. Stahn, S. Ehlert, S. Grimme, J. Phys. Chem. A,
     2023, XX, XXXX-XXXX. DOI: 10.1021/acs.jpca.3c04382
   
   for DFT-D4:
   * E. Caldeweyher, C. Bannwarth and S. Grimme, J. Chem. Phys., 2017,
     147, 034112. DOI: 10.1063/1.4993215
   * E. Caldeweyher, S. Ehlert, A. Hansen, H. Neugebauer, S. Spicher,
     C. Bannwarth and S. Grimme, J. Chem. Phys., 2019, 150, 154122.
     DOI: 10.1063/1.5090222
   * E. Caldeweyher, J.-M. Mewes, S. Ehlert and S. Grimme, Phys. Chem. Chem. Phys.
     2020, 22, 8499-8512. DOI: 10.1039/D0CP00502A
   
   for sTDA-xTB:
   * S. Grimme and C. Bannwarth, J. Chem. Phys., 2016, 145, 054103.
     DOI: 10.1063/1.4959605
   
   in the mass-spec context:
   * V. Asgeirsson, C. Bauer and S. Grimme, Chem. Sci., 2017, 8, 4879.
     DOI: 10.1039/c7sc00601b
   * J. Koopman and S. Grimme, ACS Omega 2019, 4, 12, 15120-15133.
     DOI: 10.1021/acsomega.9b02011
   
   for metadynamics refer to:
   * S. Grimme, J. Chem. Theory Comput., 2019, 155, 2847-2862
     DOI: 10.1021/acs.jctc.9b00143
   
   for SPH calculations refer to:
   * S. Spicher and S. Grimme, J. Chem. Theory Comput., 2021, 17, 1701-1714
     DOI: 10.1021/acs.jctc.0c01306
   
   for ONIOM refer to:
   * C. Plett, A. Katbashev, S. Ehlert, S. Grimme, M. Bursch,
     Phys. Chem. Chem. Phys., 2023, 25, 17860-17868. DOI: 10.1039/D3CP02178E
   
   for DIPRO refer to:
   * J. Kohn, N. Gildemeister, S. Grimme, D. Fazzi, A. Hansen,
     J. Chem. Phys., 2023, just accepted.
   
   for PTB refer to:
   * S. Grimme, M. Mueller, A. Hansen, J. Chem. Phys., 2023, 158, 124111.
     DOI: 10.1063/5.0137838
   
   with help from (in alphabetical order)
   P. Atkinson, C. Bannwarth, F. Bohle, G. Brandenburg, E. Caldeweyher
   M. Checinski, S. Dohm, S. Ehlert, S. Ehrlich, I. Gerasimov, C. Hölzer
   A. Katbashev, J. Kohn, J. Koopman, C. Lavigne, S. Lehtola, F. März, M. Müller,
   F. Musil, H. Neugebauer, J. Pisarek, C. Plett, P. Pracht, F. Pultar,
   J. Seibert, P. Shushkov, S. Spicher, M. Stahn, M. Steiner, T. Strunk,
   J. Stückrath, T. Rose, and J. Unsleber
   
 * started run on 2025/05/15 at 16:17:36.430     
   ID    Z sym.   atoms
    1    8 O      1, 13, 15-17
    2    6 C      2-6, 8, 10, 11
    3    7 N      7, 9, 12, 14
    4    1 H      18-29

           -------------------------------------------------
          |                Calculation Setup                |
           -------------------------------------------------

          program call               : xtb /rds/general/user/hgt20/home/callum/QDESCP/Ribavirin_rdkit_conf_21/Ribavirin_rdkit_conf_21.xyz --acc 1 --gfn 2 --chrg 0 --uhf 2 --etemp 300 --input /rds/general/user/hgt20/home/callum/QDESCP/Ribavirin_rdkit_conf_21/Ribavirin_rdkit_conf_21_xtb.inp -P 1
          hostname                   : login-c
          coordinate file            : /rds/general/user/hgt20/home/callum/QDESCP/Ribavirin_rdkit_conf_21/Ribavirin_rdkit_conf_21.xyz
          omp threads                :                     1


           -------------------------------------------------
          |                 G F N 2 - x T B                 |
           -------------------------------------------------

        Reference                      10.1021/acs.jctc.8b01176
      * Hamiltonian:
        H0-scaling (s, p, d)           1.850000    2.230000    2.230000
        zeta-weighting                 0.500000
      * Dispersion:
        s8                             2.700000
        a1                             0.520000
        a2                             5.000000
        s9                             5.000000
      * Repulsion:
        kExp                           1.500000    1.000000
        rExp                           1.000000
      * Coulomb:
        alpha                          2.000000
        third order                    shell-resolved
        anisotropic                    true
        a3                             3.000000
        a5                             4.000000
        cn-shift                       1.200000
        cn-exp                         4.000000
        max-rad                        5.000000


          ...................................................
          :                      SETUP                      :
          :.................................................:
          :  # basis functions                  80          :
          :  # atomic orbitals                  80          :
          :  # shells                           46          :
          :  # electrons                        94          :
          :  max. iterations                   250          :
          :  Hamiltonian                  GFN2-xTB          :
          :  restarted?                      false          :
          :  GBSA solvation                  false          :
          :  PC potential                    false          :
          :  electronic temp.          300.0000000     K    :
          :  accuracy                    1.0000000          :
          :  -> integral cutoff          0.2500000E+02      :
          :  -> integral neglect         0.1000000E-07      :
          :  -> SCF convergence          0.1000000E-05 Eh   :
          :  -> wf. convergence          0.1000000E-03 e    :
          :  Broyden damping             0.4000000          :
          :  net charge                          0          :
          :  unpaired electrons                  2          :
          ...................................................

 iter      E             dE          RMSdq      gap      omega  full diag
   1    -55.3278728 -0.553279E+02  0.491E+00    1.05       0.0  T
   2    -55.4322733 -0.104400E+00  0.343E+00    1.14       1.0  T
   3    -55.3911022  0.411710E-01  0.298E+00    0.16       1.0  T
   4    -55.4948578 -0.103756E+00  0.218E+00    1.55       1.0  T
   5    -55.5727890 -0.779312E-01  0.159E+00    1.15       1.0  T
   6    -55.5921618 -0.193728E-01  0.129E+00    0.79       1.0  T
   7    -55.6051709 -0.130091E-01  0.108E+00    0.78       1.0  T
   8    -55.6159143 -0.107433E-01  0.902E-01    0.68       1.0  T
   9    -55.6362088 -0.202945E-01  0.427E-01    0.65       1.0  T
  10    -55.6378338 -0.162502E-02  0.314E-01    0.66       1.0  T
  11    -55.6396204 -0.178657E-02  0.181E-01    0.67       1.0  T
  12    -55.6404569 -0.836541E-03  0.493E-02    0.67       1.0  T
  13    -55.6401427  0.314194E-03  0.107E-01    0.66       1.0  T
  14    -55.6405359 -0.393131E-03  0.244E-02    0.66       1.0  T
  15    -55.6405538 -0.179444E-04  0.567E-03    0.66       3.3  T
  16    -55.6405457  0.811485E-05  0.150E-02    0.66       1.2  T
  17    -55.6405516 -0.585425E-05  0.865E-03    0.66       2.1  T
  18    -55.6405545 -0.290778E-05  0.435E-04    0.66      42.7  T
  19    -55.6405545  0.176033E-08  0.523E-04    0.66      35.5  T
  20    -55.6405545 -0.785116E-08  0.229E-04    0.66      80.9  T

   *** convergence criteria satisfied after 20 iterations ***

         #    Occupation            Energy/Eh            Energy/eV
      -------------------------------------------------------------
         1        2.0000           -0.7485113             -20.3680
       ...           ...                  ...                  ...
        42        2.0000           -0.4392639             -11.9530
        43        2.0000           -0.4272056             -11.6249
        44        2.0000           -0.4243945             -11.5484
        45        1.9955           -0.4169684             -11.3463
        46        1.8512           -0.4134926             -11.2517
        47        1.1533           -0.4102116             -11.1624
        48        1.0000           -0.2560213              -6.9667 (HOMO)
        49        0.0000           -0.2317707              -6.3068 (LUMO)
        50                         -0.1359465              -3.6993
        51                         -0.0428382              -1.1657
        52                         -0.0355533              -0.9675
        53                         -0.0231615              -0.6303
       ...                                ...                  ...
        80                          0.6884100              18.7326
      -------------------------------------------------------------
                  HL-Gap            0.0242507 Eh            0.6599 eV
             Fermi-level           -0.3278657 Eh           -8.9217 eV

 transition dipole moment (au) for excitation:          47          48
     X       Y       Z   
  -0.0081  -0.0262   0.0626  total (au/Debye):    0.068   0.174
 dE (eV)             :    4.196
 oscillator strength :  0.67871E-03

 SCC (total)                   0 d,  0 h,  0 min,  0.071 sec
 SCC setup                      ...        0 min,  0.000 sec (  0.317%)
 Dispersion                     ...        0 min,  0.000 sec (  0.326%)
 classical contributions        ...        0 min,  0.000 sec (  0.106%)
 integral evaluation            ...        0 min,  0.005 sec (  6.661%)
 iterations                     ...        0 min,  0.049 sec ( 69.037%)
 molecular gradient             ...        0 min,  0.012 sec ( 17.212%)
 printout                       ...        0 min,  0.004 sec (  6.331%)

         :::::::::::::::::::::::::::::::::::::::::::::::::::::
         ::                     SUMMARY                     ::
         :::::::::::::::::::::::::::::::::::::::::::::::::::::
         :: total energy             -55.140246987635 Eh    ::
         :: gradient norm              0.154498171345 Eh/a0 ::
         :: HOMO-LUMO gap              0.659894133597 eV    ::
         ::.................................................::
         :: SCC energy               -55.640261031516 Eh    ::
         :: -> isotropic ES            0.128376991253 Eh    ::
         :: -> anisotropic ES         -0.000905567540 Eh    ::
         :: -> anisotropic XC          0.004025869578 Eh    ::
         :: -> dispersion             -0.028744809809 Eh    ::
         :: repulsion energy           0.500014043881 Eh    ::
         :: add. restraining           0.000000000000 Eh    ::
         :: total charge               0.000000000000 e     ::
         :::::::::::::::::::::::::::::::::::::::::::::::::::::

           -------------------------------------------------
          |                Property Printout                |
           -------------------------------------------------

    * Orbital Energies and Occupations

         #    Occupation            Energy/Eh            Energy/eV
      -------------------------------------------------------------
         1        2.0000           -0.7485113             -20.3680
       ...           ...                  ...                  ...
        36        2.0000           -0.4891588             -13.3107
        37        2.0000           -0.4778544             -13.0031
        38        2.0000           -0.4693046             -12.7704
        39        2.0000           -0.4630689             -12.6007
        40        2.0000           -0.4497441             -12.2382
        41        2.0000           -0.4424432             -12.0395
        42        2.0000           -0.4392639             -11.9530
        43        2.0000           -0.4272056             -11.6249
        44        2.0000           -0.4243945             -11.5484
        45        1.9955           -0.4169684             -11.3463
        46        1.8512           -0.4134926             -11.2517
        47        1.1533           -0.4102116             -11.1624
        48        1.0000           -0.2560213              -6.9667 (HOMO)
        49        0.0000           -0.2317707              -6.3068 (LUMO)
        50                         -0.1359465              -3.6993
        51                         -0.0428382              -1.1657
        52                         -0.0355533              -0.9675
        53                         -0.0231615              -0.6303
        54                          0.0030489               0.0830
        55                          0.0129179               0.3515
        56                          0.0420653               1.1447
        57                          0.0505383               1.3752
        58                          0.0561489               1.5279
        59                          0.0756356               2.0581
       ...                                ...                  ...
        80                          0.6884100              18.7326
      -------------------------------------------------------------
                  HL-Gap            0.0242507 Eh            0.6599 eV
             Fermi-level           -0.3278657 Eh           -8.9217 eV

     #   Z          covCN         q      C6AA      α(0)
     1   8 O        1.655    -0.432    21.483     6.257
     2   6 C        3.674     0.065    19.722     6.364
     3   6 C        3.783     0.079    19.292     6.257
     4   6 C        3.736     0.093    19.123     6.240
     5   6 C        3.740     0.102    18.979     6.216
     6   6 C        3.717     0.154    18.211     6.096
     7   7 N        3.035     0.021    20.887     6.788
     8   6 C        3.143     0.087    25.833     8.316
     9   7 N        1.905    -0.185    25.810     7.532
    10   6 C        3.293     0.103    24.197     7.890
    11   6 C        2.746     0.241    22.966     7.847
    12   7 N        2.644    -0.270    26.987     7.715
    13   8 O        0.859    -0.334    20.407     6.057
    14   7 N        2.021    -0.271    27.809     7.822
    15   8 O        1.703    -0.298    18.951     5.877
    16   8 O        1.657    -0.425    21.336     6.236
    17   8 O        1.657    -0.435    21.548     6.266
    18   1 H        0.804     0.320     0.663     1.279
    19   1 H        0.924     0.054     2.274     2.358
    20   1 H        0.923     0.033     2.545     2.495
    21   1 H        0.924     0.064     2.149     2.293
    22   1 H        0.924     0.028     2.610     2.526
    23   1 H        0.924     0.052     2.295     2.369
    24   1 H        0.923     0.063     2.165     2.301
    25   1 H        0.927     0.058     2.225     2.333
    26   1 H        0.860     0.206     1.074     1.624
    27   1 H        0.860     0.194     1.137     1.670
    28   1 H        0.804     0.328     0.642     1.259
    29   1 H        0.805     0.305     0.705     1.319

 Mol. C6AA /au·bohr⁶  :       8931.704719
 Mol. C8AA /au·bohr⁸  :     198636.030483
 Mol. α(0) /au        :        139.602026


Wiberg/Mayer (AO) data.
largest (>0.10) Wiberg bond orders for each atom

 ---------------------------------------------------------------------------
     #   Z sym  total        # sym  WBO       # sym  WBO       # sym  WBO
 ---------------------------------------------------------------------------
     1   8 O    1.965 --     2 C    1.024    18 H    0.858
     2   6 C    3.963 --     1 O    1.024    19 H    0.971     3 C    0.964
                            20 H    0.961
     3   6 C    3.940 --     4 C    0.971     2 C    0.964    15 O    0.962
                            21 H    0.958
     4   6 C    3.958 --    17 O    0.999     3 C    0.971    22 H    0.961
                             5 C    0.960
     5   6 C    3.963 --    16 O    1.035    23 H    0.961     4 C    0.960
                             6 C    0.927
     6   6 C    3.943 --    15 O    1.000     7 N    0.967    24 H    0.949
                             5 C    0.927
     7   7 N    3.594 --     8 C    1.255    14 N    1.104     6 C    0.967
                             9 N    0.116
     8   6 C    3.949 --     9 N    1.514     7 N    1.255    25 H    0.961
     9   7 N    3.147 --     8 C    1.514    10 C    1.261     7 N    0.116
    10   6 C    3.840 --     9 N    1.261    14 N    1.253    11 C    1.057
    11   6 C    3.902 --    13 O    1.497    12 N    1.173    10 C    1.057
    12   7 N    3.289 --    11 C    1.173    27 H    0.941    26 H    0.932
                            13 O    0.121
    13   8 O    1.959 --    11 C    1.497    12 N    0.121
    14   7 N    2.819 --    10 C    1.253     7 N    1.104
    15   8 O    2.109 --     6 C    1.000     3 C    0.962
    16   8 O    1.989 --     5 C    1.035    28 H    0.864
    17   8 O    1.974 --     4 C    0.999    29 H    0.888
    18   1 H    0.897 --     1 O    0.858
    19   1 H    0.997 --     2 C    0.971
    20   1 H    0.997 --     2 C    0.961
    21   1 H    0.994 --     3 C    0.958
    22   1 H    0.999 --     4 C    0.961
    23   1 H    0.997 --     5 C    0.961
    24   1 H    0.993 --     6 C    0.949
    25   1 H    0.996 --     8 C    0.961
    26   1 H    0.957 --    12 N    0.932
    27   1 H    0.960 --    12 N    0.941
    28   1 H    0.892 --    16 O    0.864
    29   1 H    0.907 --    17 O    0.888
 ---------------------------------------------------------------------------

Topologies differ in total number of bonds
Writing topology from bond orders to xtbtopo.mol

molecular dipole:
                 x           y           z       tot (Debye)
 q only:       -2.359       0.467      -0.320
   full:       -2.844       0.370      -0.464       7.384
molecular quadrupole (traceless):
                xx          xy          yy          xz          yz          zz
 q only:       -8.188       1.853       7.613      -3.073       5.749       0.575
  q+dip:       -9.301       0.013       6.064      -3.281       8.848       3.237
   full:       -9.252       0.497       6.300      -3.885       8.473       2.952


           -------------------------------------------------
          | TOTAL ENERGY              -55.140246987635 Eh   |
          | GRADIENT NORM               0.154498171345 Eh/α |
          | HOMO-LUMO GAP               0.659894133597 eV   |
           -------------------------------------------------

------------------------------------------------------------------------
 * finished run on 2025/05/15 at 16:17:36.512     
------------------------------------------------------------------------
 total:
 * wall-time:     0 d,  0 h,  0 min,  0.082 sec
 *  cpu-time:     0 d,  0 h,  0 min,  0.054 sec
 * ratio c/w:     0.655 speedup
 SCF:
 * wall-time:     0 d,  0 h,  0 min,  0.071 sec
 *  cpu-time:     0 d,  0 h,  0 min,  0.045 sec
 * ratio c/w:     0.630 speedup


