62
 energy: -94.879990366044 gnorm: 0.000462762819 xtb: 6.7.1 (edcfbbe)
C           -7.01410382070534       -2.25471102341578       -1.30594834514413
C           -5.98959827262909       -2.79757089478421       -0.35270119122401
C           -4.72861981962147       -1.99770966834873       -0.24477425425826
C           -3.50335686915149       -2.58783680214710       -0.34879633056125
C           -3.31387030622920       -4.04697690823675       -0.61565857068489
C           -2.34106391398034       -1.76407137128633       -0.23348757494400
C           -1.01944819457031       -2.21478808638472       -0.33922020017931
N            0.02813027289740       -1.43655617438016       -0.21639491577255
C           -0.20720224772375       -0.13819931026625        0.02727869331164
N            0.81895965290290        0.72430905300983        0.17050129773710
C            2.19104482079947        0.53363527881661        0.09677138934030
N            2.88537696089905        1.64866615559161        0.29575483261624
C            4.20103515537838        1.61078495377858        0.23411720917404
C            4.94049626534327        0.45077191179362       -0.03408026177262
C            4.18725034973204       -0.71928567904894       -0.22465057893564
C            2.81199843282426       -0.68856580718386       -0.16093117298352
N            6.32123640462817        0.41647873521810       -0.04278747159126
C            7.08711310666716        1.56034273604726        0.40141816750494
C            8.44887816541645        1.08048527875924        0.91060347238744
N            9.13494438806069        0.37375710411617       -0.15297698953758
C            8.37179945931914       -0.79428032835219       -0.54729363116499
C            7.02188947978457       -0.31688824357629       -1.07826817939260
N           -1.41671912996848        0.41032337397808        0.14889750383936
C           -2.47940423384462       -0.37644988417497        0.02237098276647
N           -3.71476202089467        0.17957260912317        0.14305107279589
C           -3.80930767441530        1.61236455840268        0.42375879169764
C           -4.64029880506827        2.39778856924193       -0.61352215637778
C           -5.74684346444978        3.08977884202606        0.18629970596877
C           -5.14585691716014        3.24961739823919        1.57949553818995
C           -4.44134306159196        1.91389064820658        1.79274089660447
C           -4.88425264408865       -0.56645127395879        0.01785416469164
O           -5.96709985837629       -0.02236375039469        0.14552199685366
O           -6.15628463898842       -3.81691442046750        0.27630255817006
H           -7.39904940089721       -1.32273070399412       -0.89493935313105
H           -6.55568474358153       -2.03188055237874       -2.26718320711449
H           -7.82398543281279       -2.96902262562102       -1.42637879491154
H           -4.26387480224845       -4.56442632636801       -0.68553662262520
H           -2.74280038815350       -4.49635374832410        0.19538917278349
H           -2.75922509054382       -4.18965111518779       -1.54268036032064
H           -0.79619733787874       -3.25532065321457       -0.53078024102353
H            0.55225951818208        1.68285163529221        0.35949627664820
H            4.67991085128353        2.56610651840750        0.39428671614872
H            4.68233881909044       -1.66148500781874       -0.40466599350263
H            2.21882389626139       -1.57554961983574       -0.29860864426899
H            6.56397529385970        2.05304181347694        1.22102358808045
H            7.24461329435331        2.27935649110921       -0.41653485584191
H            8.28425366066988        0.44170324809386        1.79686355160257
H            9.04966402641619        1.94241226981499        1.20728904030120
H           10.06879659420181        0.10821193150665        0.14271734442161
H            8.20061750217971       -1.48921802917937        0.29399196815594
H            8.91249925829336       -1.32168085446363       -1.33567002220058
H            7.20574667430566        0.34186176008181       -1.94156232380975
H            6.42804367573493       -1.16621689185004       -1.41014604426575
H           -2.77637608078803        1.96209843766473        0.41019545290693
H           -4.00323314980978        3.13340137761443       -1.10599751493635
H           -5.05041273432605        1.74144688816989       -1.37819016207927
H           -6.61488174911419        2.43446957875969        0.24229742828142
H           -6.04556773660552        4.03820411110129       -0.25756462161001
H           -4.41942584528214        4.06462095593841        1.58760852970251
H           -5.89855918938938        3.44625684311766        2.34080881092140
H           -3.69316008324889        1.94311674913273        2.58405533320191
H           -5.17972632134448        1.15102793900921        2.03466909935501
