----- Optimization -----
      -----------------------------------------------------------      
     |                   =====================                   |     
     |                           x T B                           |     
     |                   =====================                   |     
     |                         S. Grimme                         |     
     |          Mulliken Center for Theoretical Chemistry        |     
     |                    University of Bonn                     |     
      -----------------------------------------------------------      

   * xtb version 6.7.1 (edcfbbe) compiled by 'conda@3ef47c1a292c' on 2024-11-25

   xtb is free software: you can redistribute it and/or modify it under
   the terms of the GNU Lesser General Public License as published by
   the Free Software Foundation, either version 3 of the License, or
   (at your option) any later version.
   
   xtb is distributed in the hope that it will be useful,
   but WITHOUT ANY WARRANTY; without even the implied warranty of
   MERCHANTABILITY or FITNESS FOR A PARTICULAR PURPOSE.  See the
   GNU Lesser General Public License for more details.
   
   Cite this work as:
   * C. Bannwarth, E. Caldeweyher, S. Ehlert, A. Hansen, P. Pracht,
     J. Seibert, S. Spicher, S. Grimme, WIREs Comput. Mol. Sci., 2020, 11,
     e01493. DOI: 10.1002/wcms.1493
   
   for GFN2-xTB:
   * C. Bannwarth, S. Ehlert and S. Grimme., J. Chem. Theory Comput., 2019,
     15, 1652-1671. DOI: 10.1021/acs.jctc.8b01176
   for GFN1-xTB:
   * S. Grimme, C. Bannwarth, P. Shushkov, J. Chem. Theory Comput., 2017,
     13, 1989-2009. DOI: 10.1021/acs.jctc.7b00118
   for GFN0-xTB:
   * P. Pracht, E. Caldeweyher, S. Ehlert, S. Grimme, ChemRxiv, 2019, preprint.
     DOI: 10.26434/chemrxiv.8326202.v1
   for GFN-FF:
   * S. Spicher and S. Grimme, Angew. Chem. Int. Ed., 2020, 59, 15665-15673.
     DOI: 10.1002/anie.202004239
   
   for ALPB and GBSA implicit solvation:
   * S. Ehlert, M. Stahn, S. Spicher, S. Grimme, J. Chem. Theory Comput.,
     2021, 17, 4250-4261. DOI: 10.1021/acs.jctc.1c00471
   
   for ddCOSMO and CPCM-X implicit solvation:
   * M. Stahn, S. Ehlert, S. Grimme, J. Phys. Chem. A,
     2023, XX, XXXX-XXXX. DOI: 10.1021/acs.jpca.3c04382
   
   for DFT-D4:
   * E. Caldeweyher, C. Bannwarth and S. Grimme, J. Chem. Phys., 2017,
     147, 034112. DOI: 10.1063/1.4993215
   * E. Caldeweyher, S. Ehlert, A. Hansen, H. Neugebauer, S. Spicher,
     C. Bannwarth and S. Grimme, J. Chem. Phys., 2019, 150, 154122.
     DOI: 10.1063/1.5090222
   * E. Caldeweyher, J.-M. Mewes, S. Ehlert and S. Grimme, Phys. Chem. Chem. Phys.
     2020, 22, 8499-8512. DOI: 10.1039/D0CP00502A
   
   for sTDA-xTB:
   * S. Grimme and C. Bannwarth, J. Chem. Phys., 2016, 145, 054103.
     DOI: 10.1063/1.4959605
   
   in the mass-spec context:
   * V. Asgeirsson, C. Bauer and S. Grimme, Chem. Sci., 2017, 8, 4879.
     DOI: 10.1039/c7sc00601b
   * J. Koopman and S. Grimme, ACS Omega 2019, 4, 12, 15120-15133.
     DOI: 10.1021/acsomega.9b02011
   
   for metadynamics refer to:
   * S. Grimme, J. Chem. Theory Comput., 2019, 155, 2847-2862
     DOI: 10.1021/acs.jctc.9b00143
   
   for SPH calculations refer to:
   * S. Spicher and S. Grimme, J. Chem. Theory Comput., 2021, 17, 1701-1714
     DOI: 10.1021/acs.jctc.0c01306
   
   for ONIOM refer to:
   * C. Plett, A. Katbashev, S. Ehlert, S. Grimme, M. Bursch,
     Phys. Chem. Chem. Phys., 2023, 25, 17860-17868. DOI: 10.1039/D3CP02178E
   
   for DIPRO refer to:
   * J. Kohn, N. Gildemeister, S. Grimme, D. Fazzi, A. Hansen,
     J. Chem. Phys., 2023, just accepted.
   
   for PTB refer to:
   * S. Grimme, M. Mueller, A. Hansen, J. Chem. Phys., 2023, 158, 124111.
     DOI: 10.1063/5.0137838
   
   with help from (in alphabetical order)
   P. Atkinson, C. Bannwarth, F. Bohle, G. Brandenburg, E. Caldeweyher
   M. Checinski, S. Dohm, S. Ehlert, S. Ehrlich, I. Gerasimov, C. Hölzer
   A. Katbashev, J. Kohn, J. Koopman, C. Lavigne, S. Lehtola, F. März, M. Müller,
   F. Musil, H. Neugebauer, J. Pisarek, C. Plett, P. Pracht, F. Pultar,
   J. Seibert, P. Shushkov, S. Spicher, M. Stahn, M. Steiner, T. Strunk,
   J. Stückrath, T. Rose, and J. Unsleber
   
 * started run on 2025/05/15 at 16:21:20.845     
   ID    Z sym.   atoms
    1    6 C      1-7, 9, 11, 13-16, 18, 19, 21, 22, 24, 26-31
    2    7 N      8, 10, 12, 17, 20, 23, 25
    3    8 O      32, 33
    4    1 H      34-62

           -------------------------------------------------
          |                Calculation Setup                |
           -------------------------------------------------

          program call               : xtb /rds/general/user/hgt20/home/callum/QDESCP/Palbociclib_rdkit_conf_1/Palbociclib_rdkit_conf_1.xyz --opt normal --acc 1 --gfn 2 --chrg 0 --uhf 0 -P 1
          hostname                   : login-c
          coordinate file            : /rds/general/user/hgt20/home/callum/QDESCP/Palbociclib_rdkit_conf_1/Palbociclib_rdkit_conf_1.xyz
          omp threads                :                     1


           -------------------------------------------------
          |                 G F N 2 - x T B                 |
           -------------------------------------------------

        Reference                      10.1021/acs.jctc.8b01176
      * Hamiltonian:
        H0-scaling (s, p, d)           1.850000    2.230000    2.230000
        zeta-weighting                 0.500000
      * Dispersion:
        s8                             2.700000
        a1                             0.520000
        a2                             5.000000
        s9                             5.000000
      * Repulsion:
        kExp                           1.500000    1.000000
        rExp                           1.000000
      * Coulomb:
        alpha                          2.000000
        third order                    shell-resolved
        anisotropic                    true
        a3                             3.000000
        a5                             4.000000
        cn-shift                       1.200000
        cn-exp                         4.000000
        max-rad                        5.000000


          ...................................................
          :                      SETUP                      :
          :.................................................:
          :  # basis functions                 161          :
          :  # atomic orbitals                 161          :
          :  # shells                           95          :
          :  # electrons                       172          :
          :  max. iterations                   250          :
          :  Hamiltonian                  GFN2-xTB          :
          :  restarted?                      false          :
          :  GBSA solvation                  false          :
          :  PC potential                    false          :
          :  electronic temp.          300.0000000     K    :
          :  accuracy                    1.0000000          :
          :  -> integral cutoff          0.2500000E+02      :
          :  -> integral neglect         0.1000000E-07      :
          :  -> SCF convergence          0.1000000E-05 Eh   :
          :  -> wf. convergence          0.1000000E-03 e    :
          :  Broyden damping             0.4000000          :
          :  net charge                          0          :
          :  unpaired electrons                  0          :
          ...................................................

 iter      E             dE          RMSdq      gap      omega  full diag
   1    -95.9187745 -0.959188E+02  0.394E+00    1.86       0.0  T
   2    -96.0673738 -0.148599E+00  0.234E+00    1.92       1.0  T
   3    -96.0740080 -0.663417E-02  0.125E+00    1.80       1.0  T
   4    -96.0836663 -0.965830E-02  0.341E-01    1.58       1.0  T
   5    -96.0885395 -0.487320E-02  0.139E-01    1.66       1.0  T
   6    -96.0893095 -0.770021E-03  0.531E-02    1.65       1.0  T
   7    -96.0893792 -0.696894E-04  0.206E-02    1.66       1.0  T
   8    -96.0893827 -0.347620E-05  0.862E-03    1.67       1.5  T
   9    -96.0893835 -0.850140E-06  0.324E-03    1.67       3.9  T
  10    -96.0893838 -0.207339E-06  0.121E-03    1.67      10.5  T
  11    -96.0893838 -0.270784E-07  0.631E-04    1.67      20.1  T
  12    -96.0893838 -0.684683E-08  0.255E-04    1.67      49.8  T

   *** convergence criteria satisfied after 12 iterations ***

         #    Occupation            Energy/Eh            Energy/eV
      -------------------------------------------------------------
         1        2.0000           -0.7010157             -19.0756
       ...           ...                  ...                  ...
        80        2.0000           -0.4021630             -10.9434
        81        2.0000           -0.3956263             -10.7655
        82        2.0000           -0.3897559             -10.6058
        83        2.0000           -0.3789148             -10.3108
        84        2.0000           -0.3764774             -10.2445
        85        2.0000           -0.3690700             -10.0429
        86        2.0000           -0.3549717              -9.6593 (HOMO)
        87                         -0.2937369              -7.9930 (LUMO)
        88                         -0.2712379              -7.3808
        89                         -0.2527017              -6.8764
        90                         -0.2439026              -6.6369
        91                         -0.2351114              -6.3977
       ...                                ...                  ...
       161                          0.6844336              18.6244
      -------------------------------------------------------------
                  HL-Gap            0.0612348 Eh            1.6663 eV
             Fermi-level           -0.3243543 Eh           -8.8261 eV

 SCC (total)                   0 d,  0 h,  0 min,  0.198 sec
 SCC setup                      ...        0 min,  0.001 sec (  0.341%)
 Dispersion                     ...        0 min,  0.001 sec (  0.494%)
 classical contributions        ...        0 min,  0.000 sec (  0.153%)
 integral evaluation            ...        0 min,  0.013 sec (  6.548%)
 iterations                     ...        0 min,  0.086 sec ( 43.297%)
 molecular gradient             ...        0 min,  0.052 sec ( 26.207%)
 printout                       ...        0 min,  0.045 sec ( 22.957%)

         :::::::::::::::::::::::::::::::::::::::::::::::::::::
         ::                     SUMMARY                     ::
         :::::::::::::::::::::::::::::::::::::::::::::::::::::
         :: total energy             -94.851502736213 Eh    ::
         :: gradient norm              0.127048539599 Eh/a0 ::
         :: HOMO-LUMO gap              1.666284415021 eV    ::
         ::.................................................::
         :: SCC energy               -96.089739789878 Eh    ::
         :: -> isotropic ES            0.111055487210 Eh    ::
         :: -> anisotropic ES          0.010141084057 Eh    ::
         :: -> anisotropic XC          0.056602041261 Eh    ::
         :: -> dispersion             -0.068908682900 Eh    ::
         :: repulsion energy           1.238237053664 Eh    ::
         :: add. restraining           0.000000000000 Eh    ::
         :: total charge              -0.000000000000 e     ::
         :::::::::::::::::::::::::::::::::::::::::::::::::::::

      ----------------------------------------------------------- 
     |                   =====================                   |
     |                        A N C O P T                        |
     |                   =====================                   |
     |               Approximate Normal Coordinate               |
     |                Rational Function Optimizer                |
      ----------------------------------------------------------- 
      ----------------------------------------------------------- 
     |                   =====================                   |
     |                        A N C O P T                        |
     |                   =====================                   |
     |               Approximate Normal Coordinate               |
     |                Rational Function Optimizer                |
      ----------------------------------------------------------- 

          ...................................................
          :                      SETUP                      :
          :.................................................:
          :   optimization level            normal          :
          :   max. optcycles                   200          :
          :   ANC micro-cycles                  20          :
          :   degrees of freedom               180          :
          :.................................................:
          :   RF solver                   davidson          :
          :   write xtbopt.log                true          :
          :   linear?                        false          :
          :   energy convergence         0.5000000E-05 Eh   :
          :   grad. convergence          0.1000000E-02 Eh/α :
          :   maxmium RF displ.          1.0000000          :
          :   Hlow (freq-cutoff)         0.1000000E-01      :
          :   Hmax (freq-cutoff)         5.0000000          :
          :   S6 in model hess.         20.0000000          :
          ...................................................

generating ANC from exact Hessian ...
Using Lindh-Hessian (1995)
 Shifting diagonal of input Hessian by    9.8467958346187198E-003
 Lowest  eigenvalues of input Hessian
    0.000000    0.000000    0.000000    0.000000    0.000000    0.000000
    0.010000    0.010179    0.010265    0.010428    0.010738    0.011025
    0.011120    0.011786    0.012015    0.012307    0.012851    0.013792
 Highest eigenvalues
    2.046957    2.063084    2.120035    2.224988    2.258349    2.300877


........................................................................
.............................. CYCLE    1 ..............................
........................................................................

 iter      E             dE          RMSdq      gap      omega  full diag
   1    -96.0893838 -0.960894E+02  0.823E-05    1.67       0.0  T
   2    -96.0893838 -0.114213E-09  0.542E-05    1.67     234.4  T
   3    -96.0893838 -0.895426E-10  0.312E-05    1.67     407.3  T
     SCC iter.                  ...        0 min,  0.064 sec
     gradient                   ...        0 min,  0.051 sec
 * total energy  :   -94.8515027 Eh     change       -0.1101199E-08 Eh
   gradient norm :     0.1270496 Eh/α   predicted     0.0000000E+00 (-100.00%)
   displ. norm   :     0.4022435 α      lambda       -0.2228515E-01
   maximum displ.:     0.1331091 α      in ANC's #13, #35, #37, ...

........................................................................
.............................. CYCLE    2 ..............................
........................................................................

 iter      E             dE          RMSdq      gap      omega  full diag
   1    -96.1320785 -0.961321E+02  0.187E-01    1.67       0.0  T
   2    -96.1323328 -0.254259E-03  0.114E-01    1.74       1.0  T
   3    -96.1323287  0.405346E-05  0.612E-02    1.73       1.0  T
   4    -96.1323953 -0.665370E-04  0.166E-02    1.74       1.0  T
   5    -96.1324091 -0.138194E-04  0.540E-03    1.74       2.4  T
   6    -96.1324101 -0.106599E-05  0.250E-03    1.74       5.1  T
   7    -96.1324102 -0.779949E-07  0.102E-03    1.74      12.5  T
   8    -96.1324102 -0.219858E-07  0.296E-04    1.74      42.9  T
   9    -96.1324102 -0.155535E-08  0.146E-04    1.74      87.3  T
     SCC iter.                  ...        0 min,  0.038 sec
     gradient                   ...        0 min,  0.096 sec
 * total energy  :   -94.8673424 Eh     change       -0.1583962E-01 Eh
   gradient norm :     0.0572276 Eh/α   predicted    -0.1298022E-01 ( -18.05%)
   displ. norm   :     0.4557781 α      lambda       -0.9412484E-02
   maximum displ.:     0.2390952 α      in ANC's #13, #20, #23, ...

........................................................................
.............................. CYCLE    3 ..............................
........................................................................

 iter      E             dE          RMSdq      gap      omega  full diag
   1    -96.1619300 -0.961619E+02  0.134E-01    1.69       0.0  T
   2    -96.1621045 -0.174541E-03  0.807E-02    1.76       1.0  T
   3    -96.1621330 -0.284978E-04  0.481E-02    1.75       1.0  T
   4    -96.1621596 -0.265285E-04  0.145E-02    1.76       1.0  T
   5    -96.1621707 -0.111076E-04  0.407E-03    1.76       3.1  T
   6    -96.1621714 -0.746272E-06  0.169E-03    1.76       7.5  T
   7    -96.1621715 -0.318518E-07  0.670E-04    1.76      19.0  T
   8    -96.1621715 -0.724148E-08  0.205E-04    1.76      61.9  T
     SCC iter.                  ...        0 min,  0.034 sec
     gradient                   ...        0 min,  0.091 sec
 * total energy  :   -94.8734410 Eh     change       -0.6098615E-02 Eh
   gradient norm :     0.0196643 Eh/α   predicted    -0.5683889E-02 (  -6.80%)
   displ. norm   :     0.4188508 α      lambda       -0.3013188E-02
   maximum displ.:     0.2715455 α      in ANC's #13, #9, #23, ...

........................................................................
.............................. CYCLE    4 ..............................
........................................................................

 iter      E             dE          RMSdq      gap      omega  full diag
   1    -96.1729959 -0.961730E+02  0.742E-02    1.72       0.0  T
   2    -96.1730308 -0.348197E-04  0.439E-02    1.75       1.0  T
   3    -96.1730265  0.421775E-05  0.265E-02    1.75       1.0  T
   4    -96.1730410 -0.144689E-04  0.710E-03    1.75       1.8  T
   5    -96.1730438 -0.281276E-05  0.196E-03    1.75       6.5  T
   6    -96.1730440 -0.142024E-06  0.871E-04    1.75      14.6  T
   7    -96.1730440 -0.647982E-08  0.265E-04    1.75      47.9  T
     SCC iter.                  ...        0 min,  0.077 sec
     gradient                   ...        0 min,  0.096 sec
 * total energy  :   -94.8757010 Eh     change       -0.2260015E-02 Eh
   gradient norm :     0.0166174 Eh/α   predicted    -0.1770971E-02 ( -21.64%)
   displ. norm   :     0.4719243 α      lambda       -0.2077665E-02
   maximum displ.:     0.3102025 α      in ANC's #13, #9, #11, ...

........................................................................
.............................. CYCLE    5 ..............................
........................................................................

 iter      E             dE          RMSdq      gap      omega  full diag
   1    -96.1795913 -0.961796E+02  0.780E-02    1.72       0.0  T
   2    -96.1796147 -0.233722E-04  0.461E-02    1.73       1.0  T
   3    -96.1796060  0.869406E-05  0.205E-02    1.73       1.0  T
   4    -96.1796183 -0.123117E-04  0.521E-03    1.73       2.4  T
   5    -96.1796197 -0.137808E-05  0.188E-03    1.73       6.8  T
   6    -96.1796198 -0.941165E-07  0.904E-04    1.73      14.0  T
   7    -96.1796198 -0.824140E-08  0.268E-04    1.73      47.3  T
     SCC iter.                  ...        0 min,  0.075 sec
     gradient                   ...        0 min,  0.051 sec
 * total energy  :   -94.8771492 Eh     change       -0.1448222E-02 Eh
   gradient norm :     0.0114211 Eh/α   predicted    -0.1270197E-02 ( -12.29%)
   displ. norm   :     0.3523491 α      lambda       -0.8236264E-03
   maximum displ.:     0.2141110 α      in ANC's #13, #9, #8, ...

........................................................................
.............................. CYCLE    6 ..............................
........................................................................

 iter      E             dE          RMSdq      gap      omega  full diag
   1    -96.1831186 -0.961831E+02  0.590E-02    1.71       0.0  T
   2    -96.1831262 -0.763566E-05  0.345E-02    1.71       1.0  T
   3    -96.1831220  0.416463E-05  0.119E-02    1.71       1.1  T
   4    -96.1831277 -0.564452E-05  0.239E-03    1.71       5.3  T
   5    -96.1831279 -0.200418E-06  0.102E-03    1.71      12.4  T
   6    -96.1831279 -0.739460E-08  0.564E-04    1.71      22.5  T
   7    -96.1831279 -0.864893E-08  0.196E-04    1.71      64.9  T
     SCC iter.                  ...        0 min,  0.030 sec
     gradient                   ...        0 min,  0.091 sec
 * total energy  :   -94.8777204 Eh     change       -0.5712053E-03 Eh
   gradient norm :     0.0081898 Eh/α   predicted    -0.4629403E-03 ( -18.95%)
   displ. norm   :     0.2850640 α      lambda       -0.4370672E-03
   maximum displ.:     0.1618235 α      in ANC's #9, #13, #8, ...

........................................................................
.............................. CYCLE    7 ..............................
........................................................................

 iter      E             dE          RMSdq      gap      omega  full diag
   1    -96.1851449 -0.961851E+02  0.518E-02    1.71       0.0  T
   2    -96.1851482 -0.334532E-05  0.303E-02    1.71       1.0  T
   3    -96.1851447  0.352322E-05  0.912E-03    1.70       1.4  T
   4    -96.1851492 -0.448521E-05  0.161E-03    1.71       7.9  T
   5    -96.1851492 -0.718574E-07  0.782E-04    1.71      16.2  T
   6    -96.1851492 -0.427656E-08  0.362E-04    1.71      35.0  T
     SCC iter.                  ...        0 min,  0.059 sec
     gradient                   ...        0 min,  0.049 sec
 * total energy  :   -94.8780474 Eh     change       -0.3269826E-03 Eh
   gradient norm :     0.0070302 Eh/α   predicted    -0.2362925E-03 ( -27.74%)
   displ. norm   :     0.3091884 α      lambda       -0.4144623E-03
   maximum displ.:     0.1775910 α      in ANC's #9, #8, #13, ...

........................................................................
.............................. CYCLE    8 ..............................
........................................................................

 iter      E             dE          RMSdq      gap      omega  full diag
   1    -96.1862411 -0.961862E+02  0.652E-02    1.70       0.0  T
   2    -96.1862451 -0.399498E-05  0.382E-02    1.70       1.0  T
   3    -96.1862391  0.597460E-05  0.112E-02    1.70       1.1  T
   4    -96.1862465 -0.732895E-05  0.207E-03    1.70       6.1  T
   5    -96.1862466 -0.125547E-06  0.104E-03    1.70      12.2  T
   6    -96.1862466 -0.108614E-07  0.579E-04    1.70      21.9  T
   7    -96.1862466 -0.935655E-08  0.193E-04    1.70      65.8  T
     SCC iter.                  ...        0 min,  0.085 sec
     gradient                   ...        0 min,  0.052 sec
 * total energy  :   -94.8783661 Eh     change       -0.3187273E-03 Eh
   gradient norm :     0.0073638 Eh/α   predicted    -0.2270430E-03 ( -28.77%)
   displ. norm   :     0.3743440 α      lambda       -0.4350879E-03
   maximum displ.:     0.2001749 α      in ANC's #9, #8, #5, ...

........................................................................
.............................. CYCLE    9 ..............................
........................................................................

 iter      E             dE          RMSdq      gap      omega  full diag
   1    -96.1860027 -0.961860E+02  0.832E-02    1.69       0.0  T
   2    -96.1860092 -0.650046E-05  0.487E-02    1.70       1.0  T
   3    -96.1859974  0.118079E-04  0.162E-02    1.70       1.0  T
   4    -96.1860117 -0.142919E-04  0.299E-03    1.70       4.3  T
   5    -96.1860120 -0.281685E-06  0.146E-03    1.70       8.7  T
   6    -96.1860120 -0.337301E-07  0.768E-04    1.70      16.5  T
   7    -96.1860120 -0.135323E-07  0.252E-04    1.70      50.4  T
     SCC iter.                  ...        0 min,  0.032 sec
     gradient                   ...        0 min,  0.086 sec
 * total energy  :   -94.8786942 Eh     change       -0.3280231E-03 Eh
   gradient norm :     0.0084665 Eh/α   predicted    -0.2480323E-03 ( -24.39%)
   displ. norm   :     0.3730690 α      lambda       -0.3966055E-03
   maximum displ.:     0.1731828 α      in ANC's #9, #5, #4, ...

........................................................................
.............................. CYCLE   10 ..............................
........................................................................

 iter      E             dE          RMSdq      gap      omega  full diag
   1    -96.1855412 -0.961855E+02  0.846E-02    1.69       0.0  T
   2    -96.1855489 -0.767929E-05  0.492E-02    1.70       1.0  T
   3    -96.1855334  0.154968E-04  0.194E-02    1.70       1.0  T
   4    -96.1855521 -0.186745E-04  0.335E-03    1.70       3.8  T
   5    -96.1855525 -0.400936E-06  0.156E-03    1.70       8.2  T
   6    -96.1855525 -0.499192E-07  0.765E-04    1.70      16.6  T
   7    -96.1855526 -0.112790E-07  0.258E-04    1.70      49.1  T
     SCC iter.                  ...        0 min,  0.077 sec
     gradient                   ...        0 min,  0.091 sec
 * total energy  :   -94.8789885 Eh     change       -0.2943061E-03 Eh
   gradient norm :     0.0079849 Eh/α   predicted    -0.2259063E-03 ( -23.24%)
   displ. norm   :     0.3472135 α      lambda       -0.3209015E-03
   maximum displ.:     0.1339319 α      in ANC's #5, #9, #2, ...

........................................................................
.............................. CYCLE   11 ..............................
........................................................................

 iter      E             dE          RMSdq      gap      omega  full diag
   1    -96.1852171 -0.961852E+02  0.708E-02    1.68       0.0  T
   2    -96.1852240 -0.682233E-05  0.408E-02    1.70       1.0  T
   3    -96.1852129  0.110929E-04  0.177E-02    1.70       1.0  T
   4    -96.1852267 -0.137816E-04  0.311E-03    1.70       4.1  T
   5    -96.1852270 -0.374615E-06  0.140E-03    1.70       9.1  T
   6    -96.1852271 -0.390903E-07  0.708E-04    1.70      17.9  T
   7    -96.1852271 -0.832330E-08  0.197E-04    1.70      64.6  T
     SCC iter.                  ...        0 min,  0.031 sec
     gradient                   ...        0 min,  0.097 sec
 * total energy  :   -94.8792159 Eh     change       -0.2274092E-03 Eh
   gradient norm :     0.0068142 Eh/α   predicted    -0.1797974E-03 ( -20.94%)
   displ. norm   :     0.2780446 α      lambda       -0.2355714E-03
   maximum displ.:     0.1286942 α      in ANC's #5, #2, #4, ...

........................................................................
.............................. CYCLE   12 ..............................
........................................................................

 iter      E             dE          RMSdq      gap      omega  full diag
   1    -96.1862714 -0.961863E+02  0.559E-02    1.68       0.0  T
   2    -96.1862771 -0.578675E-05  0.321E-02    1.69       1.0  T
   3    -96.1862694  0.773172E-05  0.152E-02    1.69       1.0  T
   4    -96.1862791 -0.969184E-05  0.284E-03    1.69       4.5  T
   5    -96.1862794 -0.340448E-06  0.121E-03    1.69      10.5  T
   6    -96.1862795 -0.363855E-07  0.563E-04    1.69      22.6  T
   7    -96.1862795 -0.499034E-08  0.184E-04    1.69      69.2  T
     SCC iter.                  ...        0 min,  0.030 sec
     gradient                   ...        0 min,  0.101 sec
 * total energy  :   -94.8793495 Eh     change       -0.1335990E-03 Eh
   gradient norm :     0.0053282 Eh/α   predicted    -0.1268948E-03 (  -5.02%)
   displ. norm   :     0.2794157 α      lambda       -0.1644598E-03
   maximum displ.:     0.1262642 α      in ANC's #5, #2, #10, ...

........................................................................
.............................. CYCLE   13 ..............................
........................................................................

 iter      E             dE          RMSdq      gap      omega  full diag
   1    -96.1841304 -0.961841E+02  0.468E-02    1.67       0.0  T
   2    -96.1841343 -0.393042E-05  0.273E-02    1.68       1.0  T
   3    -96.1841305  0.381686E-05  0.112E-02    1.68       1.1  T
   4    -96.1841355 -0.505969E-05  0.216E-03    1.68       5.9  T
   5    -96.1841357 -0.150707E-06  0.104E-03    1.68      12.2  T
   6    -96.1841357 -0.141391E-07  0.572E-04    1.68      22.2  T
   7    -96.1841357 -0.809595E-08  0.126E-04    1.68     100.5  T
     SCC iter.                  ...        0 min,  0.076 sec
     gradient                   ...        0 min,  0.098 sec
 * total energy  :   -94.8794159 Eh     change       -0.6648148E-04 Eh
   gradient norm :     0.0067462 Eh/α   predicted    -0.8865540E-04 (  33.35%)
   displ. norm   :     0.0810716 α      lambda       -0.1074915E-03
   maximum displ.:     0.0489696 α      in ANC's #9, #8, #5, ...

........................................................................
.............................. CYCLE   14 ..............................
........................................................................

 iter      E             dE          RMSdq      gap      omega  full diag
   1    -96.1875466 -0.961875E+02  0.225E-02    1.68       0.0  T
   2    -96.1875486 -0.198474E-05  0.132E-02    1.68       1.0  T
   3    -96.1875476  0.978492E-06  0.578E-03    1.68       2.2  T
   4    -96.1875488 -0.112553E-05  0.191E-03    1.68       6.7  T
   5    -96.1875489 -0.191996E-06  0.441E-04    1.68      28.8  T
   6    -96.1875490 -0.282752E-08  0.244E-04    1.68      52.0  T
     SCC iter.                  ...        0 min,  0.062 sec
     gradient                   ...        0 min,  0.103 sec
 * total energy  :   -94.8794786 Eh     change       -0.6269870E-04 Eh
   gradient norm :     0.0062264 Eh/α   predicted    -0.5410131E-04 ( -13.71%)
   displ. norm   :     0.1258578 α      lambda       -0.9514316E-04
   maximum displ.:     0.0714965 α      in ANC's #5, #2, #4, ...

........................................................................
.............................. CYCLE   15 ..............................
........................................................................

 iter      E             dE          RMSdq      gap      omega  full diag
   1    -96.1872569 -0.961873E+02  0.188E-02    1.67       0.0  T
   2    -96.1872580 -0.111980E-05  0.112E-02    1.67       1.1  T
   3    -96.1872573  0.670796E-06  0.415E-03    1.67       3.1  T
   4    -96.1872582 -0.853131E-06  0.101E-03    1.68      12.6  T
   5    -96.1872582 -0.408083E-07  0.444E-04    1.67      28.6  T
   6    -96.1872582 -0.743307E-08  0.209E-04    1.67      60.8  T
     SCC iter.                  ...        0 min,  0.026 sec
     gradient                   ...        0 min,  0.078 sec
 * total energy  :   -94.8795383 Eh     change       -0.5966075E-04 Eh
   gradient norm :     0.0033203 Eh/α   predicted    -0.4832678E-04 ( -19.00%)
   displ. norm   :     0.1880604 α      lambda       -0.7376265E-04
   maximum displ.:     0.0966067 α      in ANC's #5, #2, #14, ...

........................................................................
.............................. CYCLE   16 ..............................
........................................................................

 iter      E             dE          RMSdq      gap      omega  full diag
   1    -96.1867773 -0.961868E+02  0.262E-02    1.68       0.0  T
   2    -96.1867780 -0.732730E-06  0.154E-02    1.68       1.0  T
   3    -96.1867760  0.202160E-05  0.647E-03    1.68       2.0  T
   4    -96.1867784 -0.242153E-05  0.102E-03    1.68      12.4  T
   5    -96.1867784 -0.307928E-07  0.539E-04    1.68      23.6  T
   6    -96.1867785 -0.601516E-08  0.231E-04    1.68      54.9  T
     SCC iter.                  ...        0 min,  0.066 sec
     gradient                   ...        0 min,  0.103 sec
 * total energy  :   -94.8795958 Eh     change       -0.5745951E-04 Eh
   gradient norm :     0.0036789 Eh/α   predicted    -0.3818639E-04 ( -33.54%)
   displ. norm   :     0.2689729 α      lambda       -0.8949426E-04
   maximum displ.:     0.1333084 α      in ANC's #5, #2, #14, ...

........................................................................
.............................. CYCLE   17 ..............................
........................................................................

 iter      E             dE          RMSdq      gap      omega  full diag
   1    -96.1857098 -0.961857E+02  0.391E-02    1.68       0.0  T
   2    -96.1857116 -0.177991E-05  0.227E-02    1.68       1.0  T
   3    -96.1857081  0.353431E-05  0.913E-03    1.68       1.4  T
   4    -96.1857124 -0.430682E-05  0.157E-03    1.69       8.1  T
   5    -96.1857125 -0.872343E-07  0.799E-04    1.69      15.9  T
   6    -96.1857125 -0.137461E-07  0.353E-04    1.69      36.0  T
     SCC iter.                  ...        0 min,  0.027 sec
     gradient                   ...        0 min,  0.093 sec
 * total energy  :   -94.8796562 Eh     change       -0.6044852E-04 Eh
   gradient norm :     0.0038054 Eh/α   predicted    -0.4798679E-04 ( -20.62%)
   displ. norm   :     0.1659340 α      lambda       -0.5318742E-04
   maximum displ.:     0.0834785 α      in ANC's #2, #5, #6, ...

........................................................................
.............................. CYCLE   18 ..............................
........................................................................

 iter      E             dE          RMSdq      gap      omega  full diag
   1    -96.1860066 -0.961860E+02  0.297E-02    1.69       0.0  T
   2    -96.1860077 -0.102919E-05  0.172E-02    1.69       1.0  T
   3    -96.1860059  0.179435E-05  0.655E-03    1.69       1.9  T
   4    -96.1860080 -0.212165E-05  0.129E-03    1.69       9.8  T
   5    -96.1860081 -0.734381E-07  0.545E-04    1.69      23.3  T
   6    -96.1860081 -0.548764E-08  0.274E-04    1.69      46.3  T
     SCC iter.                  ...        0 min,  0.060 sec
     gradient                   ...        0 min,  0.092 sec
 * total energy  :   -94.8796977 Eh     change       -0.4151928E-04 Eh
   gradient norm :     0.0032955 Eh/α   predicted    -0.2732657E-04 ( -34.18%)
   displ. norm   :     0.2157969 α      lambda       -0.7104827E-04
   maximum displ.:     0.1089979 α      in ANC's #2, #6, #5, ...

........................................................................
.............................. CYCLE   19 ..............................
........................................................................

 iter      E             dE          RMSdq      gap      omega  full diag
   1    -96.1865645 -0.961866E+02  0.424E-02    1.69       0.0  T
   2    -96.1865663 -0.178816E-05  0.246E-02    1.70       1.0  T
   3    -96.1865628  0.348498E-05  0.899E-03    1.69       1.4  T
   4    -96.1865669 -0.406867E-05  0.173E-03    1.70       7.3  T
   5    -96.1865670 -0.129735E-06  0.732E-04    1.70      17.3  T
   6    -96.1865670 -0.895839E-08  0.381E-04    1.70      33.4  T
     SCC iter.                  ...        0 min,  0.026 sec
     gradient                   ...        0 min,  0.085 sec
 * total energy  :   -94.8797510 Eh     change       -0.5324438E-04 Eh
   gradient norm :     0.0028548 Eh/α   predicted    -0.3718118E-04 ( -30.17%)
   displ. norm   :     0.2332386 α      lambda       -0.6281681E-04
   maximum displ.:     0.1168315 α      in ANC's #2, #6, #11, ...

........................................................................
.............................. CYCLE   20 ..............................
........................................................................

 iter      E             dE          RMSdq      gap      omega  full diag
   1    -96.1867524 -0.961868E+02  0.460E-02    1.69       0.0  T
   2    -96.1867539 -0.154028E-05  0.269E-02    1.70       1.0  T
   3    -96.1867493  0.465369E-05  0.999E-03    1.69       1.3  T
   4    -96.1867547 -0.539578E-05  0.162E-03    1.69       7.9  T
   5    -96.1867547 -0.958201E-07  0.766E-04    1.70      16.6  T
   6    -96.1867548 -0.862234E-08  0.391E-04    1.69      32.5  T
     SCC iter.                  ...        0 min,  0.065 sec
     gradient                   ...        0 min,  0.099 sec
 * total energy  :   -94.8797975 Eh     change       -0.4653363E-04 Eh
   gradient norm :     0.0033137 Eh/α   predicted    -0.3312087E-04 ( -28.82%)
   displ. norm   :     0.2075514 α      lambda       -0.5428563E-04
   maximum displ.:     0.1008190 α      in ANC's #2, #6, #11, ...
 * RMSD in coord.:     0.5111510 α      energy gain  -0.2829478E-01 Eh

generating ANC from exact Hessian ...
Using Lindh-Hessian (1995)
 Shifting diagonal of input Hessian by    9.8275219144988955E-003
 Lowest  eigenvalues of input Hessian
    0.000000    0.000000    0.000000    0.000000    0.000000    0.000000
    0.010000    0.010174    0.010239    0.010489    0.010847    0.011107
    0.011192    0.011765    0.012074    0.012640    0.013034    0.014058
 Highest eigenvalues
    2.109825    2.168599    2.221366    2.300945    2.350741    2.390089


........................................................................
.............................. CYCLE   21 ..............................
........................................................................

 iter      E             dE          RMSdq      gap      omega  full diag
   1    -96.1872374 -0.961872E+02  0.419E-02    1.69       0.0  T
   2    -96.1872384 -0.997074E-06  0.245E-02    1.69       1.0  T
   3    -96.1872341  0.429410E-05  0.928E-03    1.69       1.4  T
   4    -96.1872391 -0.493591E-05  0.128E-03    1.69       9.9  T
   5    -96.1872391 -0.488318E-07  0.648E-04    1.69      19.6  T
   6    -96.1872391 -0.424835E-08  0.329E-04    1.69      38.7  T
     SCC iter.                  ...        0 min,  0.027 sec
     gradient                   ...        0 min,  0.092 sec
 * total energy  :   -94.8798367 Eh     change       -0.3915308E-04 Eh
   gradient norm :     0.0032617 Eh/α   predicted     0.0000000E+00 (-100.00%)
   displ. norm   :     0.0277023 α      lambda       -0.8826538E-05
   maximum displ.:     0.0127864 α      in ANC's #13, #6, #5, ...

........................................................................
.............................. CYCLE   22 ..............................
........................................................................

 iter      E             dE          RMSdq      gap      omega  full diag
   1    -96.1877314 -0.961877E+02  0.671E-03    1.69       0.0  T
   2    -96.1877315 -0.146374E-06  0.387E-03    1.69       3.3  T
   3    -96.1877315  0.591717E-07  0.155E-03    1.69       8.2  T
   4    -96.1877316 -0.752785E-07  0.439E-04    1.69      29.0  T
   5    -96.1877316 -0.861671E-08  0.157E-04    1.69      81.0  T
     SCC iter.                  ...        0 min,  0.023 sec
     gradient                   ...        0 min,  0.087 sec
 * total energy  :   -94.8798537 Eh     change       -0.1704837E-04 Eh
   gradient norm :     0.0017051 Eh/α   predicted    -0.1027188E-04 ( -39.75%)
   displ. norm   :     0.1353048 α      lambda       -0.4006219E-04
   maximum displ.:     0.0594404 α      in ANC's #13, #6, #5, ...

........................................................................
.............................. CYCLE   23 ..............................
........................................................................

 iter      E             dE          RMSdq      gap      omega  full diag
   1    -96.1884889 -0.961885E+02  0.278E-02    1.69       0.0  T
   2    -96.1884903 -0.139129E-05  0.160E-02    1.69       1.0  T
   3    -96.1884896  0.691979E-06  0.508E-03    1.69       2.5  T
   4    -96.1884905 -0.897003E-06  0.126E-03    1.69      10.1  T
   5    -96.1884906 -0.594493E-07  0.523E-04    1.69      24.3  T
   6    -96.1884906 -0.588926E-08  0.263E-04    1.69      48.3  T
     SCC iter.                  ...        0 min,  0.027 sec
     gradient                   ...        0 min,  0.096 sec
 * total energy  :   -94.8798805 Eh     change       -0.2682498E-04 Eh
   gradient norm :     0.0033100 Eh/α   predicted    -0.2019432E-04 ( -24.72%)
   displ. norm   :     0.0284169 α      lambda       -0.1023485E-04
   maximum displ.:     0.0132074 α      in ANC's #6, #11, #5, ...

........................................................................
.............................. CYCLE   24 ..............................
........................................................................

 iter      E             dE          RMSdq      gap      omega  full diag
   1    -96.1883007 -0.961883E+02  0.550E-03    1.68       0.0  T
   2    -96.1883008 -0.345483E-07  0.323E-03    1.69       3.9  T
   3    -96.1883007  0.185087E-07  0.667E-04    1.69      19.1  T
   4    -96.1883008 -0.216940E-07  0.247E-04    1.69      51.5  T
     SCC iter.                  ...        0 min,  0.018 sec
     gradient                   ...        0 min,  0.085 sec
 * total energy  :   -94.8798909 Eh     change       -0.1032226E-04 Eh
   gradient norm :     0.0025758 Eh/α   predicted    -0.5621026E-05 ( -45.54%)
   displ. norm   :     0.1820223 α      lambda       -0.5366980E-04
   maximum displ.:     0.0831826 α      in ANC's #6, #13, #11, ...

........................................................................
.............................. CYCLE   25 ..............................
........................................................................

 iter      E             dE          RMSdq      gap      omega  full diag
   1    -96.1873915 -0.961874E+02  0.344E-02    1.68       0.0  T
   2    -96.1873923 -0.823203E-06  0.201E-02    1.69       1.0  T
   3    -96.1873921  0.176323E-06  0.260E-03    1.69       4.9  T
   4    -96.1873924 -0.292825E-06  0.103E-03    1.69      12.3  T
   5    -96.1873925 -0.421454E-07  0.462E-04    1.69      27.5  T
   6    -96.1873925 -0.265130E-08  0.226E-04    1.69      56.1  T
     SCC iter.                  ...        0 min,  0.027 sec
     gradient                   ...        0 min,  0.102 sec
 * total energy  :   -94.8799236 Eh     change       -0.3270581E-04 Eh
   gradient norm :     0.0015994 Eh/α   predicted    -0.2775011E-04 ( -15.15%)
   displ. norm   :     0.1286364 α      lambda       -0.1060296E-04
   maximum displ.:     0.0614649 α      in ANC's #6, #13, #11, ...

........................................................................
.............................. CYCLE   26 ..............................
........................................................................

 iter      E             dE          RMSdq      gap      omega  full diag
   1    -96.1873688 -0.961874E+02  0.235E-02    1.69       0.0  T
   2    -96.1873690 -0.209385E-06  0.138E-02    1.69       1.0  T
   3    -96.1873689  0.890687E-07  0.166E-03    1.69       7.6  T
   4    -96.1873691 -0.142043E-06  0.628E-04    1.69      20.2  T
   5    -96.1873691 -0.125586E-07  0.312E-04    1.69      40.7  T
     SCC iter.                  ...        0 min,  0.073 sec
     gradient                   ...        0 min,  0.092 sec
 * total energy  :   -94.8799347 Eh     change       -0.1117719E-04 Eh
   gradient norm :     0.0019391 Eh/α   predicted    -0.5340750E-05 ( -52.22%)
   displ. norm   :     0.1120000 α      lambda       -0.1238391E-04
   maximum displ.:     0.0557805 α      in ANC's #6, #3, #1, ...

........................................................................
.............................. CYCLE   27 ..............................
........................................................................

 iter      E             dE          RMSdq      gap      omega  full diag
   1    -96.1880984 -0.961881E+02  0.212E-02    1.69       0.0  T
   2    -96.1880987 -0.283255E-06  0.125E-02    1.69       1.0  T
   3    -96.1880980  0.733082E-06  0.366E-03    1.69       3.5  T
   4    -96.1880988 -0.839300E-06  0.688E-04    1.69      18.5  T
   5    -96.1880988 -0.174131E-07  0.313E-04    1.69      40.5  T
     SCC iter.                  ...        0 min,  0.022 sec
     gradient                   ...        0 min,  0.100 sec
 * total energy  :   -94.8799488 Eh     change       -0.1401236E-04 Eh
   gradient norm :     0.0009240 Eh/α   predicted    -0.6230889E-05 ( -55.53%)
   displ. norm   :     0.1628110 α      lambda       -0.1283611E-04
   maximum displ.:     0.0806580 α      in ANC's #6, #3, #1, ...

........................................................................
.............................. CYCLE   28 ..............................
........................................................................

 iter      E             dE          RMSdq      gap      omega  full diag
   1    -96.1880457 -0.961880E+02  0.321E-02    1.69       0.0  T
   2    -96.1880461 -0.404519E-06  0.189E-02    1.69       1.0  T
   3    -96.1880439  0.216060E-05  0.628E-03    1.69       2.0  T
   4    -96.1880464 -0.246116E-05  0.813E-04    1.69      15.6  T
   5    -96.1880464 -0.137089E-07  0.463E-04    1.69      27.4  T
   6    -96.1880464 -0.275031E-08  0.227E-04    1.69      56.0  T
     SCC iter.                  ...        0 min,  0.026 sec
     gradient                   ...        0 min,  0.097 sec
 * total energy  :   -94.8799628 Eh     change       -0.1402636E-04 Eh
   gradient norm :     0.0009922 Eh/α   predicted    -0.6495574E-05 ( -53.69%)
   displ. norm   :     0.1584150 α      lambda       -0.1283866E-04
   maximum displ.:     0.0771259 α      in ANC's #6, #3, #1, ...

........................................................................
.............................. CYCLE   29 ..............................
........................................................................

 iter      E             dE          RMSdq      gap      omega  full diag
   1    -96.1883879 -0.961884E+02  0.328E-02    1.69       0.0  T
   2    -96.1883884 -0.526437E-06  0.193E-02    1.69       1.0  T
   3    -96.1883860  0.246794E-05  0.685E-03    1.69       1.9  T
   4    -96.1883888 -0.281296E-05  0.923E-04    1.69      13.8  T
   5    -96.1883888 -0.233421E-07  0.484E-04    1.69      26.3  T
   6    -96.1883888 -0.248990E-08  0.253E-04    1.69      50.2  T
     SCC iter.                  ...        0 min,  0.078 sec
     gradient                   ...        0 min,  0.089 sec
 * total energy  :   -94.8799757 Eh     change       -0.1291626E-04 Eh
   gradient norm :     0.0010192 Eh/α   predicted    -0.6495611E-05 ( -49.71%)
   displ. norm   :     0.1336722 α      lambda       -0.6945706E-05
   maximum displ.:     0.0633934 α      in ANC's #6, #3, #1, ...

........................................................................
.............................. CYCLE   30 ..............................
........................................................................

 iter      E             dE          RMSdq      gap      omega  full diag
   1    -96.1880232 -0.961880E+02  0.284E-02    1.69       0.0  T
   2    -96.1880234 -0.228497E-06  0.167E-02    1.69       1.0  T
   3    -96.1880218  0.157813E-05  0.545E-03    1.69       2.3  T
   4    -96.1880236 -0.179257E-05  0.645E-04    1.69      19.7  T
   5    -96.1880236 -0.620381E-08  0.374E-04    1.69      34.0  T
   6    -96.1880237 -0.151374E-08  0.169E-04    1.69      75.0  T
     SCC iter.                  ...        0 min,  0.074 sec
     gradient                   ...        0 min,  0.097 sec
 * total energy  :   -94.8799824 Eh     change       -0.6689740E-05 Eh
   gradient norm :     0.0010164 Eh/α   predicted    -0.3501336E-05 ( -47.66%)
   displ. norm   :     0.0901021 α      lambda       -0.7671926E-05
   maximum displ.:     0.0312865 α      in ANC's #1, #3, #6, ...

........................................................................
.............................. CYCLE   31 ..............................
........................................................................

 iter      E             dE          RMSdq      gap      omega  full diag
   1    -96.1886212 -0.961886E+02  0.186E-02    1.69       0.0  T
   2    -96.1886214 -0.250451E-06  0.109E-02    1.69       1.2  T
   3    -96.1886209  0.504902E-06  0.318E-03    1.69       4.0  T
   4    -96.1886215 -0.581393E-06  0.681E-04    1.69      18.6  T
   5    -96.1886215 -0.175042E-07  0.276E-04    1.69      46.0  T
     SCC iter.                  ...        0 min,  0.023 sec
     gradient                   ...        0 min,  0.097 sec
 * total energy  :   -94.8799875 Eh     change       -0.5083997E-05 Eh
   gradient norm :     0.0009094 Eh/α   predicted    -0.3850273E-05 ( -24.27%)
   displ. norm   :     0.0427180 α      lambda       -0.2776510E-05
   maximum displ.:     0.0179195 α      in ANC's #6, #1, #3, ...

........................................................................
.............................. CYCLE   32 ..............................
........................................................................

 iter      E             dE          RMSdq      gap      omega  full diag
   1    -96.1883373 -0.961883E+02  0.861E-03    1.69       0.0  T
   2    -96.1883373 -0.338869E-07  0.504E-03    1.69       2.5  T
   3    -96.1883372  0.100022E-06  0.141E-03    1.69       9.0  T
   4    -96.1883373 -0.116901E-06  0.250E-04    1.69      50.8  T
   5    -96.1883373 -0.163797E-08  0.134E-04    1.69      94.5  T
     SCC iter.                  ...        0 min,  0.068 sec
     gradient                   ...        0 min,  0.098 sec
 * total energy  :   -94.8799904 Eh     change       -0.2893527E-05 Eh
   gradient norm :     0.0004624 Eh/α   predicted    -0.1391086E-05 ( -51.92%)
   displ. norm   :     0.0340056 α      lambda       -0.2429367E-05
   maximum displ.:     0.0143893 α      in ANC's #7, #5, #1, ...

   *** GEOMETRY OPTIMIZATION CONVERGED AFTER 32 ITERATIONS ***

------------------------------------------------------------------------
 total energy gain   :        -0.0284876 Eh      -17.8763 kcal/mol
 total RMSD          :         0.5661345 a0        0.2996 Å
 total power (kW/mol):        -2.3373207 (step)  -14.0621 (real)
------------------------------------------------------------------------

 ANCopt (total)                0 d,  0 h,  0 min,  5.319 sec
 optimizer setup                ...        0 min,  0.000 sec (  0.002%)
 model hessian                  ...        0 min,  0.050 sec (  0.943%)
 ANC generation                 ...        0 min,  0.007 sec (  0.128%)
 coordinate transformation      ...        0 min,  0.001 sec (  0.023%)
 single point calculation       ...        0 min,  5.247 sec ( 98.641%)
 optimization log               ...        0 min,  0.007 sec (  0.139%)
 hessian update                 ...        0 min,  0.001 sec (  0.021%)
 rational function              ...        0 min,  0.004 sec (  0.072%)

================
 final structure:
================
62
 xtb: 6.7.1 (edcfbbe)
C           -7.01410382070534       -2.25471102341578       -1.30594834514413
C           -5.98959827262909       -2.79757089478421       -0.35270119122401
C           -4.72861981962147       -1.99770966834873       -0.24477425425826
C           -3.50335686915149       -2.58783680214710       -0.34879633056125
C           -3.31387030622920       -4.04697690823675       -0.61565857068489
C           -2.34106391398034       -1.76407137128633       -0.23348757494400
C           -1.01944819457031       -2.21478808638472       -0.33922020017931
N            0.02813027289740       -1.43655617438016       -0.21639491577255
C           -0.20720224772375       -0.13819931026625        0.02727869331164
N            0.81895965290290        0.72430905300983        0.17050129773710
C            2.19104482079947        0.53363527881661        0.09677138934030
N            2.88537696089905        1.64866615559161        0.29575483261624
C            4.20103515537838        1.61078495377858        0.23411720917404
C            4.94049626534327        0.45077191179362       -0.03408026177262
C            4.18725034973204       -0.71928567904894       -0.22465057893564
C            2.81199843282426       -0.68856580718386       -0.16093117298352
N            6.32123640462817        0.41647873521810       -0.04278747159126
C            7.08711310666716        1.56034273604726        0.40141816750494
C            8.44887816541645        1.08048527875924        0.91060347238744
N            9.13494438806069        0.37375710411617       -0.15297698953758
C            8.37179945931914       -0.79428032835219       -0.54729363116499
C            7.02188947978457       -0.31688824357629       -1.07826817939260
N           -1.41671912996848        0.41032337397808        0.14889750383936
C           -2.47940423384462       -0.37644988417497        0.02237098276647
N           -3.71476202089467        0.17957260912317        0.14305107279589
C           -3.80930767441530        1.61236455840268        0.42375879169764
C           -4.64029880506827        2.39778856924193       -0.61352215637778
C           -5.74684346444978        3.08977884202606        0.18629970596877
C           -5.14585691716014        3.24961739823919        1.57949553818995
C           -4.44134306159196        1.91389064820658        1.79274089660447
C           -4.88425264408865       -0.56645127395879        0.01785416469164
O           -5.96709985837629       -0.02236375039469        0.14552199685366
O           -6.15628463898842       -3.81691442046750        0.27630255817006
H           -7.39904940089721       -1.32273070399412       -0.89493935313105
H           -6.55568474358153       -2.03188055237874       -2.26718320711449
H           -7.82398543281279       -2.96902262562102       -1.42637879491154
H           -4.26387480224845       -4.56442632636801       -0.68553662262520
H           -2.74280038815350       -4.49635374832410        0.19538917278349
H           -2.75922509054382       -4.18965111518779       -1.54268036032064
H           -0.79619733787874       -3.25532065321457       -0.53078024102353
H            0.55225951818208        1.68285163529221        0.35949627664820
H            4.67991085128353        2.56610651840750        0.39428671614872
H            4.68233881909044       -1.66148500781874       -0.40466599350263
H            2.21882389626139       -1.57554961983574       -0.29860864426899
H            6.56397529385970        2.05304181347694        1.22102358808045
H            7.24461329435331        2.27935649110921       -0.41653485584191
H            8.28425366066988        0.44170324809386        1.79686355160257
H            9.04966402641619        1.94241226981499        1.20728904030120
H           10.06879659420181        0.10821193150665        0.14271734442161
H            8.20061750217971       -1.48921802917937        0.29399196815594
H            8.91249925829336       -1.32168085446363       -1.33567002220058
H            7.20574667430566        0.34186176008181       -1.94156232380975
H            6.42804367573493       -1.16621689185004       -1.41014604426575
H           -2.77637608078803        1.96209843766473        0.41019545290693
H           -4.00323314980978        3.13340137761443       -1.10599751493635
H           -5.05041273432605        1.74144688816989       -1.37819016207927
H           -6.61488174911419        2.43446957875969        0.24229742828142
H           -6.04556773660552        4.03820411110129       -0.25756462161001
H           -4.41942584528214        4.06462095593841        1.58760852970251
H           -5.89855918938938        3.44625684311766        2.34080881092140
H           -3.69316008324889        1.94311674913273        2.58405533320191
H           -5.17972632134448        1.15102793900921        2.03466909935501

 Bond Distances (Angstroems)
 ---------------------------
C1-C2=1.5010         C1-H34=1.0889        C1-H35=1.0880        C1-H36=1.0866        C2-C1=1.5010         C2-C3=1.4972         
C2-O33=1.2093        C3-C2=1.4972         C3-C4=1.3639         C3-C31=1.4635        C4-C3=1.3639         C4-C5=1.4954         
C4-C6=1.4293         C5-C4=1.4954         C5-H37=1.0840        C5-H38=1.0890        C5-H39=1.0897        C6-C4=1.4293         
C6-C7=1.4004         C6-C24=1.4178        C7-C6=1.4004         C7-N8=1.3108         C7-H40=1.0813        N8-C7=1.3108         
N8-C9=1.3418         C9-N8=1.3418         C9-N10=1.3481        C9-N23=1.3336        N10-C9=1.3481        N10-C11=1.3872       
N10-H41=1.0127       C11-N10=1.3872       C11-N12=1.3285       C11-C16=1.3949       N12-C11=1.3285       N12-C13=1.3176       
C13-N12=1.3176       C13-C14=1.4016       C13-H42=1.0806       C14-C13=1.4016       C14-C15=1.4045       C14-N17=1.3812       
C15-C14=1.4045       C15-C16=1.3771       C15-H43=1.0795       C16-C11=1.3949       C16-C15=1.3771       C16-H44=1.0759       
N17-C14=1.3812       N17-C18=1.4465       N17-C22=1.4495       C18-N17=1.4465       C18-C19=1.5310       C18-H45=1.0900       
C18-H46=1.1004       C19-C18=1.5310       C19-N20=1.4496       C19-H47=1.1048       C19-H48=1.0917       N20-C19=1.4496       
N20-C21=1.4499       N20-H49=1.0149       C21-N20=1.4499       C21-C22=1.5271       C21-H50=1.1045       C21-H51=1.0918       
C22-N17=1.4495       C22-C21=1.5271       C22-H52=1.1014       C22-H53=1.0882       N23-C9=1.3336        N23-C24=1.3283       
C24-C6=1.4178        C24-N23=1.3283       C24-N25=1.3601       N25-C24=1.3601       N25-C26=1.4631       N25-C31=1.3928       
C26-N25=1.4631       C26-C27=1.5438       C26-C30=1.5377       C26-H54=1.0906       C27-C26=1.5438       C27-C28=1.5307       
C27-H55=1.0906       C27-H56=1.0880       C28-C27=1.5307       C28-C29=1.5257       C28-H57=1.0891       C28-H58=1.0889       
C29-C28=1.5257       C29-C30=1.5251       C29-H59=1.0918       C29-H60=1.0885       C30-C26=1.5377       C30-C29=1.5251       
C30-H61=1.0894       C30-H62=1.0889       C31-C3=1.4635        C31-N25=1.3928       C31-O32=1.2186       O32-C31=1.2186       
O33-C2=1.2093        H34-C1=1.0889        H35-C1=1.0880        H36-C1=1.0866        H37-C5=1.0840        H38-C5=1.0890        
H39-C5=1.0897        H40-C7=1.0813        H41-N10=1.0127       H42-C13=1.0806       H43-C15=1.0795       H44-C16=1.0759       
H45-C18=1.0900       H46-C18=1.1004       H47-C19=1.1048       H48-C19=1.0917       H49-N20=1.0149       H50-C21=1.1045       
H51-C21=1.0918       H52-C22=1.1014       H53-C22=1.0882       H54-C26=1.0906       H55-C27=1.0906       H56-C27=1.0880       
H57-C28=1.0891       H58-C28=1.0889       H59-C29=1.0918       H60-C29=1.0885       H61-C30=1.0894       H62-C30=1.0889       
 C  H  Rav=1.0897 sigma=0.0067  Rmin=1.0759  Rmax=1.1048    27
 C  C  Rav=1.4667 sigma=0.0619  Rmin=1.3639  Rmax=1.5438    19
 N  H  Rav=1.0138 sigma=0.0011  Rmin=1.0127  Rmax=1.0149     2
 N  C  Rav=1.3805 sigma=0.0531  Rmin=1.3108  Rmax=1.4631    16
 O  C  Rav=1.2139 sigma=0.0046  Rmin=1.2093  Rmax=1.2186     2

 selected bond angles (degree)
 --------------------
H34-C1-C2=108.13               H35-C1-C2=110.34               H35-C1-H34=107.89              H36-C1-C2=109.96               
H36-C1-H34=109.94              H36-C1-H35=110.53              C3-C2-C1=115.30                O33-C2-C1=122.76               
O33-C2-C3=121.93               C4-C3-C2=121.33                C31-C3-C2=116.48               C31-C3-C4=122.17               
C5-C4-C3=123.34                C6-C4-C3=118.36                C6-C4-C5=118.28                H37-C5-C4=111.48               
H38-C5-C4=109.65               H38-C5-H37=108.10              H39-C5-C4=110.13               H39-C5-H37=109.19              
H39-C5-H38=108.22              C7-C6-C4=125.16                C24-C6-C4=119.95               C24-C6-C7=114.88               
N8-C7-C6=123.79                H40-C7-C6=121.19               H40-C7-N8=115.02               C9-N8-C7=116.83                
N10-C9-N8=120.32               N23-C9-N8=125.00               N23-C9-N10=114.68              C11-N10-C9=131.25              
H41-N10-C9=115.15              H41-N10-C11=113.61             

 selected dihedral angles (degree)
 ---------------------------------
C3-C2-C1-H34=291.85           C3-C2-C1-H35= 49.62           C3-C2-C1-H36=171.80           O33-C2-C1-H34=112.67          
O33-C2-C1-H35=230.44          O33-C2-C1-H36=352.63          C4-C3-C2-C1=229.75            C4-C3-C2-O33= 48.93           
C31-C3-C2-C1= 51.58           C31-C3-C2-O33=230.76          C5-C4-C3-C2=  1.90            C5-C4-C3-C31=179.97           
C6-C4-C3-C2=180.12            C6-C4-C3-C31=358.19           H37-C5-C4-C3=358.42           H37-C5-C4-C6=180.20           
H38-C5-C4-C3=238.76           H38-C5-C4-C6= 60.54           H39-C5-C4-C3=119.79           H39-C5-C4-C6=301.56           
C7-C6-C4-C3=181.10            C7-C6-C4-C5=359.42            C24-C6-C4-C3=  1.84           C24-C6-C4-C5=180.15           
N8-C7-C6-C4=180.66            N8-C7-C6-C24=359.96           H40-C7-C6-C4=  0.55           H40-C7-C6-C24=179.85          
C9-N8-C7-C6=  0.15            C9-N8-C7-H40=180.25           N10-C9-N8-C7=179.78           N23-C9-N8-C7=359.84           
C11-N10-C9-N8=  0.91          C11-N10-C9-N23=180.86         H41-N10-C9-N8=180.47          H41-N10-C9-N23=  0.41         
           -------------------------------------------------
          |                Final Singlepoint                |
           -------------------------------------------------

          ...................................................
          :                      SETUP                      :
          :.................................................:
          :  # basis functions                 161          :
          :  # atomic orbitals                 161          :
          :  # shells                           95          :
          :  # electrons                       172          :
          :  max. iterations                   250          :
          :  Hamiltonian                  GFN2-xTB          :
          :  restarted?                      false          :
          :  GBSA solvation                  false          :
          :  PC potential                    false          :
          :  electronic temp.          300.0000000     K    :
          :  accuracy                    1.0000000          :
          :  -> integral cutoff          0.2500000E+02      :
          :  -> integral neglect         0.1000000E-07      :
          :  -> SCF convergence          0.1000000E-05 Eh   :
          :  -> wf. convergence          0.1000000E-03 e    :
          :  Broyden damping             0.4000000          :
          :  net charge                          0          :
          :  unpaired electrons                  0          :
          ...................................................

 iter      E             dE          RMSdq      gap      omega  full diag
   1    -96.1883373 -0.961883E+02  0.629E-05    1.69       0.0  T
   2    -96.1883373 -0.581508E-10  0.442E-05    1.69     287.6  T
   3    -96.1883373 -0.745786E-10  0.246E-05    1.69     515.5  T

   *** convergence criteria satisfied after 3 iterations ***

         #    Occupation            Energy/Eh            Energy/eV
      -------------------------------------------------------------
         1        2.0000           -0.7027128             -19.1218
       ...           ...                  ...                  ...
        80        2.0000           -0.3986937             -10.8490
        81        2.0000           -0.3906998             -10.6315
        82        2.0000           -0.3848311             -10.4718
        83        2.0000           -0.3768072             -10.2534
        84        2.0000           -0.3729536             -10.1486
        85        2.0000           -0.3726032             -10.1390
        86        2.0000           -0.3516718              -9.5695 (HOMO)
        87                         -0.2893913              -7.8747 (LUMO)
        88                         -0.2601103              -7.0780
        89                         -0.2434663              -6.6251
        90                         -0.2361312              -6.4255
        91                         -0.2268343              -6.1725
       ...                                ...                  ...
       161                          0.6948361              18.9075
      -------------------------------------------------------------
                  HL-Gap            0.0622805 Eh            1.6947 eV
             Fermi-level           -0.3205315 Eh           -8.7221 eV

 SCC (total)                   0 d,  0 h,  0 min,  0.112 sec
 SCC setup                      ...        0 min,  0.001 sec (  0.532%)
 Dispersion                     ...        0 min,  0.001 sec (  0.674%)
 classical contributions        ...        0 min,  0.000 sec (  0.268%)
 integral evaluation            ...        0 min,  0.013 sec ( 11.415%)
 iterations                     ...        0 min,  0.014 sec ( 12.693%)
 molecular gradient             ...        0 min,  0.083 sec ( 74.129%)
 printout                       ...        0 min,  0.000 sec (  0.282%)

         :::::::::::::::::::::::::::::::::::::::::::::::::::::
         ::                     SUMMARY                     ::
         :::::::::::::::::::::::::::::::::::::::::::::::::::::
         :: total energy             -94.879990366044 Eh    ::
         :: gradient norm              0.000462762819 Eh/a0 ::
         :: HOMO-LUMO gap              1.694737664257 eV    ::
         ::.................................................::
         :: SCC energy               -96.188696520980 Eh    ::
         :: -> isotropic ES            0.108987360703 Eh    ::
         :: -> anisotropic ES          0.005696659832 Eh    ::
         :: -> anisotropic XC          0.053409873566 Eh    ::
         :: -> dispersion             -0.070288396432 Eh    ::
         :: repulsion energy           1.308706154936 Eh    ::
         :: add. restraining           0.000000000000 Eh    ::
         :: total charge               0.000000000000 e     ::
         :::::::::::::::::::::::::::::::::::::::::::::::::::::

           -------------------------------------------------
          |                Property Printout                |
           -------------------------------------------------

    * Orbital Energies and Occupations

         #    Occupation            Energy/Eh            Energy/eV
      -------------------------------------------------------------
         1        2.0000           -0.7027128             -19.1218
       ...           ...                  ...                  ...
        74        2.0000           -0.4323501             -11.7648
        75        2.0000           -0.4306368             -11.7182
        76        2.0000           -0.4210110             -11.4563
        77        2.0000           -0.4190163             -11.4020
        78        2.0000           -0.4149499             -11.2914
        79        2.0000           -0.4053916             -11.0313
        80        2.0000           -0.3986937             -10.8490
        81        2.0000           -0.3906998             -10.6315
        82        2.0000           -0.3848311             -10.4718
        83        2.0000           -0.3768072             -10.2534
        84        2.0000           -0.3729536             -10.1486
        85        2.0000           -0.3726032             -10.1390
        86        2.0000           -0.3516718              -9.5695 (HOMO)
        87                         -0.2893913              -7.8747 (LUMO)
        88                         -0.2601103              -7.0780
        89                         -0.2434663              -6.6251
        90                         -0.2361312              -6.4255
        91                         -0.2268343              -6.1725
        92                         -0.2033310              -5.5329
        93                         -0.1577819              -4.2935
        94                         -0.1012764              -2.7559
        95                         -0.0887197              -2.4142
        96                         -0.0185686              -0.5053
        97                         -0.0059912              -0.1630
       ...                                ...                  ...
       161                          0.6948361              18.9075
      -------------------------------------------------------------
                  HL-Gap            0.0622805 Eh            1.6947 eV
             Fermi-level           -0.3205315 Eh           -8.7221 eV

     #   Z          covCN         q      C6AA      α(0)
     1   6 C        3.754    -0.141    23.265     6.878
     2   6 C        2.817     0.252    22.780     7.820
     3   6 C        2.964    -0.070    29.746     8.946
     4   6 C        2.957     0.033    27.260     8.564
     5   6 C        3.758    -0.115    22.745     6.800
     6   6 C        2.979    -0.051    29.266     8.874
     7   6 C        2.925     0.077    26.292     8.409
     8   7 N        1.838    -0.279    28.095     7.855
     9   6 C        2.882     0.241    22.983     7.859
    10   7 N        2.726    -0.133    23.883     7.258
    11   6 C        2.891     0.141    24.925     8.185
    12   7 N        1.852    -0.256    27.510     7.774
    13   6 C        2.906     0.031    27.317     8.570
    14   6 C        2.905     0.047    26.956     8.513
    15   6 C        2.935    -0.038    28.949     8.824
    16   6 C        2.910    -0.061    29.505     8.907
    17   7 N        2.739    -0.112    23.452     7.192
    18   6 C        3.760     0.000    20.624     6.474
    19   6 C        3.756     0.015    20.378     6.437
    20   7 N        2.684    -0.253    26.567     7.655
    21   6 C        3.755     0.014    20.385     6.438
    22   6 C        3.762     0.002    20.590     6.468
    23   7 N        1.861    -0.323    29.224     8.013
    24   6 C        2.920     0.164    24.463     8.111
    25   7 N        2.749    -0.072    22.629     7.065
    26   6 C        3.820     0.036    19.957     6.357
    27   6 C        3.820    -0.057    21.581     6.611
    28   6 C        3.829    -0.061    21.642     6.619
    29   6 C        3.829    -0.056    21.562     6.607
    30   6 C        3.828    -0.061    21.654     6.621
    31   6 C        2.773     0.267    22.494     7.768
    32   8 O        0.859    -0.433    22.345     6.338
    33   8 O        0.857    -0.366    21.018     6.147
    34   1 H        0.925     0.105     1.744     2.065
    35   1 H        0.925     0.056     2.244     2.342
    36   1 H        0.925     0.064     2.148     2.292
    37   1 H        0.925     0.071     2.072     2.251
    38   1 H        0.925     0.063     2.163     2.300
    39   1 H        0.925     0.053     2.286     2.364
    40   1 H        0.925     0.051     2.313     2.378
    41   1 H        0.860     0.210     1.056     1.610
    42   1 H        0.926     0.035     2.511     2.478
    43   1 H        0.926     0.036     2.506     2.476
    44   1 H        0.926     0.070     2.085     2.258
    45   1 H        0.925     0.046     2.371     2.408
    46   1 H        0.923     0.036     2.504     2.475
    47   1 H        0.922     0.016     2.798     2.616
    48   1 H        0.924     0.038     2.469     2.457
    49   1 H        0.860     0.135     1.507     1.923
    50   1 H        0.923     0.016     2.793     2.614
    51   1 H        0.924     0.038     2.477     2.461
    52   1 H        0.923     0.038     2.483     2.464
    53   1 H        0.925     0.046     2.368     2.407
    54   1 H        0.924     0.069     2.093     2.263
    55   1 H        0.924     0.032     2.561     2.503
    56   1 H        0.925     0.045     2.386     2.416
    57   1 H        0.925     0.061     2.189     2.314
    58   1 H        0.925     0.031     2.574     2.509
    59   1 H        0.924     0.032     2.561     2.503
    60   1 H        0.925     0.037     2.492     2.469
    61   1 H        0.925     0.030     2.585     2.514
    62   1 H        0.925     0.059     2.212     2.326

 Mol. C6AA /au·bohr⁶  :      42335.217129
 Mol. C8AA /au·bohr⁸  :     982319.261031
 Mol. α(0) /au        :        315.411089


Wiberg/Mayer (AO) data.
largest (>0.10) Wiberg bond orders for each atom

 ---------------------------------------------------------------------------
     #   Z sym  total        # sym  WBO       # sym  WBO       # sym  WBO
 ---------------------------------------------------------------------------
     1   6 C    3.990 --     2 C    1.013    36 H    0.982    35 H    0.965
                            34 H    0.936
     2   6 C    3.919 --    33 O    1.831     1 C    1.013     3 C    0.997
     3   6 C    3.962 --     4 C    1.584    31 C    1.075     2 C    0.997
     4   6 C    3.977 --     3 C    1.584     6 C    1.174     5 C    1.033
     5   6 C    3.992 --     4 C    1.033    37 H    0.977    39 H    0.966
                            38 H    0.962
     6   6 C    3.974 --     7 C    1.330    24 C    1.220     4 C    1.174
     7   6 C    3.956 --     8 N    1.493     6 C    1.330    40 H    0.958
     8   7 N    3.036 --     7 C    1.493     9 C    1.266
     9   6 C    3.956 --    23 N    1.313     8 N    1.266    10 N    1.225
    10   7 N    3.503 --     9 C    1.225    11 C    1.086    41 H    0.921
    11   6 C    3.954 --    12 N    1.364    16 C    1.326    10 N    1.086
    12   7 N    3.049 --    13 C    1.451    11 C    1.364
    13   6 C    3.979 --    12 N    1.451    14 C    1.329    42 H    0.959
    14   6 C    3.962 --    13 C    1.329    15 C    1.324    17 N    1.137
    15   6 C    3.990 --    16 C    1.494    14 C    1.324    43 H    0.964
    16   6 C    3.983 --    15 C    1.494    11 C    1.326    44 H    0.957
    17   7 N    3.343 --    14 C    1.137    18 C    1.000    22 C    0.990
    18   6 C    3.983 --    17 N    1.000    19 C    0.996    45 H    0.970
                            46 H    0.964
    19   6 C    3.988 --    20 N    1.017    18 C    0.996    48 H    0.974
                            47 H    0.965
    20   7 N    3.066 --    19 C    1.017    21 C    1.017    49 H    0.957
    21   6 C    3.988 --    20 N    1.017    22 C    0.999    51 H    0.974
                            50 H    0.965
    22   6 C    3.981 --    21 C    0.999    17 N    0.990    53 H    0.968
                            52 H    0.963
    23   7 N    3.026 --    24 C    1.361     9 C    1.313
    24   6 C    3.965 --    23 N    1.361     6 C    1.220    25 N    1.198
    25   7 N    3.596 --    24 C    1.198    31 C    1.107    26 C    0.953
                            32 O    0.137
    26   6 C    3.948 --    30 C    0.983    27 C    0.981    54 H    0.957
                            25 N    0.953
    27   6 C    3.994 --    28 C    1.006    55 H    0.981    26 C    0.981
                            56 H    0.978
    28   6 C    3.995 --    29 C    1.007    27 C    1.006    58 H    0.980
                            57 H    0.977
    29   6 C    3.997 --    28 C    1.007    30 C    1.006    59 H    0.980
                            60 H    0.979
    30   6 C    3.993 --    29 C    1.006    26 C    0.983    61 H    0.980
                            62 H    0.974
    31   6 C    3.952 --    32 O    1.650    25 N    1.107     3 C    1.075
    32   8 O    1.976 --    31 C    1.650    25 N    0.137
    33   8 O    2.057 --     2 C    1.831
    34   1 H    0.989 --     1 C    0.936
    35   1 H    0.997 --     1 C    0.965
    36   1 H    0.995 --     1 C    0.982
    37   1 H    0.995 --     5 C    0.977
    38   1 H    0.994 --     5 C    0.962
    39   1 H    0.995 --     5 C    0.966
    40   1 H    0.997 --     7 C    0.958
    41   1 H    0.955 --    10 N    0.921
    42   1 H    0.998 --    13 C    0.959
    43   1 H    0.998 --    15 C    0.964
    44   1 H    0.995 --    16 C    0.957
    45   1 H    0.998 --    18 C    0.970
    46   1 H    0.996 --    18 C    0.964
    47   1 H    1.000 --    19 C    0.965
    48   1 H    0.998 --    19 C    0.974
    49   1 H    0.982 --    20 N    0.957
    50   1 H    1.000 --    21 C    0.965
    51   1 H    0.998 --    21 C    0.974
    52   1 H    0.996 --    22 C    0.963
    53   1 H    0.998 --    22 C    0.968
    54   1 H    0.995 --    26 C    0.957
    55   1 H    0.999 --    27 C    0.981
    56   1 H    0.998 --    27 C    0.978
    57   1 H    0.996 --    28 C    0.977
    58   1 H    0.999 --    28 C    0.980
    59   1 H    0.999 --    29 C    0.980
    60   1 H    0.998 --    29 C    0.979
    61   1 H    0.999 --    30 C    0.980
    62   1 H    0.996 --    30 C    0.974
 ---------------------------------------------------------------------------

Topologies differ in total number of bonds
Writing topology from bond orders to xtbtopo.mol

molecular dipole:
                 x           y           z       tot (Debye)
 q only:        2.840       0.806      -0.648
   full:        2.986       0.259      -0.683       7.815
molecular quadrupole (traceless):
                xx          xy          yy          xz          yz          zz
 q only:        2.743     -19.010      -2.265      11.917       9.281      -0.478
  q+dip:        2.009     -21.153      -2.559      18.264       9.650       0.550
   full:       -0.279     -21.757      -5.488      18.468       9.420       5.767

           -------------------------------------------------
          |                Geometry Summary                 |
           -------------------------------------------------

      molecular mass/u    :      447.5336757
   center of mass at/Å    :       -0.2437428      -0.1538714       0.0125525
  moments of inertia/u·Å² :        0.1678318E+04   0.1164748E+05   0.1307169E+05
rotational constants/cm⁻¹ :        0.1004436E-01   0.1447320E-02   0.1289629E-02

 * 61 selected distances

     #   Z          #   Z                                           value/Å
     3   6 C        4   6 C                                       1.3639429
     4   6 C        6   6 C                                       1.4292694
     6   6 C        7   6 C                                       1.4003547
     7   6 C        8   7 N                                       1.3107829
     8   7 N        9   6 C                                       1.3418231
     9   6 C       10   7 N                                       1.3481254
    10   7 N       11   6 C                                       1.3872313
    11   6 C       12   7 N                                       1.3285276
    12   7 N       13   6 C                                       1.3176460
    13   6 C       14   6 C                                       1.4015574
    14   6 C       15   6 C                                       1.4045396
    11   6 C       16   6 C                                       1.3949085
    15   6 C       16   6 C                                       1.3770701
    14   6 C       17   7 N                                       1.3811935
    17   7 N       18   6 C                                       1.4464823
    18   6 C       19   6 C                                       1.5309923
    19   6 C       20   7 N                                       1.4496052
    20   7 N       21   6 C                                       1.4498923
    17   7 N       22   6 C                                       1.4494697
    21   6 C       22   6 C                                       1.5271197
     9   6 C       23   7 N                                       1.3336415
     6   6 C       24   6 C                                       1.4177783
    23   7 N       24   6 C                                       1.3282775
    24   6 C       25   7 N                                       1.3600860
    25   7 N       26   6 C                                       1.4630888
[...]
    2    7 N      8, 10, 12, 17, 20, 23, 25
    3    8 O      32, 33
    4    1 H      34-62

           -------------------------------------------------
          |                Calculation Setup                |
           -------------------------------------------------

          program call               : xtb /rds/general/user/hgt20/home/callum/QDESCP/Palbociclib_rdkit_conf_1/Palbociclib_rdkit_conf_1.xyz --acc 1 --gfn 2 --chrg 0 --uhf 2 --etemp 300 --input /rds/general/user/hgt20/home/callum/QDESCP/Palbociclib_rdkit_conf_1/Palbociclib_rdkit_conf_1_xtb.inp -P 1
          hostname                   : login-c
          coordinate file            : /rds/general/user/hgt20/home/callum/QDESCP/Palbociclib_rdkit_conf_1/Palbociclib_rdkit_conf_1.xyz
          omp threads                :                     1


           -------------------------------------------------
          |                 G F N 2 - x T B                 |
           -------------------------------------------------

        Reference                      10.1021/acs.jctc.8b01176
      * Hamiltonian:
        H0-scaling (s, p, d)           1.850000    2.230000    2.230000
        zeta-weighting                 0.500000
      * Dispersion:
        s8                             2.700000
        a1                             0.520000
        a2                             5.000000
        s9                             5.000000
      * Repulsion:
        kExp                           1.500000    1.000000
        rExp                           1.000000
      * Coulomb:
        alpha                          2.000000
        third order                    shell-resolved
        anisotropic                    true
        a3                             3.000000
        a5                             4.000000
        cn-shift                       1.200000
        cn-exp                         4.000000
        max-rad                        5.000000


          ...................................................
          :                      SETUP                      :
          :.................................................:
          :  # basis functions                 161          :
          :  # atomic orbitals                 161          :
          :  # shells                           95          :
          :  # electrons                       172          :
          :  max. iterations                   250          :
          :  Hamiltonian                  GFN2-xTB          :
          :  restarted?                      false          :
          :  GBSA solvation                  false          :
          :  PC potential                    false          :
          :  electronic temp.          300.0000000     K    :
          :  accuracy                    1.0000000          :
          :  -> integral cutoff          0.2500000E+02      :
          :  -> integral neglect         0.1000000E-07      :
          :  -> SCF convergence          0.1000000E-05 Eh   :
          :  -> wf. convergence          0.1000000E-03 e    :
          :  Broyden damping             0.4000000          :
          :  net charge                          0          :
          :  unpaired electrons                  2          :
          ...................................................

 iter      E             dE          RMSdq      gap      omega  full diag
   1    -95.8301083 -0.958301E+02  0.376E+00    0.87       0.0  T
   2    -95.6827962  0.147312E+00  0.278E+00    0.45       1.0  T
   3    -95.7758253 -0.930291E-01  0.200E+00    0.77       1.0  T
   4    -96.0382098 -0.262385E+00  0.110E+00    0.26       1.0  T
   5    -96.0052291  0.329808E-01  0.939E-01    0.54       1.0  T
   6    -96.0284786 -0.232495E-01  0.766E-01    0.58       1.0  T
   7    -96.0586488 -0.301702E-01  0.517E-01    0.38       1.0  T
   8    -96.0835505 -0.249017E-01  0.378E-01    0.53       1.0  T
   9    -96.0974094 -0.138589E-01  0.234E-01    0.40       1.0  T
  10    -96.1001718 -0.276241E-02  0.946E-02    0.37       1.0  T
  11    -96.1007059 -0.534118E-03  0.553E-02    0.36       1.0  T
  12    -96.1000372  0.668732E-03  0.708E-02    0.38       1.0  T
  13    -96.1008964 -0.859170E-03  0.206E-02    0.35       1.0  T
  14    -96.1009385 -0.421909E-04  0.548E-03    0.36       2.3  T
  15    -96.1009396 -0.105000E-05  0.401E-03    0.36       3.2  T
  16    -96.1009409 -0.126028E-05  0.927E-04    0.36      13.7  T
  17    -96.1009407  0.162004E-06  0.117E-03    0.36      10.8  T
  18    -96.1009408 -0.124574E-06  0.681E-04    0.36      18.6  T
  19    -96.1009409 -0.674249E-07  0.237E-04    0.36      53.6  T

   *** convergence criteria satisfied after 19 iterations ***

         #    Occupation            Energy/Eh            Energy/eV
      -------------------------------------------------------------
         1        2.0000           -0.6886060             -18.7379
       ...           ...                  ...                  ...
        81        2.0000           -0.3882536             -10.5649
        82        2.0000           -0.3835465             -10.4368
        83        2.0000           -0.3778874             -10.2828
        84        1.8850           -0.3683074             -10.0222
        85        1.8255           -0.3678454             -10.0096
        86        1.2895           -0.3655158              -9.9462
        87        0.9990           -0.2696078              -7.3364 (HOMO)
        88        0.0010           -0.2564980              -6.9797 (LUMO)
        89                         -0.2460278              -6.6948
        90                         -0.2335044              -6.3540
        91                         -0.2122802              -5.7764
        92                         -0.1977956              -5.3823
       ...                                ...                  ...
       161                          0.7154187              19.4675
      -------------------------------------------------------------
                  HL-Gap            0.0131098 Eh            0.3567 eV
             Fermi-level           -0.3147109 Eh           -8.5637 eV

 transition dipole moment (au) for excitation:          86          87
     X       Y       Z   
  -2.5094  -0.3174  -0.0226  total (au/Debye):    2.529   6.429
 dE (eV)             :    2.610
 oscillator strength :  0.57855E+00

 SCC (total)                   0 d,  0 h,  0 min,  0.210 sec
 SCC setup                      ...        0 min,  0.001 sec (  0.313%)
 Dispersion                     ...        0 min,  0.001 sec (  0.484%)
 classical contributions        ...        0 min,  0.000 sec (  0.148%)
 integral evaluation            ...        0 min,  0.013 sec (  6.347%)
 iterations                     ...        0 min,  0.097 sec ( 46.404%)
 molecular gradient             ...        0 min,  0.086 sec ( 41.168%)
 printout                       ...        0 min,  0.011 sec (  5.131%)

         :::::::::::::::::::::::::::::::::::::::::::::::::::::
         ::                     SUMMARY                     ::
         :::::::::::::::::::::::::::::::::::::::::::::::::::::
         :: total energy             -94.792593905411 Eh    ::
         :: gradient norm              0.099660202646 Eh/a0 ::
         :: HOMO-LUMO gap              0.356735253321 eV    ::
         ::.................................................::
         :: SCC energy               -96.101300060347 Eh    ::
         :: -> isotropic ES            0.109053493616 Eh    ::
         :: -> anisotropic ES          0.005061847637 Eh    ::
         :: -> anisotropic XC          0.048975936663 Eh    ::
         :: -> dispersion             -0.070241725552 Eh    ::
         :: repulsion energy           1.308706154936 Eh    ::
         :: add. restraining           0.000000000000 Eh    ::
         :: total charge               0.000000000004 e     ::
         :::::::::::::::::::::::::::::::::::::::::::::::::::::

           -------------------------------------------------
          |                Property Printout                |
           -------------------------------------------------

    * Orbital Energies and Occupations

         #    Occupation            Energy/Eh            Energy/eV
      -------------------------------------------------------------
         1        2.0000           -0.6886060             -18.7379
       ...           ...                  ...                  ...
        75        2.0000           -0.4232031             -11.5159
        76        2.0000           -0.4161549             -11.3242
        77        2.0000           -0.4131079             -11.2412
        78        2.0000           -0.4086322             -11.1194
        79        2.0000           -0.3987588             -10.8508
        80        2.0000           -0.3889994             -10.5852
        81        2.0000           -0.3882536             -10.5649
        82        2.0000           -0.3835465             -10.4368
        83        2.0000           -0.3778874             -10.2828
        84        1.8850           -0.3683074             -10.0222
        85        1.8255           -0.3678454             -10.0096
        86        1.2895           -0.3655158              -9.9462
        87        0.9990           -0.2696078              -7.3364 (HOMO)
        88        0.0010           -0.2564980              -6.9797 (LUMO)
        89                         -0.2460278              -6.6948
        90                         -0.2335044              -6.3540
        91                         -0.2122802              -5.7764
        92                         -0.1977956              -5.3823
        93                         -0.1425692              -3.8795
        94                         -0.1110977              -3.0231
        95                         -0.0729214              -1.9843
        96                         -0.0261112              -0.7105
        97                         -0.0066491              -0.1809
        98                          0.0124707               0.3393
       ...                                ...                  ...
       161                          0.7154187              19.4675
      -------------------------------------------------------------
                  HL-Gap            0.0131098 Eh            0.3567 eV
             Fermi-level           -0.3147109 Eh           -8.5637 eV

     #   Z          covCN         q      C6AA      α(0)
     1   6 C        3.754    -0.135    23.157     6.862
     2   6 C        2.817     0.244    22.917     7.844
     3   6 C        2.964    -0.075    29.868     8.964
     4   6 C        2.957    -0.001    28.048     8.687
     5   6 C        3.758    -0.107    22.601     6.778
     6   6 C        2.979    -0.038    28.944     8.825
     7   6 C        2.925     0.038    27.140     8.543
     8   7 N        1.838    -0.261    27.642     7.791
     9   6 C        2.882     0.213    23.505     7.948
    10   7 N        2.726    -0.120    23.611     7.217
    11   6 C        2.891     0.145    24.852     8.173
    12   7 N        1.852    -0.251    27.394     7.757
    13   6 C        2.906     0.038    27.142     8.543
    14   6 C        2.905     0.043    27.042     8.527
    15   6 C        2.935    -0.037    28.910     8.818
    16   6 C        2.910    -0.054    29.341     8.882
    17   7 N        2.739    -0.081    22.814     7.094
    18   6 C        3.760    -0.005    20.708     6.487
    19   6 C        3.756     0.013    20.403     6.441
    20   7 N        2.684    -0.250    26.501     7.646
    21   6 C        3.755     0.013    20.414     6.442
    22   6 C        3.762    -0.003    20.677     6.482
    23   7 N        1.861    -0.315    29.029     7.986
    24   6 C        2.920     0.164    24.469     8.112
    25   7 N        2.749    -0.079    22.777     7.088
    26   6 C        3.820     0.040    19.887     6.346
    27   6 C        3.820    -0.057    21.580     6.611
    28   6 C        3.829    -0.060    21.638     6.619
    29   6 C        3.829    -0.056    21.553     6.606
    30   6 C        3.828    -0.061    21.651     6.621
    31   6 C        2.773     0.258    22.662     7.797
    32   8 O        0.859    -0.439    22.485     6.358
    33   8 O        0.857    -0.370    21.086     6.157
    34   1 H        0.925     0.099     1.791     2.093
    35   1 H        0.925     0.053     2.282     2.362
    36   1 H        0.925     0.060     2.195     2.317
    37   1 H        0.925     0.064     2.155     2.296
    38   1 H        0.925     0.050     2.325     2.384
    39   1 H        0.925     0.041     2.440     2.443
    40   1 H        0.925     0.041     2.439     2.442
    41   1 H        0.860     0.212     1.049     1.604
    42   1 H        0.926     0.042     2.424     2.435
    43   1 H        0.926     0.041     2.438     2.442
    44   1 H        0.926     0.080     1.980     2.201
    45   1 H        0.925     0.053     2.281     2.362
    46   1 H        0.923     0.048     2.343     2.394
    47   1 H        0.922     0.021     2.724     2.581
    48   1 H        0.924     0.045     2.388     2.416
    49   1 H        0.860     0.140     1.468     1.898
    50   1 H        0.923     0.021     2.719     2.579
    51   1 H        0.924     0.044     2.392     2.418
    52   1 H        0.923     0.050     2.318     2.381
    53   1 H        0.925     0.054     2.269     2.356
    54   1 H        0.924     0.065     2.143     2.289
    55   1 H        0.924     0.030     2.591     2.517
    56   1 H        0.925     0.047     2.354     2.399
    57   1 H        0.925     0.062     2.181     2.309
    58   1 H        0.925     0.029     2.600     2.522
    59   1 H        0.924     0.030     2.590     2.517
    60   1 H        0.925     0.035     2.511     2.478
    61   1 H        0.925     0.029     2.605     2.524
    62   1 H        0.925     0.062     2.172     2.305

 Mol. C6AA /au·bohr⁶  :      42303.781822
 Mol. C8AA /au·bohr⁸  :     982132.151023
 Mol. α(0) /au        :        315.315103


Wiberg/Mayer (AO) data.
largest (>0.10) Wiberg bond orders for each atom

 ---------------------------------------------------------------------------
     #   Z sym  total        # sym  WBO       # sym  WBO       # sym  WBO
 ---------------------------------------------------------------------------
     1   6 C    3.964 --     2 C    0.995    36 H    0.982    35 H    0.968
                            34 H    0.941
     2   6 C    3.891 --    33 O    1.773     3 C    1.020     1 C    0.995
     3   6 C    3.821 --     4 C    1.385    31 C    1.117     2 C    1.020
     4   6 C    3.894 --     3 C    1.385     6 C    1.254     5 C    1.025
     5   6 C    3.985 --     4 C    1.025    37 H    0.978    39 H    0.969
                            38 H    0.968
     6   6 C    3.894 --     4 C    1.254     7 C    1.220    24 C    1.197
     7   6 C    3.868 --     8 N    1.442     6 C    1.220    40 H    0.953
     8   7 N    3.009 --     7 C    1.442     9 C    1.300
     9   6 C    3.914 --     8 N    1.300    23 N    1.236    10 N    1.168
    10   7 N    3.476 --     9 C    1.168    11 C    1.149    41 H    0.920
    11   6 C    3.904 --    12 N    1.303    16 C    1.282    10 N    1.149
    12   7 N    3.008 --    13 C    1.471    11 C    1.303
    13   6 C    3.938 --    12 N    1.471    14 C    1.311    42 H    0.957
    14   6 C    3.904 --    13 C    1.311    15 C    1.280    17 N    1.148
    15   6 C    3.947 --    16 C    1.532    14 C    1.280    43 H    0.962
    16   6 C    3.961 --    15 C    1.532    11 C    1.282    44 H    0.952
    17   7 N    3.300 --    14 C    1.148    18 C    1.000    22 C    0.991
    18   6 C    3.976 --    17 N    1.000    19 C    0.993    45 H    0.969
                            46 H    0.959
    19   6 C    3.983 --    20 N    1.018    18 C    0.993    48 H    0.974
                            47 H    0.964
    20   7 N    3.066 --    19 C    1.018    21 C    1.018    49 H    0.955
    21   6 C    3.984 --    20 N    1.018    22 C    0.997    51 H    0.973
                            50 H    0.964
    22   6 C    3.972 --    21 C    0.997    17 N    0.991    53 H    0.967
                            52 H    0.957
    23   7 N    2.963 --    24 C    1.370     9 C    1.236
    24   6 C    3.948 --    23 N    1.370    25 N    1.201     6 C    1.197
    25   7 N    3.557 --    24 C    1.201    31 C    1.074    26 C    0.955
                            32 O    0.106
    26   6 C    3.943 --    30 C    0.984    27 C    0.982    25 N    0.955
                            54 H    0.952
    27   6 C    3.992 --    28 C    1.006    26 C    0.982    55 H    0.980
                            56 H    0.977
    28   6 C    3.994 --    29 C    1.007    27 C    1.006    58 H    0.980
                            57 H    0.977
    29   6 C    3.997 --    28 C    1.007    30 C    1.007    59 H    0.980
                            60 H    0.979
    30   6 C    3.988 --    29 C    1.007    26 C    0.984    61 H    0.980
                            62 H    0.970
    31   6 C    3.932 --    32 O    1.604     3 C    1.117    25 N    1.074
    32   8 O    1.912 --    31 C    1.604    25 N    0.106
    33   8 O    1.991 --     2 C    1.773
    34   1 H    0.988 --     1 C    0.941
    35   1 H    0.995 --     1 C    0.968
    36   1 H    0.994 --     1 C    0.982
    37   1 H    0.995 --     5 C    0.978
    38   1 H    0.994 --     5 C    0.968
    39   1 H    0.994 --     5 C    0.969
    40   1 H    0.987 --     7 C    0.953
    41   1 H    0.954 --    10 N    0.920
    42   1 H    0.997 --    13 C    0.957
    43   1 H    0.997 --    15 C    0.962
    44   1 H    0.992 --    16 C    0.952
    45   1 H    0.997 --    18 C    0.969
    46   1 H    0.986 --    18 C    0.959
    47   1 H    0.998 --    19 C    0.964
    48   1 H    0.997 --    19 C    0.974
    49   1 H    0.979 --    20 N    0.955
    50   1 H    0.998 --    21 C    0.964
    51   1 H    0.998 --    21 C    0.973
    52   1 H    0.985 --    22 C    0.957
    53   1 H    0.997 --    22 C    0.967
    54   1 H    0.992 --    26 C    0.952
    55   1 H    0.997 --    27 C    0.980
    56   1 H    0.997 --    27 C    0.977
    57   1 H    0.996 --    28 C    0.977
    58   1 H    0.999 --    28 C    0.980
    59   1 H    0.999 --    29 C    0.980
    60   1 H    0.998 --    29 C    0.979
    61   1 H    0.998 --    30 C    0.980
    62   1 H    0.993 --    30 C    0.970
 ---------------------------------------------------------------------------

Topologies differ in total number of bonds
Writing topology from bond orders to xtbtopo.mol

molecular dipole:
                 x           y           z       tot (Debye)
 q only:        5.233       1.530      -0.592
   full:        5.425       1.053      -0.595      14.128
molecular quadrupole (traceless):
                xx          xy          yy          xz          yz          zz
 q only:       16.260     -22.436     -11.654      10.255       8.598      -4.606
  q+dip:       15.487     -24.791     -11.787      16.699       9.030      -3.701
   full:       13.447     -25.515     -14.513      16.951       8.841       1.066


           -------------------------------------------------
          | TOTAL ENERGY              -94.792593905411 Eh   |
          | GRADIENT NORM               0.099660202646 Eh/α |
          | HOMO-LUMO GAP               0.356735253321 eV   |
           -------------------------------------------------

------------------------------------------------------------------------
 * finished run on 2025/05/15 at 16:21:29.825     
------------------------------------------------------------------------
 total:
 * wall-time:     0 d,  0 h,  0 min,  0.229 sec
 *  cpu-time:     0 d,  0 h,  0 min,  0.173 sec
 * ratio c/w:     0.753 speedup
 SCF:
 * wall-time:     0 d,  0 h,  0 min,  0.210 sec
 *  cpu-time:     0 d,  0 h,  0 min,  0.155 sec
 * ratio c/w:     0.739 speedup


