42
 energy: -62.292051132816 gnorm: 0.000534327534 xtb: 6.7.1 (edcfbbe)
C            3.59225230887903       -0.37570978387225        2.29367258036696
C            3.44977292186388        0.94811739706132        1.53990805902306
C            3.02686807339267        0.71514487000939        0.11653186239722
C            3.92916508786225        0.72603537631847       -0.92997335288975
C            3.54123061436886        0.47470494820228       -2.24842243968726
C            2.23249275304786        0.19990641686807       -2.57049570785261
C            1.29054512568102        0.17832244213330       -1.54228800702372
C            1.70055445626475        0.43449506761196       -0.21035050284040
N            0.59504213420717        0.35373602915495        0.59314757079310
C           -0.49290117303820        0.05074387334230       -0.18469581355785
C           -0.11388199741346       -0.05871721711977       -1.49165630054642
C           -1.10528371522781       -0.37456845071479       -2.56034333260118
C           -2.49187781390028       -0.02821274172158       -2.00579973339806
O           -2.72366564404573       -0.59867951852707       -0.73313071270600
C           -1.89011613981183       -0.13411975811525        0.31821032536977
C           -1.95170254182447       -1.19989397399155        1.42740622134338
C           -1.39325042179064       -2.53765671429277        0.95791048425548
C           -2.41002175957384        1.23755086872324        0.86474266645620
C           -3.89330979093636        1.15615165375836        1.10469924556364
O           -4.58889474662976        1.65598059016725        0.07900715547290
O           -4.41930826575520        0.69168868731222        2.08016455635183
H            2.65603886403408       -0.92952571355651        2.28494349632702
H            4.35259717653592       -0.99295595608143        1.82180300871789
H            3.88194977384153       -0.19817893530441        3.32717339004904
H            4.40714851692594        1.47145527628045        1.55304705905198
H            2.71688402584001        1.58086269320035        2.04762063081810
H            4.96832777068797        0.93782568226001       -0.72231740601174
H            4.29171034559011        0.49798492666009       -3.02502439444601
H            1.93584423120215        0.00387822994749       -3.58975956830637
H            0.58493381692385        0.47896924879108        1.58976472243398
H           -0.91087619252410        0.20110017993577       -3.46670244783050
H           -1.06037790558102       -1.43792370545581       -2.81371851574007
H           -2.60788397851317        1.06297486983677       -1.96150598816320
H           -3.28272152831875       -0.43654287401531       -2.63859745270434
H           -1.39459760528388       -0.84413161545169        2.29600517189403
H           -2.99408027275798       -1.32019671445736        1.72146052609426
H           -1.93784569440812       -2.87353506528263        0.08033305854735
H           -0.34004665655575       -2.45048446732202        0.69838698122802
H           -1.49893436690644       -3.28263792574316        1.74241527250538
H           -2.20945516962566        2.02016246120565        0.13342551821260
H           -1.90180860855916        1.46197121875112        1.80109862230086
H           -5.54061600816885        1.53400812349322        0.22180349073120
