50
 energy: -70.097429665112 gnorm: 0.000281700518 xtb: 6.7.1 (edcfbbe)
O            0.01271183011443       -2.51894213473006       -2.06771584876027
C            0.18528313812873       -1.50082264909597       -1.10835648209616
C           -0.96920016545733       -1.57542422510716       -0.08314377200893
N           -2.24847106706957       -1.66245941247376       -0.79113202323698
C           -3.23989061160950       -2.18502260539394        0.14186139864587
C           -3.22726551696117       -1.37604128291074        1.45847874735333
C           -2.67715095679232       -0.34768120851307       -1.26043257238252
C           -3.13051355607621        0.53637860504697       -0.08228785778076
C           -2.94546532473590        2.04292134604713       -0.31020229165006
C           -1.52508766021548        2.58084749075354       -0.43681147570515
C           -2.47800489811908       -0.06526045582018        1.17515190614894
C           -1.00500243072557       -0.42373036823117        0.93285675006490
C            1.49570996267844       -1.70039130446915       -0.38955457183412
C            1.87774254381572       -2.97861521597473       -0.06321903952221
C            3.05599397595579       -3.18985453270787        0.66771429281491
N            3.82877067129143       -2.22821969767105        1.08557638930554
C            3.49763797674465       -0.96179205913128        0.76849362390842
C            2.33711501391087       -0.62577767070942        0.00906066646320
C            2.11486852923449        0.72738349998631       -0.29223293722858
C            2.96624540593735        1.71720742491774        0.15019341548847
O            2.63477696380312        2.98977921244555       -0.20985578578255
C            3.46490146406684        4.04975704524537        0.19815253886951
C            4.09422659726176        1.37855203210821        0.92167487983963
C            4.34920079191679        0.06845525043910        1.21287473644538
H           -0.94344712811830       -2.61223240075436       -2.19468488181318
H            0.17650957530022       -0.52695203406737       -1.61752990613648
H           -0.84544739072073       -2.53282529975906        0.43693142180004
H           -3.01555863401576       -3.23889267883399        0.32536575393768
H           -4.21530152462900       -2.13062945798248       -0.34590377508588
H           -2.71645512934815       -1.92840444731281        2.24894177604064
H           -4.24476085494525       -1.17305442317412        1.79497649903857
H           -3.49448750976770       -0.49624106959713       -1.97228017093364
H           -1.85036331139662        0.11207597448883       -1.80071365006052
H           -4.21340952916596        0.40598889720987        0.04128329507706
H           -3.49279334741900        2.29579159533703       -1.22311837487218
H           -3.43591065626739        2.56553512492082        0.51566220544813
H           -0.98200581698360        2.49645167025471        0.50058143481873
H           -0.96993246441501        2.06709460323787       -1.21740388881892
H           -1.56418046304838        3.63544869419471       -0.70262813247249
H           -2.56686686702789        0.62196457633346        2.02059246688844
H           -0.45493374448562        0.43458578642758        0.55895828890368
H           -0.53733024494160       -0.73065931169692        1.87016662150377
H            1.27408045888180       -3.81563638034601       -0.37624330395236
H            3.36415167274987       -4.19421018880787        0.93005506283045
H            1.27961094257391        1.03570685492787       -0.89918307481569
H            3.50698934934162        4.13246346493990        1.28897926382065
H            3.01098072001421        4.95067994603020       -0.21186267399326
H            4.47919820661603        3.94515532010697       -0.19947153720849
H            4.76652410959769        2.14409288253150        1.27597406805348
H            5.21610690451338       -0.21434478265896        1.78911052464383
