57
 energy: -87.646080293463 gnorm: 0.000451430409 xtb: 6.7.1 (edcfbbe)
O           -2.84235818018674        1.61616871710567        1.45667037825354
C           -3.41350196673971        0.67705241516060        0.92754133610260
C           -2.81550355018608       -0.59043989626095        0.57503898535473
C           -1.36495300897981       -0.74473188362675        0.90389520592356
C           -0.49050117750478       -0.16394741962099       -0.23223998899386
N            0.93586390173835       -0.21468130415044       -0.02102604976916
C            1.49335971968833       -1.54943965796490        0.04957295428999
C            3.00992479837116       -1.47413415815715       -0.10947533781030
C            3.60129859708054       -0.59583938217943        0.99805151692836
C            2.92283066267765        0.77756459951782        0.96010300024220
C            1.41122806016591        0.60205010956065        1.07795703066773
C            5.07878917591919       -0.47960753226734        0.86378425556098
N            5.86746530770840       -0.89472206374075        1.80738308518285
O            7.16943604388831       -0.68313882758468        1.44278460399472
C            7.17844266709052       -0.11661767219359        0.22575901902264
C            5.85304089778529        0.05243162798081       -0.22441649390739
C            5.61181724058353        0.62597612362151       -1.47249204444457
C            6.69297665571258        1.00845221497413       -2.23158497779746
C            7.99214661412385        0.82243860532233       -1.75195700260110
F            9.01358380773428        1.21328564762376       -2.53737365678344
C            8.28092768528469        0.26391331930722       -0.52663901190756
C           -3.56543271380189       -1.54117601982412       -0.05816859764585
N           -4.88096044420510       -1.35195840952725       -0.34680977447624
C           -5.43372872641705       -0.23560305608817       -0.00890651919392
N           -4.77454684615097        0.76935367443514        0.61046120763732
C           -5.49023010674010        2.00166841331265        0.85873512404559
C           -6.16467052068394        2.44746364860336       -0.43635517411757
C           -7.10762647919774        1.35795221332221       -0.97439791140178
C           -6.88252470924909        0.00909361876314       -0.27303084802205
C           -3.02278769475473       -2.87156966566112       -0.47820228487680
H           -1.11661259973629       -1.79372889378268        1.06449179729161
H           -1.16246721527982       -0.17876795444825        1.81486010559289
H           -0.70672541995062       -0.69883043712703       -1.16249842350851
H           -0.76621215786160        0.88454003780159       -0.37185620833185
H            1.06884971817431       -2.14648679885616       -0.76166591032913
H            1.25981738927648       -2.04944686993011        1.00653173270116
H            3.24226333578979       -1.04479375111588       -1.08408136166649
H            3.43774989526285       -2.47703197057138       -0.06134395246937
H            3.40291576933500       -1.06364556412231        1.96833154626762
H            3.15052620439952        1.27665770331123        0.01814974642259
H            3.28820432083041        1.39871645368699        1.77926915079358
H            1.17979920550972        0.15200851265601        2.05900133657983
H            0.91747819205061        1.57436039744855        1.02422494736963
H            4.60763156164628        0.76859685581296       -1.83765038636302
H            6.56284309989288        1.45580939636843       -3.20411049922239
H            9.29171656082965        0.13284118179559       -0.18083484161161
H           -4.75521204440566        2.73288286860442        1.20410015169544
H           -6.23211329406035        1.84448380980007        1.64845582755219
H           -6.70700415675968        3.37514404539343       -0.25663553145164
H           -5.38230649339043        2.65616957388829       -1.16810179808594
H           -8.14863631413071        1.65094597582214       -0.83421144687052
H           -6.94447462226058        1.23151672440637       -2.04488946004444
H           -7.27510375459227       -0.81310813289872       -0.86873831126884
H           -7.40278072899323        0.00987740431090        0.68918999330881
H           -2.72015469285433       -3.45052405135538        0.39329687537089
H           -3.79764529783631       -3.41441236207810       -1.01158954821181
H           -2.15595217163983       -2.75113215456773       -1.12405756098404
