33
 energy: -45.170697794643 gnorm: 0.000501701901 xtb: 6.7.1 (edcfbbe)
C            3.12422380813173        0.26787517798072       -1.00556648669923
C            3.17578354664915       -0.02075304043432        0.49180033174922
C            2.11977726228878       -1.06873178242734        0.88316085016906
C            0.72329643145524       -0.57895881198408        0.63406271537219
C            0.14729913694614        0.36365956806479        1.47681397146438
C           -1.12952884488364        0.83910579696975        1.24419164205638
C           -1.86640392786410        0.38605080336971        0.15810819053935
C           -3.26653069439688        0.90993818591662       -0.08727476698069
C           -4.21432106083062       -0.24943779865453        0.14016262476832
O           -4.33438601323559       -1.05262114142587       -0.92442084901386
O           -4.78738049215916       -0.46827801737430        1.17414831404939
C           -3.42053337716467        1.52485169810088       -1.47829962107495
C           -1.29821720296702       -0.56273611992265       -0.68167689576835
C           -0.01968018648105       -1.03412848166131       -0.44724284218029
C            4.56694944559528       -0.50338971119491        0.89403223707101
H            3.85217069959160        1.03147369628163       -1.27029405682984
H            2.13631140580386        0.61894164186988       -1.29437858954627
H            3.35076732839408       -0.63224906800899       -1.57353083354465
H            2.95570906994605        0.90683338728873        1.03177424025160
H            2.29979088347875       -1.98286826817327        0.31380245401673
H            2.23612287191456       -1.30111159428136        1.94467708878238
H            0.70314798355918        0.72524551648110        2.33014789436733
H           -1.55915221637356        1.56822419692008        1.91592036507241
H           -3.49692421059368        1.65934090601742        0.67611030968980
H           -4.91647555982937       -1.79880388747578       -0.71316438090016
H           -4.42052762656836        1.93561497692018       -1.59843623337262
H           -2.69598153419082        2.32596004294018       -1.60432682805679
H           -3.25730244984211        0.78074973590209       -2.25175071520822
H           -1.86052462757520       -0.94381377596048       -1.52077293440277
H            0.40453117726729       -1.77233376240351       -1.11290377177546
H            4.62017325915614       -0.68149949098448        1.96594552210157
H            4.80983687722109       -1.43122811852191        0.37992447150696
H            5.31787883755748        0.23887753986501        0.63275658232452
