----- Optimization -----
      -----------------------------------------------------------      
     |                   =====================                   |     
     |                           x T B                           |     
     |                   =====================                   |     
     |                         S. Grimme                         |     
     |          Mulliken Center for Theoretical Chemistry        |     
     |                    University of Bonn                     |     
      -----------------------------------------------------------      

   * xtb version 6.7.1 (edcfbbe) compiled by 'conda@3ef47c1a292c' on 2024-11-25

   xtb is free software: you can redistribute it and/or modify it under
   the terms of the GNU Lesser General Public License as published by
   the Free Software Foundation, either version 3 of the License, or
   (at your option) any later version.
   
   xtb is distributed in the hope that it will be useful,
   but WITHOUT ANY WARRANTY; without even the implied warranty of
   MERCHANTABILITY or FITNESS FOR A PARTICULAR PURPOSE.  See the
   GNU Lesser General Public License for more details.
   
   Cite this work as:
   * C. Bannwarth, E. Caldeweyher, S. Ehlert, A. Hansen, P. Pracht,
     J. Seibert, S. Spicher, S. Grimme, WIREs Comput. Mol. Sci., 2020, 11,
     e01493. DOI: 10.1002/wcms.1493
   
   for GFN2-xTB:
   * C. Bannwarth, S. Ehlert and S. Grimme., J. Chem. Theory Comput., 2019,
     15, 1652-1671. DOI: 10.1021/acs.jctc.8b01176
   for GFN1-xTB:
   * S. Grimme, C. Bannwarth, P. Shushkov, J. Chem. Theory Comput., 2017,
     13, 1989-2009. DOI: 10.1021/acs.jctc.7b00118
   for GFN0-xTB:
   * P. Pracht, E. Caldeweyher, S. Ehlert, S. Grimme, ChemRxiv, 2019, preprint.
     DOI: 10.26434/chemrxiv.8326202.v1
   for GFN-FF:
   * S. Spicher and S. Grimme, Angew. Chem. Int. Ed., 2020, 59, 15665-15673.
     DOI: 10.1002/anie.202004239
   
   for ALPB and GBSA implicit solvation:
   * S. Ehlert, M. Stahn, S. Spicher, S. Grimme, J. Chem. Theory Comput.,
     2021, 17, 4250-4261. DOI: 10.1021/acs.jctc.1c00471
   
   for ddCOSMO and CPCM-X implicit solvation:
   * M. Stahn, S. Ehlert, S. Grimme, J. Phys. Chem. A,
     2023, XX, XXXX-XXXX. DOI: 10.1021/acs.jpca.3c04382
   
   for DFT-D4:
   * E. Caldeweyher, C. Bannwarth and S. Grimme, J. Chem. Phys., 2017,
     147, 034112. DOI: 10.1063/1.4993215
   * E. Caldeweyher, S. Ehlert, A. Hansen, H. Neugebauer, S. Spicher,
     C. Bannwarth and S. Grimme, J. Chem. Phys., 2019, 150, 154122.
     DOI: 10.1063/1.5090222
   * E. Caldeweyher, J.-M. Mewes, S. Ehlert and S. Grimme, Phys. Chem. Chem. Phys.
     2020, 22, 8499-8512. DOI: 10.1039/D0CP00502A
   
   for sTDA-xTB:
   * S. Grimme and C. Bannwarth, J. Chem. Phys., 2016, 145, 054103.
     DOI: 10.1063/1.4959605
   
   in the mass-spec context:
   * V. Asgeirsson, C. Bauer and S. Grimme, Chem. Sci., 2017, 8, 4879.
     DOI: 10.1039/c7sc00601b
   * J. Koopman and S. Grimme, ACS Omega 2019, 4, 12, 15120-15133.
     DOI: 10.1021/acsomega.9b02011
   
   for metadynamics refer to:
   * S. Grimme, J. Chem. Theory Comput., 2019, 155, 2847-2862
     DOI: 10.1021/acs.jctc.9b00143
   
   for SPH calculations refer to:
   * S. Spicher and S. Grimme, J. Chem. Theory Comput., 2021, 17, 1701-1714
     DOI: 10.1021/acs.jctc.0c01306
   
   for ONIOM refer to:
   * C. Plett, A. Katbashev, S. Ehlert, S. Grimme, M. Bursch,
     Phys. Chem. Chem. Phys., 2023, 25, 17860-17868. DOI: 10.1039/D3CP02178E
   
   for DIPRO refer to:
   * J. Kohn, N. Gildemeister, S. Grimme, D. Fazzi, A. Hansen,
     J. Chem. Phys., 2023, just accepted.
   
   for PTB refer to:
   * S. Grimme, M. Mueller, A. Hansen, J. Chem. Phys., 2023, 158, 124111.
     DOI: 10.1063/5.0137838
   
   with help from (in alphabetical order)
   P. Atkinson, C. Bannwarth, F. Bohle, G. Brandenburg, E. Caldeweyher
   M. Checinski, S. Dohm, S. Ehlert, S. Ehrlich, I. Gerasimov, C. Hölzer
   A. Katbashev, J. Kohn, J. Koopman, C. Lavigne, S. Lehtola, F. März, M. Müller,
   F. Musil, H. Neugebauer, J. Pisarek, C. Plett, P. Pracht, F. Pultar,
   J. Seibert, P. Shushkov, S. Spicher, M. Stahn, M. Steiner, T. Strunk,
   J. Stückrath, T. Rose, and J. Unsleber
   
 * started run on 2025/05/15 at 16:32:03.329     
   ID    Z sym.   atoms
    1    6 C      1-9, 12-15
    2    8 O      10, 11
    3    1 H      16-33

           -------------------------------------------------
          |                Calculation Setup                |
           -------------------------------------------------

          program call               : xtb /rds/general/user/hgt20/home/callum/QDESCP/Ibuprofen_rdkit_conf_15/Ibuprofen_rdkit_conf_15.xyz --opt normal --acc 1 --gfn 2 --chrg 0 --uhf 0 -P 1
          hostname                   : login-c
          coordinate file            : /rds/general/user/hgt20/home/callum/QDESCP/Ibuprofen_rdkit_conf_15/Ibuprofen_rdkit_conf_15.xyz
          omp threads                :                     1


           -------------------------------------------------
          |                 G F N 2 - x T B                 |
           -------------------------------------------------

        Reference                      10.1021/acs.jctc.8b01176
      * Hamiltonian:
        H0-scaling (s, p, d)           1.850000    2.230000    2.230000
        zeta-weighting                 0.500000
      * Dispersion:
        s8                             2.700000
        a1                             0.520000
        a2                             5.000000
        s9                             5.000000
      * Repulsion:
        kExp                           1.500000    1.000000
        rExp                           1.000000
      * Coulomb:
        alpha                          2.000000
        third order                    shell-resolved
        anisotropic                    true
        a3                             3.000000
        a5                             4.000000
        cn-shift                       1.200000
        cn-exp                         4.000000
        max-rad                        5.000000


          ...................................................
          :                      SETUP                      :
          :.................................................:
          :  # basis functions                  78          :
          :  # atomic orbitals                  78          :
          :  # shells                           48          :
          :  # electrons                        82          :
          :  max. iterations                   250          :
          :  Hamiltonian                  GFN2-xTB          :
          :  restarted?                      false          :
          :  GBSA solvation                  false          :
          :  PC potential                    false          :
          :  electronic temp.          300.0000000     K    :
          :  accuracy                    1.0000000          :
          :  -> integral cutoff          0.2500000E+02      :
          :  -> integral neglect         0.1000000E-07      :
          :  -> SCF convergence          0.1000000E-05 Eh   :
          :  -> wf. convergence          0.1000000E-03 e    :
          :  Broyden damping             0.4000000          :
          :  net charge                          0          :
          :  unpaired electrons                  0          :
          ...................................................

 iter      E             dE          RMSdq      gap      omega  full diag
   1    -45.7099259 -0.457099E+02  0.352E+00    4.36       0.0  T
   2    -45.7791792 -0.692532E-01  0.194E+00    4.04       1.0  T
   3    -45.7816320 -0.245280E-02  0.101E+00    4.19       1.0  T
   4    -45.7870446 -0.541268E-02  0.188E-01    3.83       1.0  T
   5    -45.7874641 -0.419454E-03  0.737E-02    3.85       1.0  T
   6    -45.7874987 -0.346427E-04  0.414E-02    3.87       1.0  T
   7    -45.7875252 -0.265098E-04  0.125E-02    3.88       1.4  T
   8    -45.7875273 -0.204953E-05  0.453E-03    3.88       3.8  T
   9    -45.7875276 -0.271249E-06  0.210E-03    3.88       8.3  T
  10    -45.7875276 -0.391634E-07  0.846E-04    3.88      20.6  T
  11    -45.7875276 -0.918957E-08  0.397E-04    3.88      43.8  T

   *** convergence criteria satisfied after 11 iterations ***

         #    Occupation            Energy/Eh            Energy/eV
      -------------------------------------------------------------
         1        2.0000           -0.7437822             -20.2393
       ...           ...                  ...                  ...
        35        2.0000           -0.4363944             -11.8749
        36        2.0000           -0.4280313             -11.6473
        37        2.0000           -0.4236130             -11.5271
        38        2.0000           -0.4200166             -11.4292
        39        2.0000           -0.4155652             -11.3081
        40        2.0000           -0.4014706             -10.9246
        41        2.0000           -0.3885470             -10.5729 (HOMO)
        42                         -0.2460243              -6.6947 (LUMO)
        43                         -0.2254766              -6.1355
        44                         -0.2212536              -6.0206
        45                         -0.1031513              -2.8069
        46                          0.0527470               1.4353
       ...                                ...                  ...
        78                          0.6185919              16.8327
      -------------------------------------------------------------
                  HL-Gap            0.1425227 Eh            3.8782 eV
             Fermi-level           -0.3172856 Eh           -8.6338 eV

 SCC (total)                   0 d,  0 h,  0 min,  0.031 sec
 SCC setup                      ...        0 min,  0.000 sec (  0.818%)
 Dispersion                     ...        0 min,  0.000 sec (  0.921%)
 classical contributions        ...        0 min,  0.000 sec (  0.330%)
 integral evaluation            ...        0 min,  0.004 sec ( 13.970%)
 iterations                     ...        0 min,  0.013 sec ( 43.340%)
 molecular gradient             ...        0 min,  0.012 sec ( 40.255%)
 printout                       ...        0 min,  0.000 sec (  0.347%)

         :::::::::::::::::::::::::::::::::::::::::::::::::::::
         ::                     SUMMARY                     ::
         :::::::::::::::::::::::::::::::::::::::::::::::::::::
         :: total energy             -45.164622005373 Eh    ::
         :: gradient norm              0.053150664421 Eh/a0 ::
         :: HOMO-LUMO gap              3.878239134982 eV    ::
         ::.................................................::
         :: SCC energy               -45.787412434700 Eh    ::
         :: -> isotropic ES            0.052747898534 Eh    ::
         :: -> anisotropic ES          0.007537195433 Eh    ::
         :: -> anisotropic XC          0.019712939450 Eh    ::
         :: -> dispersion             -0.028878165814 Eh    ::
         :: repulsion energy           0.622790429326 Eh    ::
         :: add. restraining           0.000000000000 Eh    ::
         :: total charge               0.000000000000 e     ::
         :::::::::::::::::::::::::::::::::::::::::::::::::::::

      ----------------------------------------------------------- 
     |                   =====================                   |
     |                        A N C O P T                        |
     |                   =====================                   |
     |               Approximate Normal Coordinate               |
     |                Rational Function Optimizer                |
      ----------------------------------------------------------- 
      ----------------------------------------------------------- 
     |                   =====================                   |
     |                        A N C O P T                        |
     |                   =====================                   |
     |               Approximate Normal Coordinate               |
     |                Rational Function Optimizer                |
      ----------------------------------------------------------- 

          ...................................................
          :                      SETUP                      :
          :.................................................:
          :   optimization level            normal          :
          :   max. optcycles                   200          :
          :   ANC micro-cycles                  20          :
          :   degrees of freedom                93          :
          :.................................................:
          :   RF solver                   davidson          :
          :   write xtbopt.log                true          :
          :   linear?                        false          :
          :   energy convergence         0.5000000E-05 Eh   :
          :   grad. convergence          0.1000000E-02 Eh/α :
          :   maxmium RF displ.          1.0000000          :
          :   Hlow (freq-cutoff)         0.1000000E-01      :
          :   Hmax (freq-cutoff)         5.0000000          :
          :   S6 in model hess.         20.0000000          :
          ...................................................

generating ANC from exact Hessian ...
Using Lindh-Hessian (1995)
 Shifting diagonal of input Hessian by    9.6312480448452371E-003
 Lowest  eigenvalues of input Hessian
    0.000000    0.000000    0.000000    0.000000    0.000000    0.000000
    0.010000    0.010403    0.010764    0.011587    0.012110    0.013280
    0.016179    0.016548    0.017831    0.018228    0.018406    0.018991
 Highest eigenvalues
    1.557049    1.691330    1.822868    1.895527    1.934944    2.242338


........................................................................
.............................. CYCLE    1 ..............................
........................................................................

 iter      E             dE          RMSdq      gap      omega  full diag
   1    -45.7875276 -0.457875E+02  0.187E-04    3.88       0.0  T
   2    -45.7875276 -0.298378E-09  0.122E-04    3.88     143.1  T
   3    -45.7875276 -0.194596E-09  0.758E-05    3.88     229.5  T
     SCC iter.                  ...        0 min,  0.004 sec
     gradient                   ...        0 min,  0.012 sec
 * total energy  :   -45.1646220 Eh     change       -0.1321105E-08 Eh
   gradient norm :     0.0531566 Eh/α   predicted     0.0000000E+00 (-100.00%)
   displ. norm   :     0.2489510 α      lambda       -0.6635261E-02
   maximum displ.:     0.0707187 α      in ANC's #7, #16, #14, ...

........................................................................
.............................. CYCLE    2 ..............................
........................................................................

 iter      E             dE          RMSdq      gap      omega  full diag
   1    -45.8216318 -0.458216E+02  0.166E-01    4.07       0.0  T
   2    -45.8216789 -0.471184E-04  0.988E-02    4.04       1.0  T
   3    -45.8216721  0.684156E-05  0.296E-02    4.05       1.0  T
   4    -45.8216839 -0.118716E-04  0.454E-03    4.04       3.8  T
   5    -45.8216842 -0.272584E-06  0.251E-03    4.04       6.9  T
   6    -45.8216842 -0.406828E-07  0.144E-03    4.04      12.1  T
   7    -45.8216843 -0.208847E-07  0.362E-04    4.04      48.1  T
   8    -45.8216843 -0.140026E-08  0.162E-04    4.04     107.7  T
     SCC iter.                  ...        0 min,  0.009 sec
     gradient                   ...        0 min,  0.012 sec
 * total energy  :   -45.1687604 Eh     change       -0.4138424E-02 Eh
   gradient norm :     0.0161026 Eh/α   predicted    -0.3523941E-02 ( -14.85%)
   displ. norm   :     0.2336988 α      lambda       -0.1622101E-02
   maximum displ.:     0.1176885 α      in ANC's #4, #6, #3, ...

........................................................................
.............................. CYCLE    3 ..............................
........................................................................

 iter      E             dE          RMSdq      gap      omega  full diag
   1    -45.8367879 -0.458368E+02  0.929E-02    4.10       0.0  T
   2    -45.8368005 -0.125406E-04  0.547E-02    4.08       1.0  T
   3    -45.8367982  0.226698E-05  0.155E-02    4.09       1.1  T
   4    -45.8368018 -0.356734E-05  0.335E-03    4.09       5.2  T
   5    -45.8368020 -0.267916E-06  0.167E-03    4.09      10.4  T
   6    -45.8368021 -0.365822E-07  0.868E-04    4.09      20.1  T
   7    -45.8368021 -0.675043E-08  0.245E-04    4.09      71.1  T
     SCC iter.                  ...        0 min,  0.008 sec
     gradient                   ...        0 min,  0.012 sec
 * total energy  :   -45.1697007 Eh     change       -0.9402627E-03 Eh
   gradient norm :     0.0090883 Eh/α   predicted    -0.8553512E-03 (  -9.03%)
   displ. norm   :     0.1978113 α      lambda       -0.5771853E-03
   maximum displ.:     0.1160790 α      in ANC's #4, #3, #5, ...

........................................................................
.............................. CYCLE    4 ..............................
........................................................................

 iter      E             dE          RMSdq      gap      omega  full diag
   1    -45.8385230 -0.458385E+02  0.644E-02    4.08       0.0  T
   2    -45.8385242 -0.121771E-05  0.381E-02    4.08       1.0  T
   3    -45.8385239  0.330446E-06  0.544E-03    4.08       3.2  T
   4    -45.8385246 -0.723943E-06  0.178E-03    4.08       9.8  T
   5    -45.8385246 -0.535938E-08  0.986E-04    4.08      17.7  T
   6    -45.8385246 -0.143265E-07  0.370E-04    4.08      47.0  T
     SCC iter.                  ...        0 min,  0.007 sec
     gradient                   ...        0 min,  0.025 sec
 * total energy  :   -45.1700854 Eh     change       -0.3847040E-03 Eh
   gradient norm :     0.0061371 Eh/α   predicted    -0.2998900E-03 ( -22.05%)
   displ. norm   :     0.2269981 α      lambda       -0.3464385E-03
   maximum displ.:     0.1515958 α      in ANC's #4, #3, #5, ...

........................................................................
.............................. CYCLE    5 ..............................
........................................................................

 iter      E             dE          RMSdq      gap      omega  full diag
   1    -45.8361721 -0.458362E+02  0.645E-02    4.06       0.0  T
   2    -45.8361727 -0.620833E-06  0.381E-02    4.06       1.0  T
   3    -45.8361727  0.328045E-07  0.334E-03    4.06       5.2  T
   4    -45.8361729 -0.257191E-06  0.147E-03    4.06      11.8  T
   5    -45.8361729 -0.109118E-07  0.680E-04    4.06      25.6  T
   6    -45.8361729 -0.353398E-08  0.244E-04    4.06      71.4  T
     SCC iter.                  ...        0 min,  0.007 sec
     gradient                   ...        0 min,  0.013 sec
 * total energy  :   -45.1703204 Eh     change       -0.2350095E-03 Eh
   gradient norm :     0.0036581 Eh/α   predicted    -0.1821536E-03 ( -22.49%)
   displ. norm   :     0.1650639 α      lambda       -0.1504149E-03
   maximum displ.:     0.1081886 α      in ANC's #4, #3, #5, ...

........................................................................
.............................. CYCLE    6 ..............................
........................................................................

 iter      E             dE          RMSdq      gap      omega  full diag
   1    -45.8349157 -0.458349E+02  0.447E-02    4.06       0.0  T
   2    -45.8349160 -0.233440E-06  0.263E-02    4.06       1.0  T
   3    -45.8349159  0.606090E-07  0.221E-03    4.06       7.9  T
   4    -45.8349161 -0.135248E-06  0.767E-04    4.06      22.7  T
   5    -45.8349161 -0.253505E-08  0.386E-04    4.06      45.1  T
     SCC iter.                  ...        0 min,  0.006 sec
     gradient                   ...        0 min,  0.012 sec
 * total energy  :   -45.1704325 Eh     change       -0.1121155E-03 Eh
   gradient norm :     0.0025749 Eh/α   predicted    -0.7725957E-04 ( -31.09%)
   displ. norm   :     0.1614818 α      lambda       -0.1065245E-03
   maximum displ.:     0.0984917 α      in ANC's #4, #3, #5, ...

........................................................................
.............................. CYCLE    7 ..............................
........................................................................

 iter      E             dE          RMSdq      gap      omega  full diag
   1    -45.8348812 -0.458349E+02  0.396E-02    4.06       0.0  T
   2    -45.8348813 -0.146674E-06  0.233E-02    4.06       1.0  T
   3    -45.8348813  0.253596E-07  0.159E-03    4.06      11.0  T
   4    -45.8348813 -0.659315E-07  0.570E-04    4.06      30.6  T
   5    -45.8348814 -0.222524E-08  0.272E-04    4.06      64.0  T
     SCC iter.                  ...        0 min,  0.006 sec
     gradient                   ...        0 min,  0.012 sec
 * total energy  :   -45.1705116 Eh     change       -0.7902938E-04 Eh
   gradient norm :     0.0023738 Eh/α   predicted    -0.5465290E-04 ( -30.84%)
   displ. norm   :     0.1554861 α      lambda       -0.7177451E-04
   maximum displ.:     0.0885670 α      in ANC's #4, #3, #5, ...

........................................................................
.............................. CYCLE    8 ..............................
........................................................................

 iter      E             dE          RMSdq      gap      omega  full diag
   1    -45.8354982 -0.458355E+02  0.358E-02    4.06       0.0  T
   2    -45.8354983 -0.123602E-06  0.211E-02    4.06       1.0  T
   3    -45.8354983 -0.728414E-08  0.116E-03    4.06      15.1  T
   4    -45.8354983 -0.250859E-07  0.577E-04    4.06      30.2  T
   5    -45.8354983 -0.418566E-08  0.278E-04    4.06      62.6  T
     SCC iter.                  ...        0 min,  0.006 sec
     gradient                   ...        0 min,  0.012 sec
 * total energy  :   -45.1705629 Eh     change       -0.5134605E-04 Eh
   gradient norm :     0.0022007 Eh/α   predicted    -0.3675701E-04 ( -28.41%)
   displ. norm   :     0.1198658 α      lambda       -0.4077503E-04
   maximum displ.:     0.0670541 α      in ANC's #3, #4, #1, ...

........................................................................
.............................. CYCLE    9 ..............................
........................................................................

 iter      E             dE          RMSdq      gap      omega  full diag
   1    -45.8361695 -0.458362E+02  0.266E-02    4.05       0.0  T
   2    -45.8361696 -0.101130E-06  0.157E-02    4.06       1.1  T
   3    -45.8361696  0.396257E-07  0.162E-03    4.06      10.8  T
   4    -45.8361697 -0.818801E-07  0.614E-04    4.06      28.4  T
   5    -45.8361697 -0.286758E-08  0.327E-04    4.06      53.3  T
     SCC iter.                  ...        0 min,  0.006 sec
     gradient                   ...        0 min,  0.013 sec
 * total energy  :   -45.1705918 Eh     change       -0.2887578E-04 Eh
   gradient norm :     0.0017347 Eh/α   predicted    -0.2068116E-04 ( -28.38%)
   displ. norm   :     0.1251366 α      lambda       -0.2466700E-04
   maximum displ.:     0.0707518 α      in ANC's #3, #1, #4, ...

........................................................................
.............................. CYCLE   10 ..............................
........................................................................

 iter      E             dE          RMSdq      gap      omega  full diag
   1    -45.8367600 -0.458368E+02  0.311E-02    4.05       0.0  T
   2    -45.8367603 -0.244192E-06  0.182E-02    4.05       1.0  T
   3    -45.8367600  0.304133E-06  0.342E-03    4.05       5.1  T
   4    -45.8367604 -0.439257E-06  0.934E-04    4.05      18.6  T
   5    -45.8367604 -0.364871E-08  0.520E-04    4.05      33.5  T
     SCC iter.                  ...        0 min,  0.006 sec
     gradient                   ...        0 min,  0.012 sec
 * total energy  :   -45.1706143 Eh     change       -0.2256499E-04 Eh
   gradient norm :     0.0016897 Eh/α   predicted    -0.1242406E-04 ( -44.94%)
   displ. norm   :     0.0657316 α      lambda       -0.1399622E-04
   maximum displ.:     0.0339523 α      in ANC's #1, #5, #3, ...

........................................................................
.............................. CYCLE   11 ..............................
........................................................................

 iter      E             dE          RMSdq      gap      omega  full diag
   1    -45.8366558 -0.458367E+02  0.236E-02    4.05       0.0  T
   2    -45.8366559 -0.173038E-06  0.139E-02    4.05       1.2  T
   3    -45.8366557  0.203465E-06  0.268E-03    4.05       6.5  T
   4    -45.8366560 -0.278274E-06  0.673E-04    4.05      25.9  T
   5    -45.8366560 -0.354436E-08  0.378E-04    4.05      46.0  T
     SCC iter.                  ...        0 min,  0.005 sec
     gradient                   ...        0 min,  0.027 sec
 * total energy  :   -45.1706317 Eh     change       -0.1741102E-04 Eh
   gradient norm :     0.0015849 Eh/α   predicted    -0.7011807E-05 ( -59.73%)
   displ. norm   :     0.1511607 α      lambda       -0.2584453E-04
   maximum displ.:     0.0805900 α      in ANC's #1, #3, #5, ...

........................................................................
.............................. CYCLE   12 ..............................
........................................................................

 iter      E             dE          RMSdq      gap      omega  full diag
   1    -45.8359084 -0.458359E+02  0.546E-02    4.05       0.0  T
   2    -45.8359090 -0.638971E-06  0.321E-02    4.05       1.0  T
   3    -45.8359085  0.572096E-06  0.488E-03    4.04       3.6  T
   4    -45.8359094 -0.905745E-06  0.149E-03    4.05      11.7  T
   5    -45.8359094 -0.886394E-08  0.790E-04    4.05      22.0  T
   6    -45.8359094 -0.180196E-08  0.279E-04    4.05      62.5  T
     SCC iter.                  ...        0 min,  0.007 sec
     gradient                   ...        0 min,  0.013 sec
 * total energy  :   -45.1706583 Eh     change       -0.2651325E-04 Eh
   gradient norm :     0.0024086 Eh/α   predicted    -0.1305849E-04 ( -50.75%)
   displ. norm   :     0.0734010 α      lambda       -0.1407727E-04
   maximum displ.:     0.0425909 α      in ANC's #1, #3, #5, ...

........................................................................
.............................. CYCLE   13 ..............................
........................................................................

 iter      E             dE          RMSdq      gap      omega  full diag
   1    -45.8359644 -0.458360E+02  0.244E-02    4.05       0.0  T
   2    -45.8359646 -0.135810E-06  0.144E-02    4.05       1.2  T
   3    -45.8359645  0.876313E-07  0.206E-03    4.05       8.4  T
   4    -45.8359646 -0.148381E-06  0.641E-04    4.05      27.2  T
   5    -45.8359646 -0.144135E-08  0.373E-04    4.05      46.6  T
     SCC iter.                  ...        0 min,  0.006 sec
     gradient                   ...        0 min,  0.012 sec
 * total energy  :   -45.1706699 Eh     change       -0.1168680E-04 Eh
   gradient norm :     0.0017670 Eh/α   predicted    -0.7079554E-05 ( -39.42%)
   displ. norm   :     0.1863176 α      lambda       -0.1907487E-04
   maximum displ.:     0.1102487 α      in ANC's #1, #3, #2, ...

........................................................................
.............................. CYCLE   14 ..............................
........................................................................

 iter      E             dE          RMSdq      gap      omega  full diag
   1    -45.8358185 -0.458358E+02  0.569E-02    4.05       0.0  T
   2    -45.8358192 -0.618027E-06  0.335E-02    4.05       1.0  T
   3    -45.8358190  0.153786E-06  0.371E-03    4.05       4.7  T
   4    -45.8358195 -0.451081E-06  0.153E-03    4.05      11.4  T
   5    -45.8358195 -0.143381E-07  0.779E-04    4.05      22.4  T
   6    -45.8358195 -0.184411E-08  0.267E-04    4.05      65.3  T
     SCC iter.                  ...        0 min,  0.007 sec
     gradient                   ...        0 min,  0.012 sec
 * total energy  :   -45.1706875 Eh     change       -0.1759901E-04 Eh
   gradient norm :     0.0012119 Eh/α   predicted    -0.9684986E-05 ( -44.97%)
   displ. norm   :     0.0629965 α      lambda       -0.5679932E-05
   maximum displ.:     0.0405902 α      in ANC's #1, #3, #2, ...

........................................................................
.............................. CYCLE   15 ..............................
........................................................................

 iter      E             dE          RMSdq      gap      omega  full diag
   1    -45.8363409 -0.458363E+02  0.132E-02    4.06       0.0  T
   2    -45.8363410 -0.132047E-06  0.783E-03    4.06       2.2  T
   3    -45.8363410  0.272375E-07  0.150E-03    4.06      11.6  T
   4    -45.8363410 -0.493528E-07  0.347E-04    4.06      50.1  T
   5    -45.8363410 -0.871871E-09  0.213E-04    4.06      81.8  T
     SCC iter.                  ...        0 min,  0.021 sec
     gradient                   ...        0 min,  0.013 sec
 * total energy  :   -45.1706934 Eh     change       -0.5821593E-05 Eh
   gradient norm :     0.0010002 Eh/α   predicted    -0.2846658E-05 ( -51.10%)
   displ. norm   :     0.0815173 α      lambda       -0.4582325E-05
   maximum displ.:     0.0509310 α      in ANC's #1, #3, #2, ...

........................................................................
.............................. CYCLE   16 ..............................
........................................................................

 iter      E             dE          RMSdq      gap      omega  full diag
   1    -45.8363348 -0.458363E+02  0.173E-02    4.05       0.0  T
   2    -45.8363349 -0.842885E-07  0.101E-02    4.05       1.7  T
   3    -45.8363349  0.309325E-07  0.156E-03    4.05      11.2  T
   4    -45.8363349 -0.646666E-07  0.474E-04    4.05      36.7  T
   5    -45.8363349 -0.458364E-09  0.288E-04    4.05      60.5  T
     SCC iter.                  ...        0 min,  0.005 sec
     gradient                   ...        0 min,  0.012 sec
 * total energy  :   -45.1706978 Eh     change       -0.4423455E-05 Eh
   gradient norm :     0.0005045 Eh/α   predicted    -0.2299512E-05 ( -48.02%)
   displ. norm   :     0.0844120 α      lambda        0.2511172E-05
   maximum displ.:     0.0528494 α      in ANC's #1, #3, #2, ...

   *** GEOMETRY OPTIMIZATION CONVERGED AFTER 16 ITERATIONS ***

------------------------------------------------------------------------
 total energy gain   :        -0.0060758 Eh       -3.8126 kcal/mol
 total RMSD          :         0.2801883 a0        0.1483 Å
 total power (kW/mol):        -0.9969987 (step)  -35.3715 (real)
------------------------------------------------------------------------

 ANCopt (total)                0 d,  0 h,  0 min,  0.451 sec
 optimizer setup                ...        0 min,  0.000 sec (  0.017%)
 model hessian                  ...        0 min,  0.011 sec (  2.509%)
 ANC generation                 ...        0 min,  0.001 sec (  0.225%)
 coordinate transformation      ...        0 min,  0.000 sec (  0.018%)
 single point calculation       ...        0 min,  0.434 sec ( 96.174%)
 optimization log               ...        0 min,  0.003 sec (  0.713%)
 hessian update                 ...        0 min,  0.000 sec (  0.033%)
 rational function              ...        0 min,  0.001 sec (  0.197%)

================
 final structure:
================
33
 xtb: 6.7.1 (edcfbbe)
C            3.12422380813173        0.26787517798072       -1.00556648669923
C            3.17578354664915       -0.02075304043432        0.49180033174922
C            2.11977726228878       -1.06873178242734        0.88316085016906
C            0.72329643145524       -0.57895881198408        0.63406271537219
C            0.14729913694614        0.36365956806479        1.47681397146438
C           -1.12952884488364        0.83910579696975        1.24419164205638
C           -1.86640392786410        0.38605080336971        0.15810819053935
C           -3.26653069439688        0.90993818591662       -0.08727476698069
C           -4.21432106083062       -0.24943779865453        0.14016262476832
O           -4.33438601323559       -1.05262114142587       -0.92442084901386
O           -4.78738049215916       -0.46827801737430        1.17414831404939
C           -3.42053337716467        1.52485169810088       -1.47829962107495
C           -1.29821720296702       -0.56273611992265       -0.68167689576835
C           -0.01968018648105       -1.03412848166131       -0.44724284218029
C            4.56694944559528       -0.50338971119491        0.89403223707101
H            3.85217069959160        1.03147369628163       -1.27029405682984
H            2.13631140580386        0.61894164186988       -1.29437858954627
H            3.35076732839408       -0.63224906800899       -1.57353083354465
H            2.95570906994605        0.90683338728873        1.03177424025160
H            2.29979088347875       -1.98286826817327        0.31380245401673
H            2.23612287191456       -1.30111159428136        1.94467708878238
H            0.70314798355918        0.72524551648110        2.33014789436733
H           -1.55915221637356        1.56822419692008        1.91592036507241
H           -3.49692421059368        1.65934090601742        0.67611030968980
H           -4.91647555982937       -1.79880388747578       -0.71316438090016
H           -4.42052762656836        1.93561497692018       -1.59843623337262
H           -2.69598153419082        2.32596004294018       -1.60432682805679
H           -3.25730244984211        0.78074973590209       -2.25175071520822
H           -1.86052462757520       -0.94381377596048       -1.52077293440277
H            0.40453117726729       -1.77233376240351       -1.11290377177546
H            4.62017325915614       -0.68149949098448        1.96594552210157
H            4.80983687722109       -1.43122811852191        0.37992447150696
H            5.31787883755748        0.23887753986501        0.63275658232452

 Bond Distances (Angstroems)
 ---------------------------
C1-C2=1.5258         C1-H16=1.0877        C1-H17=1.0875        C1-H18=1.0882        C2-C1=1.5258         C2-C3=1.5384         
C2-C15=1.5265        C2-H19=1.0956        C3-C2=1.5384         C3-C4=1.5007         C3-H20=1.0919        C3-H21=1.0929        
C4-C3=1.5007         C4-C5=1.3894         C4-C14=1.3887        C5-C4=1.3894         C5-C6=1.3822         C5-H22=1.0807        
C6-C5=1.3822         C6-C7=1.3885         C6-H23=1.0805        C7-C6=1.3885         C7-C8=1.5149         C7-C13=1.3886        
C8-C7=1.5149         C8-C9=1.5147         C8-C12=1.5287        C8-H24=1.0943        C9-C8=1.5147         C9-O10=1.3390        
C9-O11=1.2023        O10-C9=1.3390        O10-H25=0.9697       O11-C9=1.2023        C12-C8=1.5287        C12-H26=1.0877       
C12-H27=1.0875       C12-H28=1.0856       C13-C7=1.3886        C13-C14=1.3827       C13-H29=1.0796       C14-C4=1.3887        
C14-C13=1.3827       C14-H30=1.0807       C15-C2=1.5265        C15-H31=1.0879       C15-H32=1.0882       C15-H33=1.0877       
H16-C1=1.0877        H17-C1=1.0875        H18-C1=1.0882        H19-C2=1.0956        H20-C3=1.0919        H21-C3=1.0929        
H22-C5=1.0807        H23-C6=1.0805        H24-C8=1.0943        H25-O10=0.9697       H26-C12=1.0877       H27-C12=1.0875       
H28-C12=1.0856       H29-C13=1.0796       H30-C14=1.0807       H31-C15=1.0879       H32-C15=1.0882       H33-C15=1.0877       
 C  H  Rav=1.0873 sigma=0.0047  Rmin=1.0796  Rmax=1.0956    17
 C  C  Rav=1.4592 sigma=0.0677  Rmin=1.3822  Rmax=1.5384    13
 O  H  Rav=0.9697 sigma=0.0000  Rmin=0.9697  Rmax=0.9697     1
 O  C  Rav=1.2706 sigma=0.0684  Rmin=1.2023  Rmax=1.3390     2

 selected bond angles (degree)
 --------------------
H16-C1-C2=110.43               H17-C1-C2=110.63               H17-C1-H16=108.46              H18-C1-C2=110.41               
H18-C1-H16=108.32              H18-C1-H17=108.51              C3-C2-C1=110.81                C15-C2-C1=110.44               
C15-C2-C3=110.07               H19-C2-C1=108.46               H19-C2-C3=108.27               H19-C2-C15=108.72              
C4-C3-C2=111.98                H20-C3-C2=108.94               H20-C3-C4=109.88               H21-C3-C2=108.59               
H21-C3-C4=109.25               H21-C3-H20=108.11              C5-C4-C3=120.43                C14-C4-C3=121.34               
C14-C4-C5=118.22               C6-C5-C4=120.95                H22-C5-C4=119.52               H22-C5-C6=119.53               
C7-C6-C5=120.64                H23-C6-C5=119.66               H23-C6-C7=119.70               C8-C7-C6=120.29                
C13-C7-C6=118.61               C13-C7-C8=121.10               C9-C8-C7=106.82                C12-C8-C7=112.31               
C12-C8-C9=112.43               H24-C8-C7=108.57               H24-C8-C9=106.72               H24-C8-C12=109.76              
O10-C9-C8=113.32               O11-C9-C8=124.52               O11-C9-O10=122.13              H25-O10-C9=110.01              

 selected dihedral angles (degree)
 ---------------------------------
C3-C2-C1-H16=178.26           C3-C2-C1-H17= 58.17           C3-C2-C1-H18=298.03           C15-C2-C1-H16=300.50          
C15-C2-C1-H17=180.41          C15-C2-C1-H18= 60.27          H19-C2-C1-H16= 59.55          H19-C2-C1-H17=299.45          
H19-C2-C1-H18=179.31          C4-C3-C2-C1=296.67            C4-C3-C2-C15=174.21           C4-C3-C2-H19= 55.50           
H20-C3-C2-C1= 58.41           H20-C3-C2-C15=295.96          H20-C3-C2-H19=177.25          H21-C3-C2-C1=175.95           
H21-C3-C2-C15= 53.49          H21-C3-C2-H19=294.78          C5-C4-C3-C2=285.44            C5-C4-C3-H20=164.23           
C5-C4-C3-H21= 45.78           C14-C4-C3-C2=104.46           C14-C4-C3-H20=343.26          C14-C4-C3-H21=224.80          
C6-C5-C4-C3=178.88            C6-C5-C4-C14=359.83           H22-C5-C4-C3=358.47           H22-C5-C4-C14=179.41          
C7-C6-C5-C4=359.86            C7-C6-C5-H22=180.28           H23-C6-C5-C4=179.68           H23-C6-C5-H22=  0.10          
C8-C7-C6-C5=179.84            C8-C7-C6-H23=  0.02           C13-C7-C6-C5=  0.56           C13-C7-C6-H23=180.75          
C9-C8-C7-C6=247.34            C9-C8-C7-C13= 66.60           C12-C8-C7-C6=123.64           C12-C8-C7-C13=302.90          
H24-C8-C7-C6=  2.08           H24-C8-C7-C13=181.34          O10-C9-C8-C7=277.21           O10-C9-C8-C12= 40.83          
O10-C9-C8-H24=161.22          O11-C9-C8-C7= 95.41           O11-C9-C8-C12=219.03          O11-C9-C8-H24=339.42          
H25-O10-C9-C8=177.30          H25-O10-C9-O11=359.05         
           -------------------------------------------------
          |                Final Singlepoint                |
           -------------------------------------------------

          ...................................................
          :                      SETUP                      :
          :.................................................:
          :  # basis functions                  78          :
          :  # atomic orbitals                  78          :
          :  # shells                           48          :
          :  # electrons                        82          :
          :  max. iterations                   250          :
          :  Hamiltonian                  GFN2-xTB          :
          :  restarted?                      false          :
          :  GBSA solvation                  false          :
          :  PC potential                    false          :
          :  electronic temp.          300.0000000     K    :
          :  accuracy                    1.0000000          :
          :  -> integral cutoff          0.2500000E+02      :
          :  -> integral neglect         0.1000000E-07      :
          :  -> SCF convergence          0.1000000E-05 Eh   :
          :  -> wf. convergence          0.1000000E-03 e    :
          :  Broyden damping             0.4000000          :
          :  net charge                          0          :
          :  unpaired electrons                  0          :
          ...................................................

 iter      E             dE          RMSdq      gap      omega  full diag
   1    -45.8363349 -0.458363E+02  0.814E-05    4.05       0.0  T
   2    -45.8363349 -0.506688E-10  0.543E-05    4.05     320.4  T
   3    -45.8363349 -0.372040E-10  0.346E-05    4.05     503.1  T

   *** convergence criteria satisfied after 3 iterations ***

         #    Occupation            Energy/Eh            Energy/eV
      -------------------------------------------------------------
         1        2.0000           -0.7443366             -20.2544
       ...           ...                  ...                  ...
        35        2.0000           -0.4362422             -11.8708
        36        2.0000           -0.4276649             -11.6374
        37        2.0000           -0.4226187             -11.5000
        38        2.0000           -0.4181567             -11.3786
        39        2.0000           -0.4139495             -11.2641
        40        2.0000           -0.4027767             -10.9601
        41        2.0000           -0.3877516             -10.5513 (HOMO)
        42                         -0.2388361              -6.4991 (LUMO)
        43                         -0.2211837              -6.0187
        44                         -0.2141444              -5.8272
        45                         -0.0943906              -2.5685
        46                          0.0566455               1.5414
       ...                                ...                  ...
        78                          0.6578436              17.9008
      -------------------------------------------------------------
                  HL-Gap            0.1489154 Eh            4.0522 eV
             Fermi-level           -0.3132939 Eh           -8.5252 eV

 SCC (total)                   0 d,  0 h,  0 min,  0.021 sec
 SCC setup                      ...        0 min,  0.000 sec (  0.933%)
 Dispersion                     ...        0 min,  0.000 sec (  0.854%)
 classical contributions        ...        0 min,  0.000 sec (  0.406%)
 integral evaluation            ...        0 min,  0.004 sec ( 20.262%)
 iterations                     ...        0 min,  0.003 sec ( 16.127%)
 molecular gradient             ...        0 min,  0.013 sec ( 60.921%)
 printout                       ...        0 min,  0.000 sec (  0.463%)

         :::::::::::::::::::::::::::::::::::::::::::::::::::::
         ::                     SUMMARY                     ::
         :::::::::::::::::::::::::::::::::::::::::::::::::::::
         :: total energy             -45.170697794643 Eh    ::
         :: gradient norm              0.000501701901 Eh/a0 ::
         :: HOMO-LUMO gap              4.052195487863 eV    ::
         ::.................................................::
         :: SCC energy               -45.836211941863 Eh    ::
         :: -> isotropic ES            0.052386163380 Eh    ::
         :: -> anisotropic ES          0.006504886807 Eh    ::
         :: -> anisotropic XC          0.018361932330 Eh    ::
         :: -> dispersion             -0.029505755176 Eh    ::
         :: repulsion energy           0.665514147220 Eh    ::
         :: add. restraining           0.000000000000 Eh    ::
         :: total charge               0.000000000000 e     ::
         :::::::::::::::::::::::::::::::::::::::::::::::::::::

           -------------------------------------------------
          |                Property Printout                |
           -------------------------------------------------

    * Orbital Energies and Occupations

         #    Occupation            Energy/Eh            Energy/eV
      -------------------------------------------------------------
         1        2.0000           -0.7443366             -20.2544
       ...           ...                  ...                  ...
        29        2.0000           -0.4694440             -12.7742
        30        2.0000           -0.4634523             -12.6112
        31        2.0000           -0.4627220             -12.5913
        32        2.0000           -0.4522874             -12.3074
        33        2.0000           -0.4485579             -12.2059
        34        2.0000           -0.4433665             -12.0646
        35        2.0000           -0.4362422             -11.8708
        36        2.0000           -0.4276649             -11.6374
        37        2.0000           -0.4226187             -11.5000
        38        2.0000           -0.4181567             -11.3786
        39        2.0000           -0.4139495             -11.2641
        40        2.0000           -0.4027767             -10.9601
        41        2.0000           -0.3877516             -10.5513 (HOMO)
        42                         -0.2388361              -6.4991 (LUMO)
        43                         -0.2211837              -6.0187
        44                         -0.2141444              -5.8272
        45                         -0.0943906              -2.5685
        46                          0.0566455               1.5414
        47                          0.0792155               2.1556
        48                          0.0821453               2.2353
        49                          0.0966708               2.6305
        50                          0.1039579               2.8288
        51                          0.1086633               2.9569
        52                          0.1270168               3.4563
       ...                                ...                  ...
        78                          0.6578436              17.9008
      -------------------------------------------------------------
                  HL-Gap            0.1489154 Eh            4.0522 eV
             Fermi-level           -0.3132939 Eh           -8.5252 eV

     #   Z          covCN         q      C6AA      α(0)
     1   6 C        3.756    -0.106    22.575     6.775
     2   6 C        3.850    -0.006    20.645     6.463
     3   6 C        3.811    -0.068    21.800     6.646
     4   6 C        2.969     0.014    27.697     8.633
     5   6 C        2.925    -0.038    28.943     8.823
     6   6 C        2.923    -0.038    28.935     8.821
     7   6 C        2.980     0.009    27.802     8.649
     8   6 C        3.857    -0.042    21.280     6.561
     9   6 C        2.699     0.362    20.864     7.476
    10   8 O        1.659    -0.372    20.312     6.084
    11   8 O        0.856    -0.415    21.981     6.286
    12   6 C        3.754    -0.104    22.535     6.769
    13   6 C        2.922    -0.039    28.970     8.827
    14   6 C        2.925    -0.039    28.967     8.826
    15   6 C        3.756    -0.106    22.588     6.776
    16   1 H        0.925     0.034     2.536     2.490
    17   1 H        0.925     0.035     2.520     2.482
    18   1 H        0.925     0.036     2.509     2.477
    19   1 H        0.924     0.029     2.602     2.522
    20   1 H        0.924     0.038     2.471     2.458
    21   1 H        0.924     0.039     2.460     2.453
    22   1 H        0.926     0.033     2.542     2.493
    23   1 H        0.926     0.034     2.535     2.490
    24   1 H        0.924     0.060     2.203     2.321
    25   1 H        0.804     0.326     0.647     1.263
    26   1 H        0.925     0.042     2.418     2.432
    27   1 H        0.925     0.045     2.378     2.411
    28   1 H        0.925     0.057     2.230     2.335
    29   1 H        0.926     0.041     2.430     2.438
    30   1 H        0.926     0.032     2.552     2.498
    31   1 H        0.925     0.033     2.547     2.496
    32   1 H        0.925     0.036     2.506     2.476
    33   1 H        0.925     0.036     2.505     2.475

 Mol. C6AA /au·bohr⁶  :      10237.320769
 Mol. C8AA /au·bohr⁸  :     234139.827079
 Mol. α(0) /au        :        155.424117


Wiberg/Mayer (AO) data.
largest (>0.10) Wiberg bond orders for each atom

 ---------------------------------------------------------------------------
     #   Z sym  total        # sym  WBO       # sym  WBO       # sym  WBO
 ---------------------------------------------------------------------------
     1   6 C    3.997 --     2 C    1.010    18 H    0.987    16 H    0.986
                            17 H    0.985
     2   6 C    3.995 --     1 C    1.010    15 C    1.009     3 C    0.977
                            19 H    0.969
     3   6 C    3.996 --     4 C    1.015     2 C    0.977    20 H    0.974
                            21 H    0.967
     4   6 C    3.986 --    14 C    1.409     5 C    1.406     3 C    1.015
                             7 C    0.105
     5   6 C    3.992 --     6 C    1.451     4 C    1.406    22 H    0.969
                            13 C    0.109
     6   6 C    3.991 --     5 C    1.451     7 C    1.408    23 H    0.968
                            14 C    0.107
     7   6 C    3.985 --    13 C    1.410     6 C    1.408     8 C    0.967
                             4 C    0.105
     8   6 C    3.992 --    12 C    0.993     7 C    0.967    24 H    0.962
                             9 C    0.954
     9   6 C    3.909 --    11 O    1.763    10 O    1.131     8 C    0.954
    10   8 O    2.202 --     9 C    1.131    25 H    0.868    11 O    0.170
    11   8 O    2.035 --     9 C    1.763    10 O    0.170
    12   6 C    3.993 --     8 C    0.993    26 H    0.986    27 H    0.986
                            28 H    0.983
    13   6 C    3.992 --    14 C    1.448     7 C    1.410    29 H    0.966
                             5 C    0.109
    14   6 C    3.991 --    13 C    1.448     4 C    1.409    30 H    0.969
                             6 C    0.107
    15   6 C    3.996 --     2 C    1.009    31 H    0.987    32 H    0.987
                            33 H    0.986
    16   1 H    0.999 --     1 C    0.986
    17   1 H    0.999 --     1 C    0.985
    18   1 H    0.999 --     1 C    0.987
    19   1 H    0.999 --     2 C    0.969
    20   1 H    0.998 --     3 C    0.974
    21   1 H    0.998 --     3 C    0.967
    22   1 H    0.998 --     5 C    0.969
    23   1 H    0.999 --     6 C    0.968
    24   1 H    0.996 --     8 C    0.962
    25   1 H    0.893 --    10 O    0.868
    26   1 H    0.998 --    12 C    0.986
    27   1 H    0.998 --    12 C    0.986
    28   1 H    0.997 --    12 C    0.983
    29   1 H    0.998 --    13 C    0.966
    30   1 H    0.999 --    14 C    0.969
    31   1 H    0.999 --    15 C    0.987
    32   1 H    0.999 --    15 C    0.987
    33   1 H    0.998 --    15 C    0.986
 ---------------------------------------------------------------------------

Topologies differ in total number of bonds
Writing topology from bond orders to xtbtopo.mol

molecular dipole:
                 x           y           z       tot (Debye)
 q only:        0.683       0.006      -0.719
   full:        0.583      -0.091      -0.730       2.386
molecular quadrupole (traceless):
                xx          xy          yy          xz          yz          zz
 q only:       -4.612       0.216       5.478      11.599       1.653      -0.866
  q+dip:       -3.172       0.486       5.964      13.440       5.066      -2.792
   full:       -3.264       1.094       6.309      13.085       2.879      -3.046

           -------------------------------------------------
          |                Geometry Summary                 |
           -------------------------------------------------

      molecular mass/u    :      206.2813100
   center of mass at/Å    :       -0.7353516      -0.0959522       0.1402174
  moments of inertia/u·Å² :        0.3171645E+03   0.2019018E+04   0.2064486E+04
rotational constants/cm⁻¹ :        0.5315107E-01   0.8349422E-02   0.8165533E-02

 * 30 selected distances

     #   Z          #   Z                                           value/Å
     1   6 C        2   6 C                                       1.5258022
     2   6 C        3   6 C                                       1.5383667 (max)
     4   6 C        5   6 C                                       1.3894360
     5   6 C        6   6 C                                       1.3821911
     6   6 C        7   6 C                                       1.3884601
     9   6 C       10   8 O                                       1.3389762
     9   6 C       11   8 O                                       1.2022541
     8   6 C       12   6 C                                       1.5286550
     7   6 C       13   6 C                                       1.3886224
     4   6 C       14   6 C                                       1.3886741
    13   6 C       14   6 C                                       1.3826884
     2   6 C       15   6 C                                       1.5264572
     1   6 C       16   1 H                                       1.0876903
     1   6 C       17   1 H                                       1.0874885
     1   6 C       18   1 H                                       1.0881771
     2   6 C       19   1 H                                       1.0956374
     3   6 C       20   1 H                                       1.0918881
     3   6 C       21   1 H                                       1.0928649
     5   6 C       22   1 H                                       1.0806902
     6   6 C       23   1 H                                       1.0804673
     8   6 C       24   1 H                                       1.0942772
    10   8 O       25   1 H                                       0.9696630 (min)
    12   6 C       26   1 H                                       1.0877261
    12   6 C       27   1 H                                       1.0874893
    12   6 C       28   1 H                                       1.0856145
    13   6 C       29   1 H                                       1.0795796
    14   6 C       30   1 H                                       1.0807437
    15   6 C       31   1 H                                       1.0879128
    15   6 C       32   1 H                                       1.0882028
    15   6 C       33   1 H                                       1.0877136

 * 4 distinct bonds (by element types)

   Z      Z             #   av. dist./Å        max./Å        min./Å
   1 H    6 C          17     1.0873037     1.0956374     1.0795796
   6 C    6 C          10     1.4439353     1.5383667     1.3821911
   1 H    8 O           1     0.9696630     0.9696630     0.9696630
   6 C    8 O           2     1.2706152     1.3389762     1.2022541


optimized geometry written to: xtbopt.xyz


           -------------------------------------------------
          | TOTAL ENERGY              -45.170697794643 Eh   |
          | GRADIENT NORM               0.000501701901 Eh/α |
          | HOMO-LUMO GAP               4.052195487863 eV   |
           -------------------------------------------------

------------------------------------------------------------------------
 * finished run on 2025/05/15 at 16:32:03.846     
------------------------------------------------------------------------
 total:
 * wall-time:     0 d,  0 h,  0 min,  0.516 sec
 *  cpu-time:     0 d,  0 h,  0 min,  0.446 sec
 * ratio c/w:     0.864 speedup
 SCF:
 * wall-time:     0 d,  0 h,  0 min,  0.031 sec
 *  cpu-time:     0 d,  0 h,  0 min,  0.031 sec
 * ratio c/w:     0.994 speedup
 ANC optimizer:
 * wall-time:     0 d,  0 h,  0 min,  0.475 sec
 *  cpu-time:     0 d,  0 h,  0 min,  0.406 sec
 * ratio c/w:     0.855 speedup



----- Single-point -----
      -----------------------------------------------------------      
     |                   =====================                   |     
     |                           x T B                           |     
     |                   =====================                   |     
     |                         S. Grimme                         |     
     |          Mulliken Center for Theoretical Chemistry        |     
     |                    University of Bonn                     |     
      -----------------------------------------------------------      

   * xtb version 6.7.1 (edcfbbe) compiled by 'conda@3ef47c1a292c' on 2024-11-25

   xtb is free software: you can redistribute it and/or modify it under
   the terms of the GNU Lesser General Public License as published by
   the Free Software Foundation, either version 3 of the License, or
   (at your option) any later version.
   
   xtb is distributed in the hope that it will be useful,
   but WITHOUT ANY WARRANTY; without even the implied warranty of
   MERCHANTABILITY or FITNESS FOR A PARTICULAR PURPOSE.  See the
   GNU Lesser General Public License for more details.
   
   Cite this work as:
   * C. Bannwarth, E. Caldeweyher, S. Ehlert, A. Hansen, P. Pracht,
     J. Seibert, S. Spicher, S. Grimme, WIREs Comput. Mol. Sci., 2020, 11,
     e01493. DOI: 10.1002/wcms.1493
   
   for GFN2-xTB:
   * C. Bannwarth, S. Ehlert and S. Grimme., J. Chem. Theory Comput., 2019,
     15, 1652-1671. DOI: 10.1021/acs.jctc.8b01176
   for GFN1-xTB:
   * S. Grimme, C. Bannwarth, P. Shushkov, J. Chem. Theory Comput., 2017,
     13, 1989-2009. DOI: 10.1021/acs.jctc.7b00118
   for GFN0-xTB:
   * P. Pracht, E. Caldeweyher, S. Ehlert, S. Grimme, ChemRxiv, 2019, preprint.
     DOI: 10.26434/chemrxiv.8326202.v1
   for GFN-FF:
   * S. Spicher and S. Grimme, Angew. Chem. Int. Ed., 2020, 59, 15665-15673.
     DOI: 10.1002/anie.202004239
   
   for ALPB and GBSA implicit solvation:
   * S. Ehlert, M. Stahn, S. Spicher, S. Grimme, J. Chem. Theory Comput.,
     2021, 17, 4250-4261. DOI: 10.1021/acs.jctc.1c00471
   
   for ddCOSMO and CPCM-X implicit solvation:
   * M. Stahn, S. Ehlert, S. Grimme, J. Phys. Chem. A,
     2023, XX, XXXX-XXXX. DOI: 10.1021/acs.jpca.3c04382
   
   for DFT-D4:
   * E. Caldeweyher, C. Bannwarth and S. Grimme, J. Chem. Phys., 2017,
     147, 034112. DOI: 10.1063/1.4993215
   * E. Caldeweyher, S. Ehlert, A. Hansen, H. Neugebauer, S. Spicher,
     C. Bannwarth and S. Grimme, J. Chem. Phys., 2019, 150, 154122.
     DOI: 10.1063/1.5090222
   * E. Caldeweyher, J.-M. Mewes, S. Ehlert and S. Grimme, Phys. Chem. Chem. Phys.
     2020, 22, 8499-8512. DOI: 10.1039/D0CP00502A
   
   for sTDA-xTB:
   * S. Grimme and C. Bannwarth, J. Chem. Phys., 2016, 145, 054103.
     DOI: 10.1063/1.4959605
   
   in the mass-spec context:
   * V. Asgeirsson, C. Bauer and S. Grimme, Chem. Sci., 2017, 8, 4879.
     DOI: 10.1039/c7sc00601b
   * J. Koopman and S. Grimme, ACS Omega 2019, 4, 12, 15120-15133.
     DOI: 10.1021/acsomega.9b02011
   
   for metadynamics refer to:
   * S. Grimme, J. Chem. Theory Comput., 2019, 155, 2847-2862
     DOI: 10.1021/acs.jctc.9b00143
   
   for SPH calculations refer to:
   * S. Spicher and S. Grimme, J. Chem. Theory Comput., 2021, 17, 1701-1714
     DOI: 10.1021/acs.jctc.0c01306
   
   for ONIOM refer to:
   * C. Plett, A. Katbashev, S. Ehlert, S. Grimme, M. Bursch,
     Phys. Chem. Chem. Phys., 2023, 25, 17860-17868. DOI: 10.1039/D3CP02178E
   
   for DIPRO refer to:
   * J. Kohn, N. Gildemeister, S. Grimme, D. Fazzi, A. Hansen,
     J. Chem. Phys., 2023, just accepted.
   
   for PTB refer to:
   * S. Grimme, M. Mueller, A. Hansen, J. Chem. Phys., 2023, 158, 124111.
     DOI: 10.1063/5.0137838
   
   with help from (in alphabetical order)
   P. Atkinson, C. Bannwarth, F. Bohle, G. Brandenburg, E. Caldeweyher
   M. Checinski, S. Dohm, S. Ehlert, S. Ehrlich, I. Gerasimov, C. Hölzer
   A. Katbashev, J. Kohn, J. Koopman, C. Lavigne, S. Lehtola, F. März, M. Müller,
   F. Musil, H. Neugebauer, J. Pisarek, C. Plett, P. Pracht, F. Pultar,
   J. Seibert, P. Shushkov, S. Spicher, M. Stahn, M. Steiner, T. Strunk,
   J. Stückrath, T. Rose, and J. Unsleber
   
 * started run on 2025/05/15 at 16:32:03.859     
   ID    Z sym.   atoms
    1    6 C      1-9, 12-15
    2    8 O      10, 11
    3    1 H      16-33

           -------------------------------------------------
          |                Calculation Setup                |
           -------------------------------------------------

          program call               : xtb /rds/general/user/hgt20/home/callum/QDESCP/Ibuprofen_rdkit_conf_15/Ibuprofen_rdkit_conf_15.xyz --acc 1 --gfn 2 --chrg 0 --uhf 0 --etemp 300 --input /rds/general/user/hgt20/home/callum/QDESCP/Ibuprofen_rdkit_conf_15/Ibuprofen_rdkit_conf_15_xtb.inp -P 1
          hostname                   : login-c
          coordinate file            : /rds/general/user/hgt20/home/callum/QDESCP/Ibuprofen_rdkit_conf_15/Ibuprofen_rdkit_conf_15.xyz
          omp threads                :                     1


           -------------------------------------------------
          |                 G F N 2 - x T B                 |
           -------------------------------------------------

        Reference                      10.1021/acs.jctc.8b01176
      * Hamiltonian:
        H0-scaling (s, p, d)           1.850000    2.230000    2.230000
        zeta-weighting                 0.500000
      * Dispersion:
        s8                             2.700000
        a1                             0.520000
        a2                             5.000000
        s9                             5.000000
      * Repulsion:
        kExp                           1.500000    1.000000
        rExp                           1.000000
      * Coulomb:
        alpha                          2.000000
        third order                    shell-resolved
        anisotropic                    true
        a3                             3.000000
        a5                             4.000000
        cn-shift                       1.200000
        cn-exp                         4.000000
        max-rad                        5.000000

q/qsh data taken from xtbrestart
CAMM data taken from xtbrestart

          ...................................................
          :                      SETUP                      :
          :.................................................:
          :  # basis functions                  78          :
          :  # atomic orbitals                  78          :
          :  # shells                           48          :
          :  # electrons                        82          :
          :  max. iterations                   250          :
          :  Hamiltonian                  GFN2-xTB          :
          :  restarted?                       true          :
          :  GBSA solvation                  false          :
          :  PC potential                    false          :
          :  electronic temp.          300.0000000     K    :
          :  accuracy                    1.0000000          :
          :  -> integral cutoff          0.2500000E+02      :
          :  -> integral neglect         0.1000000E-07      :
          :  -> SCF convergence          0.1000000E-05 Eh   :
          :  -> wf. convergence          0.1000000E-03 e    :
          :  Broyden damping             0.4000000          :
          :  net charge                          0          :
          :  unpaired electrons                  0          :
          ...................................................

 iter      E             dE          RMSdq      gap      omega  full diag
   1    -45.8363349 -0.458363E+02  0.731E-06    4.05       0.0  T
   2    -45.8363349 -0.618172E-12  0.413E-06    4.05    4218.3  T
   3    -45.8363349 -0.170530E-12  0.238E-06    4.05    7326.3  T

   *** convergence criteria satisfied after 3 iterations ***

         #    Occupation            Energy/Eh            Energy/eV
      -------------------------------------------------------------
         1        2.0000           -0.7443365             -20.2544
       ...           ...                  ...                  ...
        35        2.0000           -0.4362422             -11.8708
        36        2.0000           -0.4276649             -11.6374
        37        2.0000           -0.4226186             -11.5000
        38        2.0000           -0.4181567             -11.3786
        39        2.0000           -0.4139495             -11.2641
        40        2.0000           -0.4027767             -10.9601
        41        2.0000           -0.3877516             -10.5513 (HOMO)
        42                         -0.2388360              -6.4991 (LUMO)
        43                         -0.2211837              -6.0187
        44                         -0.2141444              -5.8272
        45                         -0.0943906              -2.5685
        46                          0.0566456               1.5414
       ...                                ...                  ...
        78                          0.6578436              17.9008
      -------------------------------------------------------------
                  HL-Gap            0.1489155 Eh            4.0522 eV
             Fermi-level           -0.3132938 Eh           -8.5252 eV

 SCC (total)                   0 d,  0 h,  0 min,  0.028 sec
 SCC setup                      ...        0 min,  0.000 sec (  0.902%)
 Dispersion                     ...        0 min,  0.000 sec (  0.962%)
 classical contributions        ...        0 min,  0.000 sec (  0.323%)
 integral evaluation            ...        0 min,  0.004 sec ( 15.443%)
 iterations                     ...        0 min,  0.005 sec ( 16.276%)
 molecular gradient             ...        0 min,  0.019 sec ( 65.571%)
 printout                       ...        0 min,  0.000 sec (  0.497%)

         :::::::::::::::::::::::::::::::::::::::::::::::::::::
         ::                     SUMMARY                     ::
         :::::::::::::::::::::::::::::::::::::::::::::::::::::
         :: total energy             -45.170697794652 Eh    ::
         :: gradient norm              0.000501452714 Eh/a0 ::
         :: HOMO-LUMO gap              4.052197519380 eV    ::
         ::.................................................::
         :: SCC energy               -45.836211941872 Eh    ::
         :: -> isotropic ES            0.052386080148 Eh    ::
         :: -> anisotropic ES          0.006504891118 Eh    ::
         :: -> anisotropic XC          0.018361934627 Eh    ::
         :: -> dispersion             -0.029505755607 Eh    ::
         :: repulsion energy           0.665514147220 Eh    ::
         :: add. restraining           0.000000000000 Eh    ::
         :: total charge               0.000000000000 e     ::
         :::::::::::::::::::::::::::::::::::::::::::::::::::::

           -------------------------------------------------
          |                Property Printout                |
           -------------------------------------------------

    * Orbital Energies and Occupations

         #    Occupation            Energy/Eh            Energy/eV
      -------------------------------------------------------------
         1        2.0000           -0.7443365             -20.2544
       ...           ...                  ...                  ...
        29        2.0000           -0.4694439             -12.7742
        30        2.0000           -0.4634523             -12.6112
        31        2.0000           -0.4627220             -12.5913
        32        2.0000           -0.4522874             -12.3074
        33        2.0000           -0.4485579             -12.2059
        34        2.0000           -0.4433665             -12.0646
        35        2.0000           -0.4362422             -11.8708
        36        2.0000           -0.4276649             -11.6374
        37        2.0000           -0.4226186             -11.5000
        38        2.0000           -0.4181567             -11.3786
        39        2.0000           -0.4139495             -11.2641
        40        2.0000           -0.4027767             -10.9601
        41        2.0000           -0.3877516             -10.5513 (HOMO)
        42                         -0.2388360              -6.4991 (LUMO)
        43                         -0.2211837              -6.0187
        44                         -0.2141444              -5.8272
        45                         -0.0943906              -2.5685
        46                          0.0566456               1.5414
        47                          0.0792154               2.1556
        48                          0.0821454               2.2353
        49                          0.0966709               2.6305
        50                          0.1039579               2.8288
        51                          0.1086633               2.9569
        52                          0.1270168               3.4563
       ...                                ...                  ...
        78                          0.6578436              17.9008
      -------------------------------------------------------------
                  HL-Gap            0.1489155 Eh            4.0522 eV
             Fermi-level           -0.3132938 Eh           -8.5252 eV

     #   Z          covCN         q      C6AA      α(0)
     1   6 C        3.756    -0.106    22.575     6.775
     2   6 C        3.850    -0.006    20.645     6.463
     3   6 C        3.811    -0.068    21.800     6.646
     4   6 C        2.969     0.014    27.697     8.633
     5   6 C        2.925    -0.038    28.943     8.823
     6   6 C        2.923    -0.038    28.935     8.821
     7   6 C        2.980     0.009    27.802     8.649
     8   6 C        3.857    -0.042    21.280     6.561
     9   6 C        2.699     0.362    20.864     7.476
    10   8 O        1.659    -0.372    20.312     6.084
    11   8 O        0.856    -0.415    21.981     6.286
    12   6 C        3.754    -0.104    22.535     6.769
    13   6 C        2.922    -0.039    28.970     8.827
    14   6 C        2.925    -0.039    28.967     8.826
    15   6 C        3.756    -0.106    22.588     6.776
    16   1 H        0.925     0.034     2.536     2.490
    17   1 H        0.925     0.035     2.520     2.482
    18   1 H        0.925     0.036     2.509     2.477
    19   1 H        0.924     0.029     2.602     2.522
    20   1 H        0.924     0.038     2.471     2.458
    21   1 H        0.924     0.039     2.460     2.453
    22   1 H        0.926     0.033     2.542     2.493
    23   1 H        0.926     0.034     2.535     2.490
    24   1 H        0.924     0.060     2.203     2.321
    25   1 H        0.804     0.326     0.647     1.263
    26   1 H        0.925     0.042     2.418     2.432
    27   1 H        0.925     0.045     2.378     2.411
    28   1 H        0.925     0.057     2.230     2.335
    29   1 H        0.926     0.041     2.430     2.438
    30   1 H        0.926     0.032     2.552     2.498
    31   1 H        0.925     0.033     2.547     2.496
    32   1 H        0.925     0.036     2.506     2.476
    33   1 H        0.925     0.036     2.505     2.475

 Mol. C6AA /au·bohr⁶  :      10237.320829
 Mol. C8AA /au·bohr⁸  :     234139.825556
 Mol. α(0) /au        :        155.424118


Wiberg/Mayer (AO) data.
largest (>0.10) Wiberg bond orders for each atom

 ---------------------------------------------------------------------------
     #   Z sym  total        # sym  WBO       # sym  WBO       # sym  WBO
 ---------------------------------------------------------------------------
     1   6 C    3.997 --     2 C    1.010    18 H    0.987    16 H    0.986
                            17 H    0.985
     2   6 C    3.995 --     1 C    1.010    15 C    1.009     3 C    0.977
                            19 H    0.969
     3   6 C    3.996 --     4 C    1.015     2 C    0.977    20 H    0.974
                            21 H    0.967
     4   6 C    3.986 --    14 C    1.409     5 C    1.406     3 C    1.015
                             7 C    0.105
     5   6 C    3.992 --     6 C    1.451     4 C    1.406    22 H    0.969
                            13 C    0.109
     6   6 C    3.991 --     5 C    1.451     7 C    1.408    23 H    0.968
                            14 C    0.107
     7   6 C    3.985 --    13 C    1.410     6 C    1.408     8 C    0.967
                             4 C    0.105
     8   6 C    3.992 --    12 C    0.993     7 C    0.967    24 H    0.962
                             9 C    0.954
     9   6 C    3.909 --    11 O    1.763    10 O    1.131     8 C    0.954
    10   8 O    2.202 --     9 C    1.131    25 H    0.868    11 O    0.170
    11   8 O    2.035 --     9 C    1.763    10 O    0.170
    12   6 C    3.993 --     8 C    0.993    26 H    0.986    27 H    0.986
                            28 H    0.983
    13   6 C    3.992 --    14 C    1.448     7 C    1.410    29 H    0.966
                             5 C    0.109
    14   6 C    3.991 --    13 C    1.448     4 C    1.409    30 H    0.969
                             6 C    0.107
    15   6 C    3.996 --     2 C    1.009    31 H    0.987    32 H    0.987
                            33 H    0.986
    16   1 H    0.999 --     1 C    0.986
    17   1 H    0.999 --     1 C    0.985
    18   1 H    0.999 --     1 C    0.987
    19   1 H    0.999 --     2 C    0.969
    20   1 H    0.998 --     3 C    0.974
    21   1 H    0.998 --     3 C    0.967
    22   1 H    0.998 --     5 C    0.969
    23   1 H    0.999 --     6 C    0.968
    24   1 H    0.996 --     8 C    0.962
    25   1 H    0.893 --    10 O    0.868
    26   1 H    0.998 --    12 C    0.986
    27   1 H    0.998 --    12 C    0.986
    28   1 H    0.997 --    12 C    0.983
    29   1 H    0.998 --    13 C    0.966
    30   1 H    0.999 --    14 C    0.969
    31   1 H    0.999 --    15 C    0.987
    32   1 H    0.999 --    15 C    0.987
    33   1 H    0.998 --    15 C    0.986
 ---------------------------------------------------------------------------

Topologies differ in total number of bonds
Writing topology from bond orders to xtbtopo.mol

molecular dipole:
                 x           y           z       tot (Debye)
 q only:        0.683       0.006      -0.719
   full:        0.583      -0.091      -0.730       2.386
molecular quadrupole (traceless):
                xx          xy          yy          xz          yz          zz
 q only:       -4.612       0.216       5.478      11.599       1.653      -0.866
  q+dip:       -3.172       0.486       5.964      13.440       5.066      -2.792
   full:       -3.264       1.094       6.309      13.085       2.879      -3.046


           -------------------------------------------------
          | TOTAL ENERGY              -45.170697794652 Eh   |
          | GRADIENT NORM               0.000501452714 Eh/α |
          | HOMO-LUMO GAP               4.052197519380 eV   |
           -------------------------------------------------

------------------------------------------------------------------------
 * finished run on 2025/05/15 at 16:32:03.898     
------------------------------------------------------------------------
 total:
 * wall-time:     0 d,  0 h,  0 min,  0.039 sec
 *  cpu-time:     0 d,  0 h,  0 min,  0.031 sec
 * ratio c/w:     0.813 speedup
 SCF:
 * wall-time:     0 d,  0 h,  0 min,  0.029 sec
 *  cpu-time:     0 d,  0 h,  0 min,  0.022 sec
 * ratio c/w:     0.782 speedup



----- FOD -----
      -----------------------------------------------------------      
     |                   =====================                   |     
     |                           x T B                           |     
     |                   =====================                   |     
     |                         S. Grimme                         |     
     |          Mulliken Center for Theoretical Chemistry        |     
     |                    University of Bonn                     |     
      -----------------------------------------------------------      

   * xtb version 6.7.1 (edcfbbe) compiled by 'conda@3ef47c1a292c' on 2024-11-25

   xtb is free software: you can redistribute it and/or modify it under
   the terms of the GNU Lesser General Public License as published by
   the Free Software Foundation, either version 3 of the License, or
   (at your option) any later version.
   
   xtb is distributed in the hope that it will be useful,
   but WITHOUT ANY WARRANTY; without even the implied warranty of
   MERCHANTABILITY or FITNESS FOR A PARTICULAR PURPOSE.  See the
   GNU Lesser General Public License for more details.
   
   Cite this work as:
   * C. Bannwarth, E. Caldeweyher, S. Ehlert, A. Hansen, P. Pracht,
     J. Seibert, S. Spicher, S. Grimme, WIREs Comput. Mol. Sci., 2020, 11,
     e01493. DOI: 10.1002/wcms.1493
   
   for GFN2-xTB:
   * C. Bannwarth, S. Ehlert and S. Grimme., J. Chem. Theory Comput., 2019,
     15, 1652-1671. DOI: 10.1021/acs.jctc.8b01176
   for GFN1-xTB:
   * S. Grimme, C. Bannwarth, P. Shushkov, J. Chem. Theory Comput., 2017,
     13, 1989-2009. DOI: 10.1021/acs.jctc.7b00118
   for GFN0-xTB:
   * P. Pracht, E. Caldeweyher, S. Ehlert, S. Grimme, ChemRxiv, 2019, preprint.
     DOI: 10.26434/chemrxiv.8326202.v1
   for GFN-FF:
   * S. Spicher and S. Grimme, Angew. Chem. Int. Ed., 2020, 59, 15665-15673.
     DOI: 10.1002/anie.202004239
   
   for ALPB and GBSA implicit solvation:
   * S. Ehlert, M. Stahn, S. Spicher, S. Grimme, J. Chem. Theory Comput.,
     2021, 17, 4250-4261. DOI: 10.1021/acs.jctc.1c00471
   
   for ddCOSMO and CPCM-X implicit solvation:
   * M. Stahn, S. Ehlert, S. Grimme, J. Phys. Chem. A,
     2023, XX, XXXX-XXXX. DOI: 10.1021/acs.jpca.3c04382
   
   for DFT-D4:
   * E. Caldeweyher, C. Bannwarth and S. Grimme, J. Chem. Phys., 2017,
     147, 034112. DOI: 10.1063/1.4993215
   * E. Caldeweyher, S. Ehlert, A. Hansen, H. Neugebauer, S. Spicher,
     C. Bannwarth and S. Grimme, J. Chem. Phys., 2019, 150, 154122.
     DOI: 10.1063/1.5090222
   * E. Caldeweyher, J.-M. Mewes, S. Ehlert and S. Grimme, Phys. Chem. Chem. Phys.
     2020, 22, 8499-8512. DOI: 10.1039/D0CP00502A
   
   for sTDA-xTB:
   * S. Grimme and C. Bannwarth, J. Chem. Phys., 2016, 145, 054103.
     DOI: 10.1063/1.4959605
   
   in the mass-spec context:
   * V. Asgeirsson, C. Bauer and S. Grimme, Chem. Sci., 2017, 8, 4879.
     DOI: 10.1039/c7sc00601b
   * J. Koopman and S. Grimme, ACS Omega 2019, 4, 12, 15120-15133.
     DOI: 10.1021/acsomega.9b02011
   
   for metadynamics refer to:
   * S. Grimme, J. Chem. Theory Comput., 2019, 155, 2847-2862
     DOI: 10.1021/acs.jctc.9b00143
   
   for SPH calculations refer to:
   * S. Spicher and S. Grimme, J. Chem. Theory Comput., 2021, 17, 1701-1714
     DOI: 10.1021/acs.jctc.0c01306
   
   for ONIOM refer to:
   * C. Plett, A. Katbashev, S. Ehlert, S. Grimme, M. Bursch,
     Phys. Chem. Chem. Phys., 2023, 25, 17860-17868. DOI: 10.1039/D3CP02178E
   
   for DIPRO refer to:
   * J. Kohn, N. Gildemeister, S. Grimme, D. Fazzi, A. Hansen,
     J. Chem. Phys., 2023, just accepted.
   
   for PTB refer to:
   * S. Grimme, M. Mueller, A. Hansen, J. Chem. Phys., 2023, 158, 124111.
     DOI: 10.1063/5.0137838
   
   with help from (in alphabetical order)
   P. Atkinson, C. Bannwarth, F. Bohle, G. Brandenburg, E. Caldeweyher
   M. Checinski, S. Dohm, S. Ehlert, S. Ehrlich, I. Gerasimov, C. Hölzer
   A. Katbashev, J. Kohn, J. Koopman, C. Lavigne, S. Lehtola, F. März, M. Müller,
   F. Musil, H. Neugebauer, J. Pisarek, C. Plett, P. Pracht, F. Pultar,
   J. Seibert, P. Shushkov, S. Spicher, M. Stahn, M. Steiner, T. Strunk,
[...]

   * xtb version 6.7.1 (edcfbbe) compiled by 'conda@3ef47c1a292c' on 2024-11-25

   xtb is free software: you can redistribute it and/or modify it under
   the terms of the GNU Lesser General Public License as published by
   the Free Software Foundation, either version 3 of the License, or
   (at your option) any later version.
   
   xtb is distributed in the hope that it will be useful,
   but WITHOUT ANY WARRANTY; without even the implied warranty of
   MERCHANTABILITY or FITNESS FOR A PARTICULAR PURPOSE.  See the
   GNU Lesser General Public License for more details.
   
   Cite this work as:
   * C. Bannwarth, E. Caldeweyher, S. Ehlert, A. Hansen, P. Pracht,
     J. Seibert, S. Spicher, S. Grimme, WIREs Comput. Mol. Sci., 2020, 11,
     e01493. DOI: 10.1002/wcms.1493
   
   for GFN2-xTB:
   * C. Bannwarth, S. Ehlert and S. Grimme., J. Chem. Theory Comput., 2019,
     15, 1652-1671. DOI: 10.1021/acs.jctc.8b01176
   for GFN1-xTB:
   * S. Grimme, C. Bannwarth, P. Shushkov, J. Chem. Theory Comput., 2017,
     13, 1989-2009. DOI: 10.1021/acs.jctc.7b00118
   for GFN0-xTB:
   * P. Pracht, E. Caldeweyher, S. Ehlert, S. Grimme, ChemRxiv, 2019, preprint.
     DOI: 10.26434/chemrxiv.8326202.v1
   for GFN-FF:
   * S. Spicher and S. Grimme, Angew. Chem. Int. Ed., 2020, 59, 15665-15673.
     DOI: 10.1002/anie.202004239
   
   for ALPB and GBSA implicit solvation:
   * S. Ehlert, M. Stahn, S. Spicher, S. Grimme, J. Chem. Theory Comput.,
     2021, 17, 4250-4261. DOI: 10.1021/acs.jctc.1c00471
   
   for ddCOSMO and CPCM-X implicit solvation:
   * M. Stahn, S. Ehlert, S. Grimme, J. Phys. Chem. A,
     2023, XX, XXXX-XXXX. DOI: 10.1021/acs.jpca.3c04382
   
   for DFT-D4:
   * E. Caldeweyher, C. Bannwarth and S. Grimme, J. Chem. Phys., 2017,
     147, 034112. DOI: 10.1063/1.4993215
   * E. Caldeweyher, S. Ehlert, A. Hansen, H. Neugebauer, S. Spicher,
     C. Bannwarth and S. Grimme, J. Chem. Phys., 2019, 150, 154122.
     DOI: 10.1063/1.5090222
   * E. Caldeweyher, J.-M. Mewes, S. Ehlert and S. Grimme, Phys. Chem. Chem. Phys.
     2020, 22, 8499-8512. DOI: 10.1039/D0CP00502A
   
   for sTDA-xTB:
   * S. Grimme and C. Bannwarth, J. Chem. Phys., 2016, 145, 054103.
     DOI: 10.1063/1.4959605
   
   in the mass-spec context:
   * V. Asgeirsson, C. Bauer and S. Grimme, Chem. Sci., 2017, 8, 4879.
     DOI: 10.1039/c7sc00601b
   * J. Koopman and S. Grimme, ACS Omega 2019, 4, 12, 15120-15133.
     DOI: 10.1021/acsomega.9b02011
   
   for metadynamics refer to:
   * S. Grimme, J. Chem. Theory Comput., 2019, 155, 2847-2862
     DOI: 10.1021/acs.jctc.9b00143
   
   for SPH calculations refer to:
   * S. Spicher and S. Grimme, J. Chem. Theory Comput., 2021, 17, 1701-1714
     DOI: 10.1021/acs.jctc.0c01306
   
   for ONIOM refer to:
   * C. Plett, A. Katbashev, S. Ehlert, S. Grimme, M. Bursch,
     Phys. Chem. Chem. Phys., 2023, 25, 17860-17868. DOI: 10.1039/D3CP02178E
   
   for DIPRO refer to:
   * J. Kohn, N. Gildemeister, S. Grimme, D. Fazzi, A. Hansen,
     J. Chem. Phys., 2023, just accepted.
   
   for PTB refer to:
   * S. Grimme, M. Mueller, A. Hansen, J. Chem. Phys., 2023, 158, 124111.
     DOI: 10.1063/5.0137838
   
   with help from (in alphabetical order)
   P. Atkinson, C. Bannwarth, F. Bohle, G. Brandenburg, E. Caldeweyher
   M. Checinski, S. Dohm, S. Ehlert, S. Ehrlich, I. Gerasimov, C. Hölzer
   A. Katbashev, J. Kohn, J. Koopman, C. Lavigne, S. Lehtola, F. März, M. Müller,
   F. Musil, H. Neugebauer, J. Pisarek, C. Plett, P. Pracht, F. Pultar,
   J. Seibert, P. Shushkov, S. Spicher, M. Stahn, M. Steiner, T. Strunk,
   J. Stückrath, T. Rose, and J. Unsleber
   
 * started run on 2025/05/15 at 16:32:04.828     
   ID    Z sym.   atoms
    1    6 C      1-9, 12-15
    2    8 O      10, 11
    3    1 H      16-33

           -------------------------------------------------
          |                Calculation Setup                |
           -------------------------------------------------

          program call               : xtb /rds/general/user/hgt20/home/callum/QDESCP/Ibuprofen_rdkit_conf_15/Ibuprofen_rdkit_conf_15.xyz --acc 1 --gfn 2 --chrg 0 --uhf 2 --etemp 300 --input /rds/general/user/hgt20/home/callum/QDESCP/Ibuprofen_rdkit_conf_15/Ibuprofen_rdkit_conf_15_xtb.inp -P 1
          hostname                   : login-c
          coordinate file            : /rds/general/user/hgt20/home/callum/QDESCP/Ibuprofen_rdkit_conf_15/Ibuprofen_rdkit_conf_15.xyz
          omp threads                :                     1


           -------------------------------------------------
          |                 G F N 2 - x T B                 |
           -------------------------------------------------

        Reference                      10.1021/acs.jctc.8b01176
      * Hamiltonian:
        H0-scaling (s, p, d)           1.850000    2.230000    2.230000
        zeta-weighting                 0.500000
      * Dispersion:
        s8                             2.700000
        a1                             0.520000
        a2                             5.000000
        s9                             5.000000
      * Repulsion:
        kExp                           1.500000    1.000000
        rExp                           1.000000
      * Coulomb:
        alpha                          2.000000
        third order                    shell-resolved
        anisotropic                    true
        a3                             3.000000
        a5                             4.000000
        cn-shift                       1.200000
        cn-exp                         4.000000
        max-rad                        5.000000


          ...................................................
          :                      SETUP                      :
          :.................................................:
          :  # basis functions                  78          :
          :  # atomic orbitals                  78          :
          :  # shells                           48          :
          :  # electrons                        82          :
          :  max. iterations                   250          :
          :  Hamiltonian                  GFN2-xTB          :
          :  restarted?                      false          :
          :  GBSA solvation                  false          :
          :  PC potential                    false          :
          :  electronic temp.          300.0000000     K    :
          :  accuracy                    1.0000000          :
          :  -> integral cutoff          0.2500000E+02      :
          :  -> integral neglect         0.1000000E-07      :
          :  -> SCF convergence          0.1000000E-05 Eh   :
          :  -> wf. convergence          0.1000000E-03 e    :
          :  Broyden damping             0.4000000          :
          :  net charge                          0          :
          :  unpaired electrons                  2          :
          ...................................................

 iter      E             dE          RMSdq      gap      omega  full diag
   1    -45.5933279 -0.455933E+02  0.327E+00    0.02       0.0  T
   2    -45.5198101  0.735178E-01  0.277E+00    0.70       1.0  T
   3    -45.3781051  0.141705E+00  0.219E+00    0.20       1.0  T
   4    -45.5282352 -0.150130E+00  0.199E+00    0.75       1.0  T
   5    -45.6533624 -0.125127E+00  0.117E+00    0.45       1.0  T
   6    -45.6691530 -0.157906E-01  0.664E-01    0.34       1.0  T
   7    -45.6734342 -0.428121E-02  0.658E-01    0.27       1.0  T
   8    -45.6783609 -0.492667E-02  0.408E-01    0.25       1.0  T
   9    -45.6782153  0.145576E-03  0.213E-01    0.23       1.0  T
  10    -45.6800482 -0.183287E-02  0.484E-02    0.19       1.0  T
  11    -45.6800640 -0.157666E-04  0.380E-02    0.18       1.0  T
  12    -45.6801217 -0.576989E-04  0.132E-02    0.18       1.3  T
  13    -45.6801230 -0.130707E-05  0.679E-03    0.18       2.6  T
  14    -45.6801255 -0.256384E-05  0.122E-03    0.18      14.2  T
  15    -45.6801255  0.699684E-08  0.645E-04    0.18      27.0  T
  16    -45.6801256 -0.173736E-07  0.154E-04    0.18     112.8  T

   *** convergence criteria satisfied after 16 iterations ***

         #    Occupation            Energy/Eh            Energy/eV
      -------------------------------------------------------------
         1        2.0000           -0.7282383             -19.8164
       ...           ...                  ...                  ...
        36        2.0000           -0.4336937             -11.8014
        37        2.0000           -0.4239034             -11.5350
        38        2.0000           -0.4192722             -11.4090
        39        2.0000           -0.4103327             -11.1657
        40        1.9998           -0.4045073             -11.0072
        41        1.0002           -0.3879919             -10.5578
        42        0.9724           -0.2296384              -6.2488 (HOMO)
        43        0.0276           -0.2228736              -6.0647 (LUMO)
        44                         -0.2063072              -5.6139
        45                         -0.0955053              -2.5988
        46                          0.0658931               1.7930
        47                          0.0766041               2.0845
       ...                                ...                  ...
        78                          0.6626683              18.0321
      -------------------------------------------------------------
                  HL-Gap            0.0067648 Eh            0.1841 eV
             Fermi-level           -0.3112523 Eh           -8.4696 eV

 transition dipole moment (au) for excitation:          41          42
     X       Y       Z   
   1.4643  -0.3484   0.2289  total (au/Debye):    1.522   3.870
 dE (eV)             :    4.309
 oscillator strength :  0.34607E+00

 SCC (total)                   0 d,  0 h,  0 min,  0.040 sec
 SCC setup                      ...        0 min,  0.000 sec (  0.566%)
 Dispersion                     ...        0 min,  0.000 sec (  0.688%)
 classical contributions        ...        0 min,  0.000 sec (  0.222%)
 integral evaluation            ...        0 min,  0.004 sec ( 10.915%)
 iterations                     ...        0 min,  0.019 sec ( 46.736%)
 molecular gradient             ...        0 min,  0.012 sec ( 30.884%)
 printout                       ...        0 min,  0.004 sec (  9.974%)

         :::::::::::::::::::::::::::::::::::::::::::::::::::::
         ::                     SUMMARY                     ::
         :::::::::::::::::::::::::::::::::::::::::::::::::::::
         :: total energy             -45.014488425099 Eh    ::
         :: gradient norm              0.153448683306 Eh/a0 ::
         :: HOMO-LUMO gap              0.184079162530 eV    ::
         ::.................................................::
         :: SCC energy               -45.680002572319 Eh    ::
         :: -> isotropic ES            0.052573514415 Eh    ::
         :: -> anisotropic ES          0.005065163494 Eh    ::
         :: -> anisotropic XC          0.017185160621 Eh    ::
         :: -> dispersion             -0.029433562925 Eh    ::
         :: repulsion energy           0.665514147220 Eh    ::
         :: add. restraining           0.000000000000 Eh    ::
         :: total charge              -0.000000000761 e     ::
         :::::::::::::::::::::::::::::::::::::::::::::::::::::

           -------------------------------------------------
          |                Property Printout                |
           -------------------------------------------------

    * Orbital Energies and Occupations

         #    Occupation            Energy/Eh            Energy/eV
      -------------------------------------------------------------
         1        2.0000           -0.7282383             -19.8164
       ...           ...                  ...                  ...
        30        2.0000           -0.4667256             -12.7002
        31        2.0000           -0.4619387             -12.5700
        32        2.0000           -0.4569396             -12.4340
        33        2.0000           -0.4502009             -12.2506
        34        2.0000           -0.4455978             -12.1253
        35        2.0000           -0.4421933             -12.0327
        36        2.0000           -0.4336937             -11.8014
        37        2.0000           -0.4239034             -11.5350
        38        2.0000           -0.4192722             -11.4090
        39        2.0000           -0.4103327             -11.1657
        40        1.9998           -0.4045073             -11.0072
        41        1.0002           -0.3879919             -10.5578
        42        0.9724           -0.2296384              -6.2488 (HOMO)
        43        0.0276           -0.2228736              -6.0647 (LUMO)
        44                         -0.2063072              -5.6139
        45                         -0.0955053              -2.5988
        46                          0.0658931               1.7930
        47                          0.0766041               2.0845
        48                          0.0804231               2.1884
        49                          0.0900226               2.4496
        50                          0.0992505               2.7007
        51                          0.1080382               2.9399
        52                          0.1256819               3.4200
        53                          0.1333975               3.6299
       ...                                ...                  ...
        78                          0.6626683              18.0321
      -------------------------------------------------------------
                  HL-Gap            0.0067648 Eh            0.1841 eV
             Fermi-level           -0.3112523 Eh           -8.4696 eV

     #   Z          covCN         q      C6AA      α(0)
     1   6 C        3.756    -0.106    22.583     6.776
     2   6 C        3.850    -0.002    20.573     6.451
     3   6 C        3.811    -0.065    21.739     6.637
     4   6 C        2.969     0.010    27.784     8.646
     5   6 C        2.925    -0.035    28.882     8.813
     6   6 C        2.923    -0.039    28.976     8.828
     7   6 C        2.980     0.010    27.794     8.648
     8   6 C        3.857    -0.027    21.013     6.519
     9   6 C        2.699     0.327    21.434     7.577
    10   8 O        1.659    -0.389    20.645     6.134
    11   8 O        0.856    -0.421    22.102     6.303
    12   6 C        3.754    -0.104    22.550     6.771
    13   6 C        2.922    -0.037    28.925     8.820
    14   6 C        2.925    -0.039    28.977     8.828
    15   6 C        3.756    -0.108    22.616     6.781
    16   1 H        0.925     0.037     2.484     2.465
    17   1 H        0.925     0.038     2.476     2.461
    18   1 H        0.925     0.039     2.468     2.457
    19   1 H        0.924     0.033     2.541     2.493
    20   1 H        0.924     0.042     2.418     2.432
    21   1 H        0.924     0.049     2.336     2.390
    22   1 H        0.926     0.032     2.559     2.502
    23   1 H        0.926     0.032     2.552     2.498
    24   1 H        0.924     0.058     2.218     2.329
    25   1 H        0.804     0.321     0.662     1.278
    26   1 H        0.925     0.046     2.370     2.407
    27   1 H        0.925     0.049     2.338     2.391
    28   1 H        0.925     0.060     2.196     2.317
    29   1 H        0.926     0.044     2.396     2.421
    30   1 H        0.926     0.031     2.571     2.507
    31   1 H        0.925     0.036     2.509     2.477
    32   1 H        0.925     0.038     2.470     2.458
    33   1 H        0.925     0.040     2.445     2.445

 Mol. C6AA /au·bohr⁶  :      10216.034268
 Mol. C8AA /au·bohr⁸  :     233882.647581
 Mol. α(0) /au        :        155.259147


Wiberg/Mayer (AO) data.
largest (>0.10) Wiberg bond orders for each atom

 ---------------------------------------------------------------------------
     #   Z sym  total        # sym  WBO       # sym  WBO       # sym  WBO
 ---------------------------------------------------------------------------
     1   6 C    3.994 --     2 C    1.008    18 H    0.986    17 H    0.984
                            16 H    0.984
     2   6 C    3.973 --     1 C    1.008    15 C    1.008    19 H    0.968
                             3 C    0.944
     3   6 C    3.985 --     4 C    1.044    20 H    0.973    21 H    0.952
                             2 C    0.944
     4   6 C    3.721 --    14 C    1.190     5 C    1.188     3 C    1.044
     5   6 C    3.963 --     6 C    1.605     4 C    1.188    22 H    0.968
     6   6 C    3.955 --     5 C    1.605     7 C    1.168    23 H    0.968
     7   6 C    3.810 --     6 C    1.168    13 C    1.167     8 C    1.030
                             9 C    0.130    11 O    0.121
     8   6 C    3.978 --     7 C    1.030    12 C    0.974    24 H    0.962
                             9 C    0.877
     9   6 C    3.875 --    11 O    1.614    10 O    1.078     8 C    0.877
                             7 C    0.130
    10   8 O    2.138 --     9 C    1.078    25 H    0.873    11 O    0.121
    11   8 O    1.999 --     9 C    1.614    10 O    0.121     7 C    0.121
    12   6 C    3.987 --    26 H    0.985    28 H    0.982    27 H    0.979
                             8 C    0.974
    13   6 C    3.953 --    14 C    1.605     7 C    1.167    29 H    0.965
    14   6 C    3.966 --    13 C    1.605     4 C    1.190    30 H    0.969
    15   6 C    3.992 --     2 C    1.008    32 H    0.986    31 H    0.986
                            33 H    0.982
    16   1 H    0.997 --     1 C    0.984
    17   1 H    0.999 --     1 C    0.984
    18   1 H    0.998 --     1 C    0.986
    19   1 H    0.999 --     2 C    0.968
    20   1 H    0.997 --     3 C    0.973
    21   1 H    0.988 --     3 C    0.952
    22   1 H    0.998 --     5 C    0.968
    23   1 H    0.999 --     6 C    0.968
    24   1 H    0.996 --     8 C    0.962
    25   1 H    0.896 --    10 O    0.873
    26   1 H    0.997 --    12 C    0.985
    27   1 H    0.997 --    12 C    0.979
    28   1 H    0.996 --    12 C    0.982
    29   1 H    0.998 --    13 C    0.965
    30   1 H    0.999 --    14 C    0.969
    31   1 H    0.998 --    15 C    0.986
    32   1 H    0.998 --    15 C    0.986
    33   1 H    0.995 --    15 C    0.982
 ---------------------------------------------------------------------------

Topologies differ in total number of bonds
Writing topology from bond orders to xtbtopo.mol

molecular dipole:
                 x           y           z       tot (Debye)
 q only:        1.306       0.092      -0.711
   full:        1.249      -0.021      -0.681       3.617
molecular quadrupole (traceless):
                xx          xy          yy          xz          yz          zz
 q only:       -6.493      -1.431       6.337      12.167       1.191       0.156
  q+dip:       -4.865      -1.348       6.970      13.836       3.939      -2.105
   full:       -5.459      -0.370       7.439      13.340       2.142      -1.980


           -------------------------------------------------
          | TOTAL ENERGY              -45.014488425099 Eh   |
          | GRADIENT NORM               0.153448683306 Eh/α |
          | HOMO-LUMO GAP               0.184079162530 eV   |
           -------------------------------------------------

------------------------------------------------------------------------
 * finished run on 2025/05/15 at 16:32:04.878     
------------------------------------------------------------------------
 total:
 * wall-time:     0 d,  0 h,  0 min,  0.050 sec
 *  cpu-time:     0 d,  0 h,  0 min,  0.049 sec
 * ratio c/w:     0.972 speedup
 SCF:
 * wall-time:     0 d,  0 h,  0 min,  0.041 sec
 *  cpu-time:     0 d,  0 h,  0 min,  0.040 sec
 * ratio c/w:     0.994 speedup


