----- Optimization -----
      -----------------------------------------------------------      
     |                   =====================                   |     
     |                           x T B                           |     
     |                   =====================                   |     
     |                         S. Grimme                         |     
     |          Mulliken Center for Theoretical Chemistry        |     
     |                    University of Bonn                     |     
      -----------------------------------------------------------      

   * xtb version 6.7.1 (edcfbbe) compiled by 'conda@3ef47c1a292c' on 2024-11-25

   xtb is free software: you can redistribute it and/or modify it under
   the terms of the GNU Lesser General Public License as published by
   the Free Software Foundation, either version 3 of the License, or
   (at your option) any later version.
   
   xtb is distributed in the hope that it will be useful,
   but WITHOUT ANY WARRANTY; without even the implied warranty of
   MERCHANTABILITY or FITNESS FOR A PARTICULAR PURPOSE.  See the
   GNU Lesser General Public License for more details.
   
   Cite this work as:
   * C. Bannwarth, E. Caldeweyher, S. Ehlert, A. Hansen, P. Pracht,
     J. Seibert, S. Spicher, S. Grimme, WIREs Comput. Mol. Sci., 2020, 11,
     e01493. DOI: 10.1002/wcms.1493
   
   for GFN2-xTB:
   * C. Bannwarth, S. Ehlert and S. Grimme., J. Chem. Theory Comput., 2019,
     15, 1652-1671. DOI: 10.1021/acs.jctc.8b01176
   for GFN1-xTB:
   * S. Grimme, C. Bannwarth, P. Shushkov, J. Chem. Theory Comput., 2017,
     13, 1989-2009. DOI: 10.1021/acs.jctc.7b00118
   for GFN0-xTB:
   * P. Pracht, E. Caldeweyher, S. Ehlert, S. Grimme, ChemRxiv, 2019, preprint.
     DOI: 10.26434/chemrxiv.8326202.v1
   for GFN-FF:
   * S. Spicher and S. Grimme, Angew. Chem. Int. Ed., 2020, 59, 15665-15673.
     DOI: 10.1002/anie.202004239
   
   for ALPB and GBSA implicit solvation:
   * S. Ehlert, M. Stahn, S. Spicher, S. Grimme, J. Chem. Theory Comput.,
     2021, 17, 4250-4261. DOI: 10.1021/acs.jctc.1c00471
   
   for ddCOSMO and CPCM-X implicit solvation:
   * M. Stahn, S. Ehlert, S. Grimme, J. Phys. Chem. A,
     2023, XX, XXXX-XXXX. DOI: 10.1021/acs.jpca.3c04382
   
   for DFT-D4:
   * E. Caldeweyher, C. Bannwarth and S. Grimme, J. Chem. Phys., 2017,
     147, 034112. DOI: 10.1063/1.4993215
   * E. Caldeweyher, S. Ehlert, A. Hansen, H. Neugebauer, S. Spicher,
     C. Bannwarth and S. Grimme, J. Chem. Phys., 2019, 150, 154122.
     DOI: 10.1063/1.5090222
   * E. Caldeweyher, J.-M. Mewes, S. Ehlert and S. Grimme, Phys. Chem. Chem. Phys.
     2020, 22, 8499-8512. DOI: 10.1039/D0CP00502A
   
   for sTDA-xTB:
   * S. Grimme and C. Bannwarth, J. Chem. Phys., 2016, 145, 054103.
     DOI: 10.1063/1.4959605
   
   in the mass-spec context:
   * V. Asgeirsson, C. Bauer and S. Grimme, Chem. Sci., 2017, 8, 4879.
     DOI: 10.1039/c7sc00601b
   * J. Koopman and S. Grimme, ACS Omega 2019, 4, 12, 15120-15133.
     DOI: 10.1021/acsomega.9b02011
   
   for metadynamics refer to:
   * S. Grimme, J. Chem. Theory Comput., 2019, 155, 2847-2862
     DOI: 10.1021/acs.jctc.9b00143
   
   for SPH calculations refer to:
   * S. Spicher and S. Grimme, J. Chem. Theory Comput., 2021, 17, 1701-1714
     DOI: 10.1021/acs.jctc.0c01306
   
   for ONIOM refer to:
   * C. Plett, A. Katbashev, S. Ehlert, S. Grimme, M. Bursch,
     Phys. Chem. Chem. Phys., 2023, 25, 17860-17868. DOI: 10.1039/D3CP02178E
   
   for DIPRO refer to:
   * J. Kohn, N. Gildemeister, S. Grimme, D. Fazzi, A. Hansen,
     J. Chem. Phys., 2023, just accepted.
   
   for PTB refer to:
   * S. Grimme, M. Mueller, A. Hansen, J. Chem. Phys., 2023, 158, 124111.
     DOI: 10.1063/5.0137838
   
   with help from (in alphabetical order)
   P. Atkinson, C. Bannwarth, F. Bohle, G. Brandenburg, E. Caldeweyher
   M. Checinski, S. Dohm, S. Ehlert, S. Ehrlich, I. Gerasimov, C. Hölzer
   A. Katbashev, J. Kohn, J. Koopman, C. Lavigne, S. Lehtola, F. März, M. Müller,
   F. Musil, H. Neugebauer, J. Pisarek, C. Plett, P. Pracht, F. Pultar,
   J. Seibert, P. Shushkov, S. Spicher, M. Stahn, M. Steiner, T. Strunk,
   J. Stückrath, T. Rose, and J. Unsleber
   
 * started run on 2025/05/15 at 16:28:01.041     
   ID    Z sym.   atoms
    1    8 O      1, 14
    2    6 C      2-5, 7-12, 15-19, 21, 22, 24, 26-30
    3    7 N      6, 13, 23, 25
    4    9 F      20
    5    1 H      31-57

           -------------------------------------------------
          |                Calculation Setup                |
           -------------------------------------------------

          program call               : xtb /rds/general/user/hgt20/home/callum/QDESCP/Risperidone_rdkit_conf_4/Risperidone_rdkit_conf_4.xyz --opt normal --acc 1 --gfn 2 --chrg 0 --uhf 0 -P 1
          hostname                   : login-c
          coordinate file            : /rds/general/user/hgt20/home/callum/QDESCP/Risperidone_rdkit_conf_4/Risperidone_rdkit_conf_4.xyz
          omp threads                :                     1


           -------------------------------------------------
          |                 G F N 2 - x T B                 |
           -------------------------------------------------

        Reference                      10.1021/acs.jctc.8b01176
      * Hamiltonian:
        H0-scaling (s, p, d)           1.850000    2.230000    2.230000
        zeta-weighting                 0.500000
      * Dispersion:
        s8                             2.700000
        a1                             0.520000
        a2                             5.000000
        s9                             5.000000
      * Repulsion:
        kExp                           1.500000    1.000000
        rExp                           1.000000
      * Coulomb:
        alpha                          2.000000
        third order                    shell-resolved
        anisotropic                    true
        a3                             3.000000
        a5                             4.000000
        cn-shift                       1.200000
        cn-exp                         4.000000
        max-rad                        5.000000


          ...................................................
          :                      SETUP                      :
          :.................................................:
          :  # basis functions                 147          :
          :  # atomic orbitals                 147          :
          :  # shells                           87          :
          :  # electrons                       158          :
          :  max. iterations                   250          :
          :  Hamiltonian                  GFN2-xTB          :
          :  restarted?                      false          :
          :  GBSA solvation                  false          :
          :  PC potential                    false          :
          :  electronic temp.          300.0000000     K    :
          :  accuracy                    1.0000000          :
          :  -> integral cutoff          0.2500000E+02      :
          :  -> integral neglect         0.1000000E-07      :
          :  -> SCF convergence          0.1000000E-05 Eh   :
          :  -> wf. convergence          0.1000000E-03 e    :
          :  Broyden damping             0.4000000          :
          :  net charge                          0          :
          :  unpaired electrons                  0          :
          ...................................................

 iter      E             dE          RMSdq      gap      omega  full diag
   1    -88.5838192 -0.885838E+02  0.373E+00    3.06       0.0  T
   2    -88.7116068 -0.127788E+00  0.226E+00    2.53       1.0  T
   3    -88.7139483 -0.234151E-02  0.120E+00    2.05       1.0  T
   4    -88.7319424 -0.179941E-01  0.423E-01    1.67       1.0  T
   5    -88.7375781 -0.563575E-02  0.115E-01    1.62       1.0  T
   6    -88.7378370 -0.258901E-03  0.607E-02    1.64       1.0  T
   7    -88.7379197 -0.826373E-04  0.244E-02    1.67       1.0  T
   8    -88.7379246 -0.494466E-05  0.986E-03    1.68       1.3  T
   9    -88.7379263 -0.170094E-05  0.425E-03    1.68       3.1  T
  10    -88.7379266 -0.298526E-06  0.145E-03    1.68       9.2  T
  11    -88.7379267 -0.418349E-07  0.853E-04    1.68      15.5  T
  12    -88.7379267 -0.147824E-07  0.349E-04    1.68      38.0  T

   *** convergence criteria satisfied after 12 iterations ***

         #    Occupation            Energy/Eh            Energy/eV
      -------------------------------------------------------------
         1        2.0000           -0.8292854             -22.5660
       ...           ...                  ...                  ...
        73        2.0000           -0.4198446             -11.4246
        74        2.0000           -0.4113875             -11.1944
        75        2.0000           -0.4071010             -11.0778
        76        2.0000           -0.3886457             -10.5756
        77        2.0000           -0.3831624             -10.4264
        78        2.0000           -0.3822682             -10.4020
        79        2.0000           -0.3459709              -9.4143 (HOMO)
        80                         -0.2843779              -7.7383 (LUMO)
        81                         -0.2528546              -6.8805
        82                         -0.2418698              -6.5816
        83                         -0.2275310              -6.1914
        84                         -0.2077471              -5.6531
       ...                                ...                  ...
       147                          0.6935909              18.8736
      -------------------------------------------------------------
                  HL-Gap            0.0615931 Eh            1.6760 eV
             Fermi-level           -0.3151744 Eh           -8.5763 eV

 SCC (total)                   0 d,  0 h,  0 min,  0.137 sec
 SCC setup                      ...        0 min,  0.001 sec (  0.423%)
 Dispersion                     ...        0 min,  0.001 sec (  0.595%)
 classical contributions        ...        0 min,  0.000 sec (  0.193%)
 integral evaluation            ...        0 min,  0.011 sec (  8.179%)
 iterations                     ...        0 min,  0.057 sec ( 41.255%)
 molecular gradient             ...        0 min,  0.067 sec ( 49.141%)
 printout                       ...        0 min,  0.000 sec (  0.208%)

         :::::::::::::::::::::::::::::::::::::::::::::::::::::
         ::                     SUMMARY                     ::
         :::::::::::::::::::::::::::::::::::::::::::::::::::::
         :: total energy             -87.628774242032 Eh    ::
         :: gradient norm              0.108418346921 Eh/a0 ::
         :: HOMO-LUMO gap              1.676032839581 eV    ::
         ::.................................................::
         :: SCC energy               -88.738124773022 Eh    ::
         :: -> isotropic ES            0.080823320765 Eh    ::
         :: -> anisotropic ES          0.008744927997 Eh    ::
         :: -> anisotropic XC          0.041533739393 Eh    ::
         :: -> dispersion             -0.060173445073 Eh    ::
         :: repulsion energy           1.109350530990 Eh    ::
         :: add. restraining           0.000000000000 Eh    ::
         :: total charge              -0.000000000000 e     ::
         :::::::::::::::::::::::::::::::::::::::::::::::::::::

      ----------------------------------------------------------- 
     |                   =====================                   |
     |                        A N C O P T                        |
     |                   =====================                   |
     |               Approximate Normal Coordinate               |
     |                Rational Function Optimizer                |
      ----------------------------------------------------------- 
      ----------------------------------------------------------- 
     |                   =====================                   |
     |                        A N C O P T                        |
     |                   =====================                   |
     |               Approximate Normal Coordinate               |
     |                Rational Function Optimizer                |
      ----------------------------------------------------------- 

          ...................................................
          :                      SETUP                      :
          :.................................................:
          :   optimization level            normal          :
          :   max. optcycles                   200          :
          :   ANC micro-cycles                  20          :
          :   degrees of freedom               165          :
          :.................................................:
          :   RF solver                   davidson          :
          :   write xtbopt.log                true          :
          :   linear?                        false          :
          :   energy convergence         0.5000000E-05 Eh   :
          :   grad. convergence          0.1000000E-02 Eh/α :
          :   maxmium RF displ.          1.0000000          :
          :   Hlow (freq-cutoff)         0.1000000E-01      :
          :   Hmax (freq-cutoff)         5.0000000          :
          :   S6 in model hess.         20.0000000          :
          ...................................................

generating ANC from exact Hessian ...
Using Lindh-Hessian (1995)
 Shifting diagonal of input Hessian by    9.8647185864401202E-003
 Lowest  eigenvalues of input Hessian
    0.000000    0.000000    0.000000    0.000000    0.000000    0.000000
    0.010000    0.010166    0.010250    0.010597    0.010756    0.011312
    0.011852    0.012209    0.013238    0.013400    0.016636    0.016987
 Highest eigenvalues
    1.923191    1.941724    2.069782    2.169360    2.176205    2.314716


........................................................................
.............................. CYCLE    1 ..............................
........................................................................

 iter      E             dE          RMSdq      gap      omega  full diag
   1    -88.7379267 -0.887379E+02  0.131E-04    1.68       0.0  T
   2    -88.7379267 -0.187256E-09  0.843E-05    1.68     157.1  T
   3    -88.7379267 -0.983533E-10  0.538E-05    1.68     246.0  T
     SCC iter.                  ...        0 min,  0.012 sec
     gradient                   ...        0 min,  0.065 sec
 * total energy  :   -87.6287742 Eh     change       -0.2041915E-08 Eh
   gradient norm :     0.1084187 Eh/α   predicted     0.0000000E+00 (-100.00%)
   displ. norm   :     0.3007763 α      lambda       -0.1472981E-01
   maximum displ.:     0.0974252 α      in ANC's #30, #29, #57, ...

........................................................................
.............................. CYCLE    2 ..............................
........................................................................

 iter      E             dE          RMSdq      gap      omega  full diag
   1    -88.7729955 -0.887730E+02  0.183E-01    1.83       0.0  T
   2    -88.7730887 -0.931702E-04  0.106E-01    1.86       1.0  T
   3    -88.7730330  0.556879E-04  0.480E-02    1.87       1.0  T
   4    -88.7731049 -0.719108E-04  0.116E-02    1.87       1.1  T
   5    -88.7731113 -0.636821E-05  0.379E-03    1.87       3.5  T
   6    -88.7731117 -0.356428E-06  0.163E-03    1.87       8.1  T
   7    -88.7731117 -0.204798E-07  0.670E-04    1.87      19.8  T
   8    -88.7731117 -0.759026E-08  0.240E-04    1.87      55.3  T
     SCC iter.                  ...        0 min,  0.028 sec
     gradient                   ...        0 min,  0.069 sec
 * total energy  :   -87.6389331 Eh     change       -0.1015881E-01 Eh
   gradient norm :     0.0479457 Eh/α   predicted    -0.8035891E-02 ( -20.90%)
   displ. norm   :     0.2761258 α      lambda       -0.4734397E-02
   maximum displ.:     0.0974469 α      in ANC's #8, #18, #30, ...

........................................................................
.............................. CYCLE    3 ..............................
........................................................................

 iter      E             dE          RMSdq      gap      omega  full diag
   1    -88.7928260 -0.887928E+02  0.118E-01    1.94       0.0  T
   2    -88.7928825 -0.565163E-04  0.695E-02    1.96       1.0  T
   3    -88.7928543  0.282102E-04  0.424E-02    1.96       1.0  T
   4    -88.7929031 -0.488138E-04  0.838E-03    1.96       1.6  T
   5    -88.7929068 -0.363009E-05  0.229E-03    1.96       5.8  T
   6    -88.7929069 -0.110554E-06  0.946E-04    1.96      14.0  T
   7    -88.7929069 -0.119492E-07  0.405E-04    1.96      32.7  T
     SCC iter.                  ...        0 min,  0.058 sec
     gradient                   ...        0 min,  0.043 sec
 * total energy  :   -87.6417357 Eh     change       -0.2802622E-02 Eh
   gradient norm :     0.0162217 Eh/α   predicted    -0.2549267E-02 (  -9.04%)
   displ. norm   :     0.1847275 α      lambda       -0.7581426E-03
   maximum displ.:     0.1080697 α      in ANC's #8, #18, #16, ...

........................................................................
.............................. CYCLE    4 ..............................
........................................................................

 iter      E             dE          RMSdq      gap      omega  full diag
   1    -88.7950817 -0.887951E+02  0.502E-02    1.96       0.0  T
   2    -88.7950873 -0.562837E-05  0.286E-02    1.97       1.0  T
   3    -88.7950802  0.710030E-05  0.182E-02    1.97       1.0  T
   4    -88.7950913 -0.110185E-04  0.248E-03    1.97       5.3  T
   5    -88.7950915 -0.253900E-06  0.939E-04    1.97      14.1  T
   6    -88.7950915 -0.122184E-07  0.458E-04    1.97      28.9  T
     SCC iter.                  ...        0 min,  0.049 sec
     gradient                   ...        0 min,  0.043 sec
 * total energy  :   -87.6422823 Eh     change       -0.5466141E-03 Eh
   gradient norm :     0.0097566 Eh/α   predicted    -0.3920110E-03 ( -28.28%)
   displ. norm   :     0.2236206 α      lambda       -0.4857557E-03
   maximum displ.:     0.1502399 α      in ANC's #8, #18, #9, ...

........................................................................
.............................. CYCLE    5 ..............................
........................................................................

 iter      E             dE          RMSdq      gap      omega  full diag
   1    -88.7956106 -0.887956E+02  0.490E-02    1.95       0.0  T
   2    -88.7956140 -0.344590E-05  0.279E-02    1.95       1.0  T
   3    -88.7956080  0.598971E-05  0.140E-02    1.96       1.0  T
   4    -88.7956157 -0.764727E-05  0.211E-03    1.96       6.3  T
   5    -88.7956159 -0.173776E-06  0.866E-04    1.96      15.3  T
   6    -88.7956159 -0.512628E-08  0.379E-04    1.96      35.0  T
     SCC iter.                  ...        0 min,  0.051 sec
     gradient                   ...        0 min,  0.042 sec
 * total energy  :   -87.6426003 Eh     change       -0.3180388E-03 Eh
   gradient norm :     0.0054459 Eh/α   predicted    -0.2551514E-03 ( -19.77%)
   displ. norm   :     0.1634741 α      lambda       -0.1785108E-03
   maximum displ.:     0.1125505 α      in ANC's #8, #7, #5, ...

........................................................................
.............................. CYCLE    6 ..............................
........................................................................

 iter      E             dE          RMSdq      gap      omega  full diag
   1    -88.7959695 -0.887960E+02  0.302E-02    1.95       0.0  T
   2    -88.7959705 -0.922217E-06  0.175E-02    1.95       1.0  T
   3    -88.7959702  0.244647E-06  0.329E-03    1.95       4.0  T
   4    -88.7959706 -0.401184E-06  0.101E-03    1.95      13.1  T
   5    -88.7959706 -0.324696E-07  0.476E-04    1.95      27.8  T
   6    -88.7959706 -0.272337E-08  0.142E-04    1.95      93.1  T
     SCC iter.                  ...        0 min,  0.048 sec
     gradient                   ...        0 min,  0.043 sec
 * total energy  :   -87.6427330 Eh     change       -0.1326503E-03 Eh
   gradient norm :     0.0049624 Eh/α   predicted    -0.9170671E-04 ( -30.87%)
   displ. norm   :     0.1879478 α      lambda       -0.1560187E-03
   maximum displ.:     0.1142669 α      in ANC's #8, #7, #5, ...

........................................................................
.............................. CYCLE    7 ..............................
........................................................................

 iter      E             dE          RMSdq      gap      omega  full diag
   1    -88.7965026 -0.887965E+02  0.321E-02    1.94       0.0  T
   2    -88.7965034 -0.775246E-06  0.189E-02    1.94       1.0  T
   3    -88.7965021  0.130403E-05  0.570E-03    1.94       2.3  T
   4    -88.7965037 -0.159906E-05  0.113E-03    1.94      11.7  T
   5    -88.7965037 -0.367191E-07  0.511E-04    1.94      25.9  T
   6    -88.7965037 -0.274818E-08  0.186E-04    1.94      71.3  T
     SCC iter.                  ...        0 min,  0.048 sec
     gradient                   ...        0 min,  0.043 sec
 * total energy  :   -87.6428496 Eh     change       -0.1166444E-03 Eh
   gradient norm :     0.0047242 Eh/α   predicted    -0.8076969E-04 ( -30.76%)
   displ. norm   :     0.2338344 α      lambda       -0.1425432E-03
   maximum displ.:     0.1239951 α      in ANC's #8, #5, #7, ...

........................................................................
.............................. CYCLE    8 ..............................
........................................................................

 iter      E             dE          RMSdq      gap      omega  full diag
   1    -88.7970290 -0.887970E+02  0.373E-02    1.94       0.0  T
   2    -88.7970297 -0.732326E-06  0.219E-02    1.94       1.0  T
   3    -88.7970280  0.178186E-05  0.665E-03    1.94       2.0  T
   4    -88.7970301 -0.213880E-05  0.114E-03    1.94      11.6  T
   5    -88.7970301 -0.302457E-07  0.554E-04    1.94      23.9  T
   6    -88.7970301 -0.485765E-08  0.207E-04    1.94      63.9  T
     SCC iter.                  ...        0 min,  0.021 sec
     gradient                   ...        0 min,  0.042 sec
 * total energy  :   -87.6429527 Eh     change       -0.1030891E-03 Eh
   gradient norm :     0.0048044 Eh/α   predicted    -0.7516983E-04 ( -27.08%)
   displ. norm   :     0.2257287 α      lambda       -0.1171480E-03
   maximum displ.:     0.0983931 α      in ANC's #5, #8, #7, ...

........................................................................
.............................. CYCLE    9 ..............................
........................................................................

 iter      E             dE          RMSdq      gap      omega  full diag
   1    -88.7975377 -0.887975E+02  0.352E-02    1.95       0.0  T
   2    -88.7975384 -0.780943E-06  0.207E-02    1.95       1.0  T
   3    -88.7975377  0.740394E-06  0.461E-03    1.95       2.9  T
   4    -88.7975386 -0.908480E-06  0.116E-03    1.95      11.4  T
   5    -88.7975387 -0.494833E-07  0.482E-04    1.95      27.5  T
   6    -88.7975387 -0.190821E-08  0.214E-04    1.95      61.8  T
     SCC iter.                  ...        0 min,  0.041 sec
     gradient                   ...        0 min,  0.043 sec
 * total energy  :   -87.6430421 Eh     change       -0.8940182E-04 Eh
   gradient norm :     0.0045582 Eh/α   predicted    -0.6156063E-04 ( -31.14%)
   displ. norm   :     0.2517297 α      lambda       -0.1353330E-03
   maximum displ.:     0.1176517 α      in ANC's #5, #7, #13, ...

........................................................................
.............................. CYCLE   10 ..............................
........................................................................

 iter      E             dE          RMSdq      gap      omega  full diag
   1    -88.7980161 -0.887980E+02  0.407E-02    1.95       0.0  T
   2    -88.7980175 -0.134254E-05  0.240E-02    1.95       1.0  T
   3    -88.7980172  0.267846E-06  0.343E-03    1.95       3.9  T
   4    -88.7980176 -0.445978E-06  0.107E-03    1.95      12.4  T
   5    -88.7980177 -0.361328E-07  0.545E-04    1.95      24.3  T
   6    -88.7980177 -0.376613E-08  0.228E-04    1.95      58.2  T
     SCC iter.                  ...        0 min,  0.042 sec
     gradient                   ...        0 min,  0.043 sec
 * total energy  :   -87.6431431 Eh     change       -0.1009698E-03 Eh
   gradient norm :     0.0044995 Eh/α   predicted    -0.7196157E-04 ( -28.73%)
   displ. norm   :     0.2376852 α      lambda       -0.1245625E-03
   maximum displ.:     0.1169716 α      in ANC's #5, #13, #7, ...

........................................................................
.............................. CYCLE   11 ..............................
........................................................................

 iter      E             dE          RMSdq      gap      omega  full diag
   1    -88.7982926 -0.887983E+02  0.400E-02    1.96       0.0  T
   2    -88.7982936 -0.102955E-05  0.236E-02    1.96       1.0  T
   3    -88.7982931  0.567525E-06  0.379E-03    1.96       3.5  T
   4    -88.7982938 -0.741209E-06  0.127E-03    1.96      10.4  T
   5    -88.7982939 -0.599773E-07  0.544E-04    1.96      24.4  T
   6    -88.7982939 -0.172261E-08  0.236E-04    1.96      56.2  T
     SCC iter.                  ...        0 min,  0.021 sec
     gradient                   ...        0 min,  0.043 sec
 * total energy  :   -87.6432363 Eh     change       -0.9321885E-04 Eh
   gradient norm :     0.0049282 Eh/α   predicted    -0.6580141E-04 ( -29.41%)
   displ. norm   :     0.2608039 α      lambda       -0.1157232E-03
   maximum displ.:     0.1297051 α      in ANC's #5, #13, #1, ...

........................................................................
.............................. CYCLE   12 ..............................
........................................................................

 iter      E             dE          RMSdq      gap      omega  full diag
   1    -88.7978362 -0.887978E+02  0.435E-02    1.96       0.0  T
   2    -88.7978368 -0.642439E-06  0.256E-02    1.96       1.0  T
   3    -88.7978357  0.112440E-05  0.499E-03    1.96       2.7  T
   4    -88.7978371 -0.138456E-05  0.112E-03    1.96      11.8  T
   5    -88.7978371 -0.255289E-07  0.555E-04    1.96      23.9  T
   6    -88.7978371 -0.133929E-08  0.230E-04    1.96      57.6  T
     SCC iter.                  ...        0 min,  0.021 sec
     gradient                   ...        0 min,  0.042 sec
 * total energy  :   -87.6433253 Eh     change       -0.8901586E-04 Eh
   gradient norm :     0.0053851 Eh/α   predicted    -0.6180104E-04 ( -30.57%)
   displ. norm   :     0.2857731 α      lambda       -0.1423766E-03
   maximum displ.:     0.1436984 α      in ANC's #5, #1, #13, ...

........................................................................
.............................. CYCLE   13 ..............................
........................................................................

 iter      E             dE          RMSdq      gap      omega  full diag
   1    -88.7981444 -0.887981E+02  0.476E-02    1.97       0.0  T
   2    -88.7981455 -0.108279E-05  0.279E-02    1.97       1.0  T
   3    -88.7981437  0.170972E-05  0.649E-03    1.96       2.0  T
   4    -88.7981458 -0.208097E-05  0.149E-03    1.96       8.9  T
   5    -88.7981459 -0.648923E-07  0.648E-04    1.96      20.4  T
   6    -88.7981459 -0.189078E-08  0.276E-04    1.96      48.0  T
     SCC iter.                  ...        0 min,  0.021 sec
     gradient                   ...        0 min,  0.043 sec
 * total energy  :   -87.6434229 Eh     change       -0.9754272E-04 Eh
   gradient norm :     0.0047602 Eh/α   predicted    -0.7700278E-04 ( -21.06%)
   displ. norm   :     0.4869825 α      lambda       -0.1641278E-03
   maximum displ.:     0.2413379 α      in ANC's #5, #13, #1, ...

........................................................................
.............................. CYCLE   14 ..............................
........................................................................

 iter      E             dE          RMSdq      gap      omega  full diag
   1    -88.7928683 -0.887929E+02  0.816E-02    1.96       0.0  T
   2    -88.7928744 -0.605127E-05  0.475E-02    1.96       1.0  T
   3    -88.7928734  0.103097E-05  0.743E-03    1.96       1.8  T
   4    -88.7928750 -0.161554E-05  0.324E-03    1.96       4.1  T
   5    -88.7928754 -0.426346E-06  0.134E-03    1.96       9.9  T
   6    -88.7928754 -0.119810E-07  0.435E-04    1.96      30.5  T
   7    -88.7928754 -0.426949E-08  0.145E-04    1.96      91.1  T
     SCC iter.                  ...        0 min,  0.025 sec
     gradient                   ...        0 min,  0.069 sec
 * total energy  :   -87.6433967 Eh     change        0.2618882E-04 Eh
   gradient norm :     0.0111219 Eh/α   predicted    -0.1015316E-03 (-487.69%)
   displ. norm   :     0.1561178 α      lambda       -0.3159040E-03
   maximum displ.:     0.0709811 α      in ANC's #7, #13, #5, ...

........................................................................
.............................. CYCLE   15 ..............................
........................................................................

 iter      E             dE          RMSdq      gap      omega  full diag
   1    -88.7978231 -0.887978E+02  0.345E-02    1.96       0.0  T
   2    -88.7978277 -0.465417E-05  0.196E-02    1.96       1.0  T
   3    -88.7978274  0.340324E-06  0.601E-03    1.96       2.2  T
   4    -88.7978279 -0.500597E-06  0.220E-03    1.96       6.0  T
   5    -88.7978281 -0.243505E-06  0.777E-04    1.96      17.0  T
   6    -88.7978281 -0.211001E-08  0.390E-04    1.96      34.0  T
     SCC iter.                  ...        0 min,  0.021 sec
     gradient                   ...        0 min,  0.064 sec
 * total energy  :   -87.6435526 Eh     change       -0.1559701E-03 Eh
   gradient norm :     0.0033412 Eh/α   predicted    -0.1618025E-03 (   3.74%)
   displ. norm   :     0.1492946 α      lambda       -0.5296873E-04
   maximum displ.:     0.0740369 α      in ANC's #5, #1, #12, ...

........................................................................
.............................. CYCLE   16 ..............................
........................................................................

 iter      E             dE          RMSdq      gap      omega  full diag
   1    -88.7978381 -0.887978E+02  0.233E-02    1.96       0.0  T
   2    -88.7978384 -0.278139E-06  0.136E-02    1.96       1.0  T
   3    -88.7978384  0.157008E-07  0.150E-03    1.96       8.8  T
   4    -88.7978385 -0.794476E-07  0.590E-04    1.96      22.4  T
   5    -88.7978385 -0.590359E-08  0.270E-04    1.96      49.1  T
     SCC iter.                  ...        0 min,  0.018 sec
     gradient                   ...        0 min,  0.082 sec
 * total energy  :   -87.6435985 Eh     change       -0.4585272E-04 Eh
   gradient norm :     0.0030139 Eh/α   predicted    -0.2707701E-04 ( -40.95%)
   displ. norm   :     0.3973185 α      lambda       -0.1253103E-03
   maximum displ.:     0.1980684 α      in ANC's #5, #1, #6, ...

........................................................................
.............................. CYCLE   17 ..............................
........................................................................

 iter      E             dE          RMSdq      gap      omega  full diag
   1    -88.7963949 -0.887964E+02  0.608E-02    1.95       0.0  T
   2    -88.7963966 -0.169966E-05  0.355E-02    1.95       1.0  T
   3    -88.7963966  0.167691E-07  0.366E-03    1.95       3.6  T
   4    -88.7963970 -0.406380E-06  0.172E-03    1.95       7.7  T
   5    -88.7963970 -0.630669E-07  0.794E-04    1.95      16.7  T
   6    -88.7963970 -0.897003E-08  0.282E-04    1.95      46.9  T
     SCC iter.                  ...        0 min,  0.021 sec
     gradient                   ...        0 min,  0.075 sec
 * total energy  :   -87.6436753 Eh     change       -0.7682042E-04 Eh
   gradient norm :     0.0043003 Eh/α   predicted    -0.7254615E-04 (  -5.56%)
   displ. norm   :     0.1259081 α      lambda       -0.4596825E-04
   maximum displ.:     0.0637938 α      in ANC's #1, #5, #6, ...

........................................................................
.............................. CYCLE   18 ..............................
........................................................................

 iter      E             dE          RMSdq      gap      omega  full diag
   1    -88.7974320 -0.887974E+02  0.194E-02    1.95       0.0  T
   2    -88.7974324 -0.348416E-06  0.112E-02    1.95       1.2  T
   3    -88.7974322  0.132458E-06  0.223E-03    1.95       5.9  T
   4    -88.7974324 -0.188783E-06  0.724E-04    1.95      18.3  T
   5    -88.7974324 -0.188518E-07  0.319E-04    1.95      41.5  T
     SCC iter.                  ...        0 min,  0.020 sec
     gradient                   ...        0 min,  0.075 sec
 * total energy  :   -87.6437110 Eh     change       -0.3569965E-04 Eh
   gradient norm :     0.0031923 Eh/α   predicted    -0.2335379E-04 ( -34.58%)
   displ. norm   :     0.2234960 α      lambda       -0.5691949E-04
   maximum displ.:     0.1158665 α      in ANC's #1, #5, #6, ...

........................................................................
.............................. CYCLE   19 ..............................
........................................................................

 iter      E             dE          RMSdq      gap      omega  full diag
   1    -88.7980364 -0.887980E+02  0.321E-02    1.95       0.0  T
   2    -88.7980371 -0.772737E-06  0.187E-02    1.95       1.0  T
   3    -88.7980369  0.188747E-06  0.288E-03    1.95       4.6  T
   4    -88.7980373 -0.338767E-06  0.898E-04    1.95      14.8  T
   5    -88.7980373 -0.189758E-07  0.457E-04    1.95      29.0  T
     SCC iter.                  ...        0 min,  0.018 sec
     gradient                   ...        0 min,  0.070 sec
 * total energy  :   -87.6437535 Eh     change       -0.4251316E-04 Eh
   gradient norm :     0.0020548 Eh/α   predicted    -0.2988283E-04 ( -29.71%)
   displ. norm   :     0.2183970 α      lambda       -0.4539095E-04
   maximum displ.:     0.1185241 α      in ANC's #1, #5, #6, ...

........................................................................
.............................. CYCLE   20 ..............................
........................................................................

 iter      E             dE          RMSdq      gap      omega  full diag
   1    -88.7984980 -0.887985E+02  0.291E-02    1.95       0.0  T
   2    -88.7984988 -0.796485E-06  0.169E-02    1.95       1.0  T
   3    -88.7984986  0.184222E-06  0.278E-03    1.95       4.8  T
   4    -88.7984990 -0.320347E-06  0.777E-04    1.95      17.1  T
   5    -88.7984990 -0.147239E-07  0.403E-04    1.95      32.9  T
     SCC iter.                  ...        0 min,  0.018 sec
     gradient                   ...        0 min,  0.076 sec
 * total energy  :   -87.6437865 Eh     change       -0.3296757E-04 Eh
   gradient norm :     0.0019108 Eh/α   predicted    -0.2378120E-04 ( -27.86%)
   displ. norm   :     0.3126589 α      lambda       -0.3117104E-04
   maximum displ.:     0.1711825 α      in ANC's #1, #5, #6, ...
 * RMSD in coord.:     0.4589434 α      energy gain  -0.1501225E-01 Eh

generating ANC from exact Hessian ...
Using Lindh-Hessian (1995)
 Shifting diagonal of input Hessian by    9.8546703241252642E-003
 Lowest  eigenvalues of input Hessian
    0.000000    0.000000    0.000000    0.000000    0.000000    0.000000
    0.010000    0.010152    0.010250    0.010608    0.010780    0.011457
    0.012011    0.012324    0.013532    0.013751    0.017139    0.017925
 Highest eigenvalues
    1.974452    1.982326    2.085364    2.208580    2.212072    2.371832


........................................................................
.............................. CYCLE   21 ..............................
........................................................................

 iter      E             dE          RMSdq      gap      omega  full diag
   1    -88.7978920 -0.887979E+02  0.401E-02    1.94       0.0  T
   2    -88.7978929 -0.876391E-06  0.234E-02    1.94       1.0  T
   3    -88.7978927  0.182905E-06  0.285E-03    1.94       4.6  T
   4    -88.7978931 -0.381926E-06  0.972E-04    1.94      13.6  T
   5    -88.7978931 -0.176239E-07  0.481E-04    1.94      27.5  T
     SCC iter.                  ...        0 min,  0.018 sec
     gradient                   ...        0 min,  0.076 sec
 * total energy  :   -87.6438131 Eh     change       -0.2661137E-04 Eh
   gradient norm :     0.0029277 Eh/α   predicted     0.0000000E+00 (-100.00%)
   displ. norm   :     0.0216039 α      lambda       -0.1256140E-04
   maximum displ.:     0.0096401 α      in ANC's #2, #12, #1, ...

........................................................................
.............................. CYCLE   22 ..............................
........................................................................

 iter      E             dE          RMSdq      gap      omega  full diag
   1    -88.7985479 -0.887985E+02  0.625E-03    1.95       0.0  T
   2    -88.7985481 -0.195691E-06  0.366E-03    1.94       3.6  T
   3    -88.7985480  0.410512E-07  0.155E-03    1.94       8.6  T
   4    -88.7985481 -0.616171E-07  0.509E-04    1.94      26.0  T
   5    -88.7985481 -0.119531E-07  0.128E-04    1.94     103.1  T
     SCC iter.                  ...        0 min,  0.018 sec
     gradient                   ...        0 min,  0.081 sec
 * total energy  :   -87.6438263 Eh     change       -0.1324061E-04 Eh
   gradient norm :     0.0014512 Eh/α   predicted    -0.8601765E-05 ( -35.03%)
   displ. norm   :     0.0731249 α      lambda       -0.1744368E-04
   maximum displ.:     0.0357782 α      in ANC's #2, #1, #12, ...

........................................................................
.............................. CYCLE   23 ..............................
........................................................................

 iter      E             dE          RMSdq      gap      omega  full diag
   1    -88.7992570 -0.887993E+02  0.157E-02    1.95       0.0  T
   2    -88.7992579 -0.820314E-06  0.910E-03    1.95       1.5  T
   3    -88.7992577  0.155424E-06  0.305E-03    1.95       4.3  T
   4    -88.7992579 -0.246527E-06  0.797E-04    1.95      16.6  T
   5    -88.7992580 -0.275461E-07  0.253E-04    1.95      52.4  T
     SCC iter.                  ...        0 min,  0.018 sec
     gradient                   ...        0 min,  0.082 sec
 * total energy  :   -87.6438399 Eh     change       -0.1356955E-04 Eh
   gradient norm :     0.0019056 Eh/α   predicted    -0.9331973E-05 ( -31.23%)
   displ. norm   :     0.0340227 α      lambda       -0.5800119E-05
   maximum displ.:     0.0188805 α      in ANC's #2, #1, #8, ...

........................................................................
.............................. CYCLE   24 ..............................
........................................................................

 iter      E             dE          RMSdq      gap      omega  full diag
   1    -88.7988967 -0.887989E+02  0.550E-03    1.95       0.0  T
   2    -88.7988967 -0.313741E-07  0.323E-03    1.95       4.1  T
   3    -88.7988966  0.101887E-06  0.150E-03    1.95       8.9  T
   4    -88.7988967 -0.121076E-06  0.173E-04    1.95      76.4  T
   5    -88.7988967 -0.609063E-09  0.825E-05    1.95     160.5  T
     SCC iter.                  ...        0 min,  0.018 sec
     gradient                   ...        0 min,  0.082 sec
 * total energy  :   -87.6438476 Eh     change       -0.7719618E-05 Eh
   gradient norm :     0.0013488 Eh/α   predicted    -0.3023249E-05 ( -60.84%)
   displ. norm   :     0.0993828 α      lambda       -0.1267395E-04
   maximum displ.:     0.0549955 α      in ANC's #2, #1, #5, ...

........................................................................
.............................. CYCLE   25 ..............................
........................................................................

 iter      E             dE          RMSdq      gap      omega  full diag
   1    -88.7984255 -0.887984E+02  0.137E-02    1.95       0.0  T
   2    -88.7984257 -0.195949E-06  0.801E-03    1.95       1.7  T
   3    -88.7984252  0.465501E-06  0.317E-03    1.95       4.2  T
   4    -88.7984258 -0.546853E-06  0.483E-04    1.95      27.4  T
   5    -88.7984258 -0.734804E-08  0.198E-04    1.95      67.0  T
     SCC iter.                  ...        0 min,  0.057 sec
     gradient                   ...        0 min,  0.042 sec
 * total energy  :   -87.6438607 Eh     change       -0.1307166E-04 Eh
   gradient norm :     0.0007965 Eh/α   predicted    -0.6369312E-05 ( -51.27%)
   displ. norm   :     0.0874235 α      lambda       -0.6293338E-05
   maximum displ.:     0.0497356 α      in ANC's #2, #1, #5, ...

........................................................................
.............................. CYCLE   26 ..............................
........................................................................

 iter      E             dE          RMSdq      gap      omega  full diag
   1    -88.7983472 -0.887983E+02  0.106E-02    1.95       0.0  T
   2    -88.7983472 -0.758421E-07  0.622E-03    1.95       2.1  T
   3    -88.7983471  0.110160E-06  0.150E-03    1.95       8.8  T
   4    -88.7983473 -0.130200E-06  0.352E-04    1.95      37.7  T
   5    -88.7983473 -0.414168E-08  0.143E-04    1.95      92.9  T
     SCC iter.                  ...        0 min,  0.018 sec
     gradient                   ...        0 min,  0.064 sec
 * total energy  :   -87.6438682 Eh     change       -0.7480629E-05 Eh
   gradient norm :     0.0010357 Eh/α   predicted    -0.3157574E-05 ( -57.79%)
   displ. norm   :     0.1006413 α      lambda       -0.7308901E-05
   maximum displ.:     0.0577560 α      in ANC's #2, #1, #5, ...

........................................................................
.............................. CYCLE   27 ..............................
........................................................................

 iter      E             dE          RMSdq      gap      omega  full diag
   1    -88.7984897 -0.887985E+02  0.116E-02    1.95       0.0  T
   2    -88.7984898 -0.616529E-07  0.681E-03    1.95       1.9  T
   3    -88.7984898  0.251991E-08  0.656E-04    1.95      20.2  T
   4    -88.7984898 -0.153382E-07  0.257E-04    1.95      51.5  T
     SCC iter.                  ...        0 min,  0.053 sec
     gradient                   ...        0 min,  0.043 sec
 * total energy  :   -87.6438778 Eh     change       -0.9575482E-05 Eh
   gradient norm :     0.0009690 Eh/α   predicted    -0.3685719E-05 ( -61.51%)
   displ. norm   :     0.1559843 α      lambda       -0.1197895E-04
   maximum displ.:     0.0892911 α      in ANC's #2, #1, #5, ...

........................................................................
.............................. CYCLE   28 ..............................
........................................................................

 iter      E             dE          RMSdq      gap      omega  full diag
   1    -88.7987152 -0.887987E+02  0.194E-02    1.95       0.0  T
   2    -88.7987153 -0.142649E-06  0.113E-02    1.95       1.2  T
   3    -88.7987153  0.377650E-07  0.134E-03    1.95       9.9  T
   4    -88.7987154 -0.721214E-07  0.502E-04    1.95      26.4  T
   5    -88.7987154 -0.577933E-08  0.236E-04    1.95      56.1  T
     SCC iter.                  ...        0 min,  0.049 sec
     gradient                   ...        0 min,  0.043 sec
 * total energy  :   -87.6438929 Eh     change       -0.1510968E-04 Eh
   gradient norm :     0.0008627 Eh/α   predicted    -0.6056102E-05 ( -59.92%)
   displ. norm   :     0.2148942 α      lambda       -0.1433478E-04
   maximum displ.:     0.1235452 α      in ANC's #2, #1, #5, ...

........................................................................
.............................. CYCLE   29 ..............................
........................................................................

 iter      E             dE          RMSdq      gap      omega  full diag
   1    -88.7988379 -0.887988E+02  0.274E-02    1.95       0.0  T
   2    -88.7988381 -0.231735E-06  0.160E-02    1.95       1.0  T
   3    -88.7988381  0.123575E-07  0.152E-03    1.95       8.7  T
   4    -88.7988382 -0.820978E-07  0.649E-04    1.95      20.4  T
   5    -88.7988382 -0.620862E-08  0.305E-04    1.95      43.4  T
     SCC iter.                  ...        0 min,  0.039 sec
     gradient                   ...        0 min,  0.043 sec
 * total energy  :   -87.6439104 Eh     change       -0.1747933E-04 Eh
   gradient norm :     0.0009817 Eh/α   predicted    -0.7316193E-05 ( -58.14%)
   displ. norm   :     0.2258626 α      lambda       -0.1272357E-04
   maximum displ.:     0.1305382 α      in ANC's #2, #1, #5, ...

........................................................................
.............................. CYCLE   30 ..............................
........................................................................

 iter      E             dE          RMSdq      gap      omega  full diag
   1    -88.7988985 -0.887989E+02  0.291E-02    1.96       0.0  T
   2    -88.7988987 -0.253170E-06  0.171E-02    1.96       1.0  T
   3    -88.7988988 -0.241620E-07  0.136E-03    1.96       9.7  T
   4    -88.7988988 -0.575470E-07  0.644E-04    1.96      20.6  T
   5    -88.7988988 -0.558509E-08  0.319E-04    1.96      41.5  T
     SCC iter.                  ...        0 min,  0.018 sec
     gradient                   ...        0 min,  0.042 sec
 * total energy  :   -87.6439264 Eh     change       -0.1602750E-04 Eh
   gradient norm :     0.0010390 Eh/α   predicted    -0.6508997E-05 ( -59.39%)
   displ. norm   :     0.2294684 α      lambda       -0.1264445E-04
   maximum displ.:     0.1336240 α      in ANC's #2, #1, #5, ...

........................................................................
.............................. CYCLE   31 ..............................
........................................................................

 iter      E             dE          RMSdq      gap      omega  full diag
   1    -88.7989238 -0.887989E+02  0.293E-02    1.96       0.0  T
   2    -88.7989241 -0.275025E-06  0.172E-02    1.96       1.0  T
   3    -88.7989240  0.574828E-07  0.187E-03    1.96       7.1  T
   4    -88.7989242 -0.148476E-06  0.760E-04    1.96      17.4  T
   5    -88.7989242 -0.121525E-07  0.355E-04    1.96      37.3  T
     SCC iter.                  ...        0 min,  0.026 sec
     gradient                   ...        0 min,  0.042 sec
 * total energy  :   -87.6439428 Eh     change       -0.1642435E-04 Eh
   gradient norm :     0.0008392 Eh/α   predicted    -0.6473915E-05 ( -60.58%)
   displ. norm   :     0.2641535 α      lambda       -0.1472401E-04
   maximum displ.:     0.1545071 α      in ANC's #2, #1, #5, ...

........................................................................
.............................. CYCLE   32 ..............................
........................................................................

 iter      E             dE          RMSdq      gap      omega  full diag
   1    -88.7987718 -0.887988E+02  0.335E-02    1.96       0.0  T
   2    -88.7987722 -0.404252E-06  0.196E-02    1.96       1.0  T
   3    -88.7987720  0.190397E-06  0.266E-03    1.96       5.0  T
   4    -88.7987723 -0.332324E-06  0.904E-04    1.96      14.7  T
   5    -88.7987723 -0.162402E-07  0.405E-04    1.96      32.7  T
     SCC iter.                  ...        0 min,  0.018 sec
     gradient                   ...        0 min,  0.042 sec
 * total energy  :   -87.6439618 Eh     change       -0.1904124E-04 Eh
   gradient norm :     0.0006410 Eh/α   predicted    -0.7593957E-05 ( -60.12%)
   displ. norm   :     0.3098789 α      lambda       -0.1686904E-04
   maximum displ.:     0.1814909 α      in ANC's #1, #2, #5, ...

........................................................................
.............................. CYCLE   33 ..............................
........................................................................

 iter      E             dE          RMSdq      gap      omega  full diag
   1    -88.7984829 -0.887985E+02  0.391E-02    1.96       0.0  T
   2    -88.7984835 -0.577763E-06  0.228E-02    1.96       1.0  T
   3    -88.7984830  0.445098E-06  0.362E-03    1.96       3.7  T
   4    -88.7984837 -0.672171E-06  0.105E-03    1.96      12.6  T
   5    -88.7984837 -0.172356E-07  0.449E-04    1.96      29.5  T
   6    -88.7984837 -0.174798E-08  0.120E-04    1.96     110.0  T
     SCC iter.                  ...        0 min,  0.024 sec
     gradient                   ...        0 min,  0.042 sec
 * total energy  :   -87.6439832 Eh     change       -0.2140127E-04 Eh
   gradient norm :     0.0008361 Eh/α   predicted    -0.8795263E-05 ( -58.90%)
   displ. norm   :     0.3734932 α      lambda       -0.1944698E-04
   maximum displ.:     0.2187938 α      in ANC's #1, #2, #5, ...

........................................................................
.............................. CYCLE   34 ..............................
........................................................................

 iter      E             dE          RMSdq      gap      omega  full diag
   1    -88.7979462 -0.887979E+02  0.475E-02    1.96       0.0  T
   2    -88.7979471 -0.889476E-06  0.276E-02    1.96       1.0  T
   3    -88.7979468  0.271854E-06  0.357E-03    1.96       3.7  T
   4    -88.7979474 -0.579727E-06  0.132E-03    1.96      10.0  T
   5    -88.7979474 -0.333425E-07  0.542E-04    1.96      24.4  T
   6    -88.7979474 -0.307529E-08  0.129E-04    1.96     102.6  T
     SCC iter.                  ...        0 min,  0.021 sec
     gradient                   ...        0 min,  0.042 sec
 * total energy  :   -87.6440074 Eh     change       -0.2417422E-04 Eh
   gradient norm :     0.0012809 Eh/α   predicted    -0.1033119E-04 ( -57.26%)
   displ. norm   :     0.4415618 α      lambda       -0.2366356E-04
   maximum displ.:     0.2578646 α      in ANC's #1, #2, #5, ...

........................................................................
.............................. CYCLE   35 ..............................
........................................................................

 iter      E             dE          RMSdq      gap      omega  full diag
   1    -88.7975319 -0.887975E+02  0.566E-02    1.96       0.0  T
   2    -88.7975331 -0.126034E-05  0.329E-02    1.96       1.0  T
   3    -88.7975328  0.368465E-06  0.419E-03    1.96       3.2  T
   4    -88.7975336 -0.811256E-06  0.156E-03    1.96       8.5  T
   5    -88.7975336 -0.437935E-07  0.614E-04    1.96      21.6  T
   6    -88.7975336 -0.321005E-08  0.145E-04    1.96      91.6  T
     SCC iter.                  ...        0 min,  0.023 sec
     gradient                   ...        0 min,  0.043 sec
 * total energy  :   -87.6440364 Eh     change       -0.2902682E-04 Eh
   gradient norm :     0.0015962 Eh/α   predicted    -0.1286183E-04 ( -55.69%)
   displ. norm   :     0.5700218 α      lambda       -0.3275747E-04
   maximum displ.:     0.3306594 α      in ANC's #1, #2, #5, ...

........................................................................
.............................. CYCLE   36 ..............................
........................................................................

 iter      E             dE          RMSdq      gap      omega  full diag
   1    -88.7967288 -0.887967E+02  0.742E-02    1.96       0.0  T
   2    -88.7967310 -0.219499E-05  0.430E-02    1.96       1.0  T
   3    -88.7967311 -0.112875E-06  0.413E-03    1.96       3.2  T
   4    -88.7967317 -0.571380E-06  0.207E-03    1.96       6.4  T
   5    -88.7967318 -0.972730E-07  0.827E-04    1.96      16.0  T
   6    -88.7967318 -0.896753E-08  0.186E-04    1.96      71.1  T
     SCC iter.                  ...        0 min,  0.022 sec
     gradient                   ...        0 min,  0.043 sec
 * total energy  :   -87.6440751 Eh     change       -0.3865504E-04 Eh
   gradient norm :     0.0019171 Eh/α   predicted    -0.1874587E-04 ( -51.50%)
   displ. norm   :     0.5798639 α      lambda       -0.4328022E-04
   maximum displ.:     0.3271695 α      in ANC's #1, #2, #6, ...

........................................................................
.............................. CYCLE   37 ..............................
........................................................................

 iter      E             dE          RMSdq      gap      omega  full diag
   1    -88.7975301 -0.887975E+02  0.774E-02    1.96       0.0  T
   2    -88.7975324 -0.232696E-05  0.449E-02    1.96       1.0  T
   3    -88.7975326 -0.203152E-06  0.411E-03    1.96       3.2  T
   4    -88.7975332 -0.517955E-06  0.211E-03    1.96       6.3  T
   5    -88.7975332 -0.978327E-07  0.861E-04    1.96      15.4  T
   6    -88.7975333 -0.105945E-07  0.200E-04    1.96      66.1  T
     SCC iter.                  ...        0 min,  0.037 sec
     gradient                   ...        0 min,  0.043 sec
 * total energy  :   -87.6441244 Eh     change       -0.4933795E-04 Eh
   gradient norm :     0.0016923 Eh/α   predicted    -0.2487883E-04 ( -49.57%)
   displ. norm   :     0.4985244 α      lambda       -0.3823839E-04
   maximum displ.:     0.2839057 α      in ANC's #2, #1, #5, ...

........................................................................
.............................. CYCLE   38 ..............................
........................................................................

 iter      E             dE          RMSdq      gap      omega  full diag
   1    -88.7967082 -0.887967E+02  0.663E-02    1.96       0.0  T
   2    -88.7967100 -0.183695E-05  0.385E-02    1.96       1.0  T
   3    -88.7967103 -0.308605E-06  0.310E-03    1.96       4.3  T
   4    -88.7967105 -0.243578E-06  0.167E-03    1.96       7.9  T
   5    -88.7967106 -0.463110E-07  0.785E-04    1.96      16.9  T
   6    -88.7967106 -0.118893E-07  0.218E-04    1.96      60.9  T
     SCC iter.                  ...        0 min,  0.021 sec
     gradient                   ...        0 min,  0.042 sec
 * total energy  :   -87.6441690 Eh     change       -0.4458309E-04 Eh
   gradient norm :     0.0017665 Eh/α   predicted    -0.2123511E-04 ( -52.37%)
   displ. norm   :     0.3437961 α      lambda       -0.4946516E-04
   maximum displ.:     0.1599775 α      in ANC's #2, #7, #1, ...

........................................................................
.............................. CYCLE   39 ..............................
........................................................................

 iter      E             dE          RMSdq      gap      omega  full diag
   1    -88.8023023 -0.888023E+02  0.504E-02    1.96       0.0  T
   2    -88.8023038 -0.151640E-05  0.293E-02    1.96       1.0  T
   3    -88.8023034  0.385385E-06  0.443E-03    1.96       3.0  T
   4    -88.8023042 -0.780390E-06  0.131E-03    1.96      10.1  T
   5    -88.8023042 -0.212665E-07  0.647E-04    1.96      20.5  T
   6    -88.8023042 -0.216839E-08  0.233E-04    1.96      56.9  T
     SCC iter.                  ...        0 min,  0.022 sec
     gradient                   ...        0 min,  0.081 sec
 * total energy  :   -87.6441950 Eh     change       -0.2596345E-04 Eh
   gradient norm :     0.0029741 Eh/α   predicted    -0.2603638E-04 (   0.28%)
   displ. norm   :     0.4711421 α      lambda       -0.5361919E-04
   maximum displ.:     0.2756027 α      in ANC's #2, #1, #5, ...

........................................................................
.............................. CYCLE   40 ..............................
........................................................................

 iter      E             dE          RMSdq      gap      omega  full diag
   1    -88.7982230 -0.887982E+02  0.630E-02    1.95       0.0  T
   2    -88.7982250 -0.199765E-05  0.366E-02    1.95       1.0  T
   3    -88.7982247  0.366139E-06  0.477E-03    1.95       2.8  T
   4    -88.7982257 -0.993133E-06  0.159E-03    1.95       8.3  T
   5    -88.7982257 -0.238224E-07  0.673E-04    1.95      19.7  T
   6    -88.7982257 -0.407834E-08  0.193E-04    1.95      68.5  T
     SCC iter.                  ...        0 min,  0.022 sec
     gradient                   ...        0 min,  0.061 sec
 * total energy  :   -87.6442275 Eh     change       -0.3250932E-04 Eh
   gradient norm :     0.0018460 Eh/α   predicted    -0.3276411E-04 (   0.78%)
   displ. norm   :     0.2250739 α      lambda       -0.1294498E-04
   maximum displ.:     0.1393752 α      in ANC's #2, #1, #5, ...

........................................................................
.............................. CYCLE   41 ..............................
........................................................................

 iter      E             dE          RMSdq      gap      omega  full diag
   1    -88.7970089 -0.887970E+02  0.297E-02    1.95       0.0  T
   2    -88.7970093 -0.422211E-06  0.173E-02    1.95       1.0  T
   3    -88.7970093  0.709875E-07  0.219E-03    1.95       6.1  T
   4    -88.7970095 -0.200212E-06  0.772E-04    1.95      17.2  T
   5    -88.7970095 -0.712583E-08  0.345E-04    1.95      38.4  T
     SCC iter.                  ...        0 min,  0.018 sec
     gradient                   ...        0 min,  0.088 sec
 * total energy  :   -87.6442389 Eh     change       -0.1135894E-04 Eh
   gradient norm :     0.0020329 Eh/α   predicted    -0.6619718E-05 ( -41.72%)
   displ. norm   :     0.0711838 α      lambda       -0.1320563E-04
   maximum displ.:     0.0447858 α      in ANC's #2, #1, #5, ...

........................................................................
.............................. CYCLE   42 ..............................
........................................................................

 iter      E             dE          RMSdq      gap      omega  full diag
   1    -88.7979757 -0.887980E+02  0.101E-02    1.95       0.0  T
   2    -88.7979758 -0.833467E-07  0.587E-03    1.95       2.3  T
   3    -88.7979757  0.700014E-07  0.148E-03    1.95       9.0  T
   4    -88.7979758 -0.920339E-07  0.331E-04    1.95      40.0  T
   5    -88.7979758 -0.286626E-08  0.172E-04    1.95      76.8  T
     SCC iter.                  ...        0 min,  0.018 sec
     gradient                   ...        0 min,  0.057 sec
 * total energy  :   -87.6442499 Eh     change       -0.1102914E-04 Eh
   gradient norm :     0.0016073 Eh/α   predicted    -0.6639756E-05 ( -39.80%)
   displ. norm   :     0.4622432 α      lambda       -0.2979574E-04
   maximum displ.:     0.2932633 α      in ANC's #2, #1, #5, ...
 * RMSD in coord.:     0.7150030 α      energy gain  -0.4633903E-03 Eh

generating ANC from exact Hessian ...
Using Lindh-Hessian (1995)
 Shifting diagonal of input Hessian by    9.8453834184093272E-003
 Lowest  eigenvalues of input Hessian
    0.000000    0.000000    0.000000    0.000000    0.000000    0.000000
    0.010000    0.010118    0.010245    0.010615    0.010796    0.011486
    0.012012    0.012212    0.013448    0.013966    0.016769    0.018003
 Highest eigenvalues
    1.977366    1.982441    2.085718    2.207717    2.211639    2.371711


........................................................................
.............................. CYCLE   43 ..............................
........................................................................

 iter      E             dE          RMSdq      gap      omega  full diag
   1    -88.7992553 -0.887993E+02  0.625E-02    1.96       0.0  T
   2    -88.7992568 -0.148961E-05  0.364E-02    1.96       1.0  T
   3    -88.7992561  0.681187E-06  0.528E-03    1.96       2.5  T
   4    -88.7992573 -0.120776E-05  0.171E-03    1.96       7.7  T
   5    -88.7992574 -0.477416E-07  0.804E-04    1.96      16.5  T
   6    -88.7992574 -0.113646E-07  0.252E-04    1.96      52.6  T
     SCC iter.                  ...        0 min,  0.067 sec
     gradient                   ...        0 min,  0.043 sec
 * total energy  :   -87.6442758 Eh     change       -0.2586829E-04 Eh
   gradient norm :     0.0021342 Eh/α   predicted     0.0000000E+00 (-100.00%)
   displ. norm   :     0.0176000 α      lambda       -0.8349651E-05
   maximum displ.:     0.0090458 α      in ANC's #3, #8, #2, ...

........................................................................
.............................. CYCLE   44 ..............................
........................................................................

 iter      E             dE          RMSdq      gap      omega  full diag
   1    -88.7995095 -0.887995E+02  0.523E-03    1.96       0.0  T
   2    -88.7995095 -0.529147E-07  0.306E-03    1.96       4.3  T
   3    -88.7995095  0.380290E-07  0.112E-03    1.96      11.8  T
   4    -88.7995095 -0.513484E-07  0.204E-04    1.96      65.0  T
   5    -88.7995095 -0.139387E-08  0.839E-05    1.96     157.9  T
     SCC iter.                  ...        0 min,  0.027 sec
     gradient                   ...        0 min,  0.043 sec
 * total energy  :   -87.6442837 Eh     change       -0.7949708E-05 Eh
   gradient norm :     0.0012391 Eh/α   predicted    -0.5039007E-05 ( -36.61%)
   displ. norm   :     0.0633484 α      lambda       -0.1191446E-04
   maximum displ.:     0.0362370 α      in ANC's #3, #8, #2, ...

........................................................................
.............................. CYCLE   45 ..............................
........................................................................

 iter      E             dE          RMSdq      gap      omega  full diag
   1    -88.7997408 -0.887997E+02  0.152E-02    1.96       0.0  T
   2    -88.7997412 -0.345709E-06  0.882E-03    1.96       1.5  T
   3    -88.7997409  0.255455E-06  0.292E-03    1.96       4.5  T
   4    -88.7997412 -0.336180E-06  0.543E-04    1.96      24.4  T
   5    -88.7997413 -0.107871E-07  0.241E-04    1.96      55.1  T
     SCC iter.                  ...        0 min,  0.057 sec
     gradient                   ...        0 min,  0.043 sec
 * total energy  :   -87.6442922 Eh     change       -0.8472266E-05 Eh
   gradient norm :     0.0012854 Eh/α   predicted    -0.6317520E-05 ( -25.43%)
   displ. norm   :     0.0206680 α      lambda       -0.2723914E-05
   maximum displ.:     0.0141947 α      in ANC's #3, #2, #7, ...

........................................................................
.............................. CYCLE   46 ..............................
........................................................................

 iter      E             dE          RMSdq      gap      omega  full diag
   1    -88.7995252 -0.887995E+02  0.391E-03    1.96       0.0  T
   2    -88.7995252 -0.134572E-07  0.229E-03    1.96       5.8  T
   3    -88.7995252  0.155976E-07  0.608E-04    1.96      21.8  T
   4    -88.7995252 -0.194725E-07  0.138E-04    1.96      95.9  T
     SCC iter.                  ...        0 min,  0.041 sec
     gradient                   ...        0 min,  0.042 sec
 * total energy  :   -87.6442962 Eh     change       -0.3976634E-05 Eh
   gradient norm :     0.0007713 Eh/α   predicted    -0.1570720E-05 ( -60.50%)
   displ. norm   :     0.0537021 α      lambda       -0.5382314E-05
   maximum displ.:     0.0356797 α      in ANC's #3, #2, #7, ...

   *** GEOMETRY OPTIMIZATION CONVERGED AFTER 46 ITERATIONS ***

------------------------------------------------------------------------
 total energy gain   :        -0.0155219 Eh       -9.7401 kcal/mol
 total RMSD          :         1.0012337 a0        0.5298 Å
 total power (kW/mol):        -0.8859298 (step)   -8.2343 (real)
------------------------------------------------------------------------

 ANCopt (total)                0 d,  0 h,  0 min,  4.949 sec
 optimizer setup                ...        0 min,  0.000 sec (  0.002%)
 model hessian                  ...        0 min,  0.078 sec (  1.574%)
 ANC generation                 ...        0 min,  0.008 sec (  0.167%)
 coordinate transformation      ...        0 min,  0.001 sec (  0.014%)
 single point calculation       ...        0 min,  4.847 sec ( 97.933%)
 optimization log               ...        0 min,  0.009 sec (  0.177%)
 hessian update                 ...        0 min,  0.001 sec (  0.020%)
 rational function              ...        0 min,  0.004 sec (  0.079%)

================
 final structure:
================
57
 xtb: 6.7.1 (edcfbbe)
O           -2.98506329383329        1.14534267337791        1.85024800270265
C           -3.51412161175945        0.30214740530566        1.14435379112456
C           -2.83719398319469       -0.77951900061633        0.47468796222871
C           -1.34937103543846       -0.84362803614134        0.64104423049782
C           -0.65112704399426       -0.03072049557752       -0.46010125392329
N            0.76643884647827       -0.33258973493401       -0.51993423272556
C            1.35286977744743       -0.01957952469773       -1.80884650523581
C            2.77867629471907       -0.55580023534415       -1.88151735601655
C            3.62929868175952        0.07277672178851       -0.78010839795506
C            2.94989261046959       -0.20759864528027        0.56685758627065
C            1.51576863386970        0.31049033711659        0.54220293625271
C            5.01756414505284       -0.46297831170195       -0.77061331378605
N            5.31795202714166       -1.66150782878247       -1.16778837869046
O            6.66242010837202       -1.86949306575485       -1.00963422851323
C            7.20665808657741       -0.75495410183487       -0.49552474205906
C            6.19854904668258        0.21068186643416       -0.30781442594120
C            6.51210478772451        1.46392500350004        0.21371740493578
C            7.82513613823560        1.71912948703502        0.53289631999879
C            8.80028732725226        0.73770473882923        0.33323131190732
F           10.07020733908650        1.04124049122000        0.66102748650244
C            8.53609938684816       -0.51412616205592       -0.17831193115771
C           -3.56251614790342       -1.65961621929413       -0.27580227901024
N           -4.90726527697410       -1.54328254863341       -0.41176493290925
C           -5.53247946493524       -0.57626592907939        0.17818998284051
N           -4.90735239561605        0.34559367936595        0.94255681892060
C           -5.60099874169233        1.41156166403269        1.65013473632770
C           -6.97194284968322        1.70015133887501        1.06595132027918
C           -7.73913524473438        0.39047801379793        0.94374730390476
C           -7.01331385957153       -0.49560341456291       -0.05880644953881
C           -2.95608002982771       -2.82263039081725       -0.99492903478975
H           -1.10271248594481       -0.42574853924604        1.61753707102516
H           -0.99495407192331       -1.87251166466117        0.58966314790374
H           -0.84300988714279        1.04278162970856       -0.29529411859275
H           -1.09145490237863       -0.30257064085113       -1.42356315652732
H            0.74957153779775       -0.49316590210880       -2.58739106401162
H            1.35863054279452        1.07140156351699       -1.99897330962905
H            2.77030578781815       -1.63605206116570       -1.74309485123261
H            3.20629221939523       -0.33747372853712       -2.86091449500973
H            3.68056051893936        1.15828466076620       -0.92894089268906
H            3.50083597043462        0.26831779312660        1.38054434273809
H            2.93757201370252       -1.28484586635169        0.73574660690377
H            1.52169728489854        1.41076235450677        0.41754874104589
H            1.03522688813795        0.08363839857862        1.49463935958585
H            5.74771257546989        2.21006941500084        0.36168444991551
H            8.12847256470903        2.67097686492629        0.93874530343884
H            9.30973004263939       -1.24866795059073       -0.32080528201600
H           -5.68959414890546        1.11508047239309        2.70208998982147
H           -4.94998237629123        2.29020403038730        1.61576652381377
H           -7.49186274285397        2.40337756507565        1.71711482549353
H           -6.87069480618373        2.15898319253566        0.08010114208504
H           -7.78267464887482       -0.10087791017833        1.91801281913177
H           -8.76195191691010        0.56742634930685        0.60912783474884
H           -7.15465638111500       -0.10090228097594       -1.06975887889037
H           -7.40526714859763       -1.51316983445252       -0.05899276992898
H           -2.14917651058968       -2.49830767924188       -1.64746810685562
H           -2.54552846431290       -3.53373031993467       -0.27996000340779
H           -3.72504971326806       -3.31480968712577       -1.58241496130821

 Bond Distances (Angstroems)
 ---------------------------
O1-C2=1.2203         C2-O1=1.2203         C2-C3=1.4411         C2-N25=1.4084        C3-C2=1.4411         C3-C4=1.4985         
C3-C22=1.3652        C4-C3=1.4985         C4-C5=1.5365         C4-H31=1.0904        C4-H32=1.0894        C5-C4=1.5365         
C5-N6=1.4506         C5-H33=1.1029        C5-H34=1.0936        N6-C5=1.4506         N6-C7=1.4502         N6-C11=1.4502        
C7-N6=1.4502         C7-C8=1.5250         C7-H35=1.0929        C7-H36=1.1074        C8-C7=1.5250         C8-C9=1.5270         
C8-H37=1.0891        C8-H38=1.0908        C9-C8=1.5270         C9-C10=1.5344        C9-C12=1.4881        C9-H39=1.0969        
C10-C9=1.5344        C10-C11=1.5250       C10-H40=1.0918       C10-H41=1.0905       C11-N6=1.4502        C11-C10=1.5250       
C11-H42=1.1073       C11-H43=1.0907       C12-C9=1.4881        C12-N13=1.2979       C12-C16=1.4362       N13-C12=1.2979       
N13-O14=1.3696       O14-N13=1.3696       O14-C15=1.3426       C15-O14=1.3426       C15-C16=1.4085       C15-C21=1.3878       
C16-C12=1.4362       C16-C15=1.4085       C16-C17=1.3932       C17-C16=1.3932       C17-C18=1.3752       C17-H44=1.0784       
C18-C17=1.3752       C18-C19=1.3978       C18-H45=1.0783       C19-C18=1.3978       C19-F20=1.3462       C19-C21=1.3779       
F20-C19=1.3462       C21-C15=1.3878       C21-C19=1.3779       C21-H46=1.0763       C22-C3=1.3652        C22-N23=1.3566       
C22-C30=1.4958       N23-C22=1.3566       N23-C24=1.2939       C24-N23=1.2939       C24-N25=1.3509       C24-C29=1.5018       
N25-C2=1.4084        N25-C24=1.3509       N25-C26=1.4554       C26-N25=1.4554       C26-C27=1.5179       C26-H47=1.0965       
C26-H48=1.0941       C27-C26=1.5179       C27-C28=1.5227       C27-H49=1.0903       C27-H50=1.0921       C28-C27=1.5227       
C28-C29=1.5222       C28-H51=1.0920       C28-H52=1.0906       C29-C24=1.5018       C29-C28=1.5222       C29-H53=1.0944       
C29-H54=1.0904       C30-C22=1.4958       C30-H55=1.0872       C30-H56=1.0888       C30-H57=1.0857       H31-C4=1.0904        
H32-C4=1.0894        H33-C5=1.1029        H34-C5=1.0936        H35-C7=1.0929        H36-C7=1.1074        H37-C8=1.0891        
H38-C8=1.0908        H39-C9=1.0969        H40-C10=1.0918       H41-C10=1.0905       H42-C11=1.1073       H43-C11=1.0907       
H44-C17=1.0784       H45-C18=1.0783       H46-C21=1.0763       H47-C26=1.0965       H48-C26=1.0941       H49-C27=1.0903       
H50-C27=1.0921       H51-C28=1.0920       H52-C28=1.0906       H53-C29=1.0944       H54-C29=1.0904       H55-C30=1.0872       
H56-C30=1.0888       H57-C30=1.0857       
 C  H  Rav=1.0914 sigma=0.0071  Rmin=1.0763  Rmax=1.1074    27
 C  C  Rav=1.4656 sigma=0.0618  Rmin=1.3652  Rmax=1.5365    21
 N  C  Rav=1.3905 sigma=0.0632  Rmin=1.2939  Rmax=1.4554     9
 O  C  Rav=1.2815 sigma=0.0612  Rmin=1.2203  Rmax=1.3426     2
 O  N  Rav=1.3696 sigma=0.0000  Rmin=1.3696  Rmax=1.3696     1
 F  C  Rav=1.3462 sigma=0.0000  Rmin=1.3462  Rmax=1.3462     1

 selected bond angles (degree)
 --------------------
C3-C2-O1=125.72                N25-C2-O1=119.37               N25-C2-C3=114.91               C4-C3-C2=116.55                
C22-C3-C2=119.32               C22-C3-C4=124.12               C5-C4-C3=110.43                H31-C4-C3=107.92               
H31-C4-C5=109.65               H32-C4-C3=110.99               H32-C4-C5=108.54               H32-C4-H31=109.30              
N6-C5-C4=111.32                H33-C5-C4=109.20               H33-C5-N6=112.26               H34-C5-C4=108.47               
H34-C5-N6=107.78               H34-C5-H33=107.67              C7-N6-C5=112.76                C11-N6-C5=112.49               
C11-N6-C7=110.26               C8-C7-N6=110.15                H35-C7-N6=108.44               H35-C7-C8=109.26               
H36-C7-N6=111.55               H36-C7-C8=109.47               H36-C7-H35=107.91              C9-C8-C7=109.98                
H37-C8-C7=109.60               H37-C8-C9=108.72               H38-C8-C7=109.81               H38-C8-C9=110.30               
H38-C8-H37=108.40              C10-C9-C8=108.14               C12-C9-C8=112.09               C12-C9-C10=109.98              
H39-C9-C8=109.61               H39-C9-C10=108.70              H39-C9-C12=108.27              C11-C10-C9=109.88              
H40-C10-C9=110.56              H40-C10-C11=109.78             H41-C10-C9=108.75              H41-C10-C11=109.12             
H41-C10-H40=108.72             

 selected dihedral angles (degree)
 ---------------------------------
C4-C3-C2-O1=358.43            C4-C3-C2-N25=178.75           C22-C3-C2-O1=179.37           C22-C3-C2-N25=359.69          
C5-C4-C3-C2=270.45            C5-C4-C3-C22= 89.47           H31-C4-C3-C2= 30.28           H31-C4-C3-C22=209.30          
H32-C4-C3-C2=150.03           H32-C4-C3-C22=329.04          N6-C5-C4-C3=193.82            N6-C5-C4-H31= 75.03           
N6-C5-C4-H32=315.69           H33-C5-C4-C3= 69.32           H33-C5-C4-H31=310.53          H33-C5-C4-H32=191.19          
H34-C5-C4-C3=312.24           H34-C5-C4-H31=193.46          H34-C5-C4-H32= 74.12          C7-N6-C5-C4=157.60            
C7-N6-C5-H33=280.36           C7-N6-C5-H34= 38.76           C11-N6-C5-C4=283.06           C11-N6-C5-H33= 45.82          
C11-N6-C5-H34=164.22          C8-C7-N6-C5=188.79            C8-C7-N6-C11= 62.14           H35-C7-N6-C5=308.31           
H35-C7-N6-C11=181.66          H36-C7-N6-C5= 67.01           H36-C7-N6-C11=300.36          C9-C8-C7-N6=300.27            
C9-C8-C7-H35=181.24           C9-C8-C7-H36= 63.27           H37-C8-C7-N6= 59.73           H37-C8-C7-H35=300.71          
H37-C8-C7-H36=182.74          H38-C8-C7-N6=178.71           H38-C8-C7-H35= 59.69          H38-C8-C7-H36=301.72          
C10-C9-C8-C7= 56.12           C10-C9-C8-H37=296.11          C10-C9-C8-H38=177.38          C12-C9-C8-C7=177.52           
C12-C9-C8-H37= 57.51          C12-C9-C8-H38=298.78          H39-C9-C8-C7=297.77           H39-C9-C8-H37=177.76          
H39-C9-C8-H38= 59.03          C11-C10-C9-C8=304.14          C11-C10-C9-C12=181.44         C11-C10-C9-H39= 63.06         
H40-C10-C9-C8=182.80          H40-C10-C9-C12= 60.11         H40-C10-C9-H39=301.73         H41-C10-C9-C8= 63.52          
H41-C10-C9-C12=300.82         H41-C10-C9-H39=182.44         
           -------------------------------------------------
          |                Final Singlepoint                |
           -------------------------------------------------

          ...................................................
          :                      SETUP                      :
          :.................................................:
          :  # basis functions                 147          :
          :  # atomic orbitals                 147          :
          :  # shells                           87          :
          :  # electrons                       158          :
          :  max. iterations                   250          :
          :  Hamiltonian                  GFN2-xTB          :
          :  restarted?                      false          :
          :  GBSA solvation                  false          :
          :  PC potential                    false          :
          :  electronic temp.          300.0000000     K    :
          :  accuracy                    1.0000000          :
          :  -> integral cutoff          0.2500000E+02      :
          :  -> integral neglect         0.1000000E-07      :
          :  -> SCF convergence          0.1000000E-05 Eh   :
          :  -> wf. convergence          0.1000000E-03 e    :
          :  Broyden damping             0.4000000          :
          :  net charge                          0          :
          :  unpaired electrons                  0          :
          ...................................................

 iter      E             dE          RMSdq      gap      omega  full diag
   1    -88.7995252 -0.887995E+02  0.641E-05    1.96       0.0  T
   2    -88.7995252 -0.247695E-10  0.408E-05    1.96     324.3  T
   3    -88.7995252 -0.270859E-10  0.244E-05    1.96     542.4  T

   *** convergence criteria satisfied after 3 iterations ***

         #    Occupation            Energy/Eh            Energy/eV
      -------------------------------------------------------------
         1        2.0000           -0.8259837             -22.4762
       ...           ...                  ...                  ...
        73        2.0000           -0.4199669             -11.4279
        74        2.0000           -0.4110028             -11.1840
        75        2.0000           -0.4076593             -11.0930
        76        2.0000           -0.3896174             -10.6020
        77        2.0000           -0.3817930             -10.3891
        78        2.0000           -0.3793811             -10.3235
        79        2.0000           -0.3480076              -9.4698 (HOMO)
        80                         -0.2759559              -7.5091 (LUMO)
        81                         -0.2535794              -6.9002
        82                         -0.2393500              -6.5130
        83                         -0.2220131              -6.0413
        84                         -0.2015168              -5.4835
       ...                                ...                  ...
       147                          0.6859303              18.6651
      -------------------------------------------------------------
                  HL-Gap            0.0720517 Eh            1.9606 eV
             Fermi-level           -0.3119818 Eh           -8.4895 eV

 SCC (total)                   0 d,  0 h,  0 min,  0.095 sec
 SCC setup                      ...        0 min,  0.001 sec (  0.528%)
 Dispersion                     ...        0 min,  0.001 sec (  0.582%)
 classical contributions        ...        0 min,  0.000 sec (  0.268%)
 integral evaluation            ...        0 min,  0.011 sec ( 11.403%)
 iterations                     ...        0 min,  0.042 sec ( 44.595%)
 molecular gradient             ...        0 min,  0.040 sec ( 42.322%)
 printout                       ...        0 min,  0.000 sec (  0.293%)

         :::::::::::::::::::::::::::::::::::::::::::::::::::::
[...]
   
 * started run on 2025/05/15 at 16:28:09.593     
   ID    Z sym.   atoms
    1    8 O      1, 14
    2    6 C      2-5, 7-12, 15-19, 21, 22, 24, 26-30
    3    7 N      6, 13, 23, 25
    4    9 F      20
    5    1 H      31-57

           -------------------------------------------------
          |                Calculation Setup                |
           -------------------------------------------------

          program call               : xtb /rds/general/user/hgt20/home/callum/QDESCP/Risperidone_rdkit_conf_4/Risperidone_rdkit_conf_4.xyz --acc 1 --gfn 2 --chrg 0 --uhf 2 --etemp 300 --input /rds/general/user/hgt20/home/callum/QDESCP/Risperidone_rdkit_conf_4/Risperidone_rdkit_conf_4_xtb.inp -P 1
          hostname                   : login-c
          coordinate file            : /rds/general/user/hgt20/home/callum/QDESCP/Risperidone_rdkit_conf_4/Risperidone_rdkit_conf_4.xyz
          omp threads                :                     1


           -------------------------------------------------
          |                 G F N 2 - x T B                 |
           -------------------------------------------------

        Reference                      10.1021/acs.jctc.8b01176
      * Hamiltonian:
        H0-scaling (s, p, d)           1.850000    2.230000    2.230000
        zeta-weighting                 0.500000
      * Dispersion:
        s8                             2.700000
        a1                             0.520000
        a2                             5.000000
        s9                             5.000000
      * Repulsion:
        kExp                           1.500000    1.000000
        rExp                           1.000000
      * Coulomb:
        alpha                          2.000000
        third order                    shell-resolved
        anisotropic                    true
        a3                             3.000000
        a5                             4.000000
        cn-shift                       1.200000
        cn-exp                         4.000000
        max-rad                        5.000000


          ...................................................
          :                      SETUP                      :
          :.................................................:
          :  # basis functions                 147          :
          :  # atomic orbitals                 147          :
          :  # shells                           87          :
          :  # electrons                       158          :
          :  max. iterations                   250          :
          :  Hamiltonian                  GFN2-xTB          :
          :  restarted?                      false          :
          :  GBSA solvation                  false          :
          :  PC potential                    false          :
          :  electronic temp.          300.0000000     K    :
          :  accuracy                    1.0000000          :
          :  -> integral cutoff          0.2500000E+02      :
          :  -> integral neglect         0.1000000E-07      :
          :  -> SCF convergence          0.1000000E-05 Eh   :
          :  -> wf. convergence          0.1000000E-03 e    :
          :  Broyden damping             0.4000000          :
          :  net charge                          0          :
          :  unpaired electrons                  2          :
          ...................................................

 iter      E             dE          RMSdq      gap      omega  full diag
   1    -88.3464066 -0.883464E+02  0.351E+00    0.16       0.0  T
   2    -88.2548159  0.915907E-01  0.306E+00    0.98       1.0  T
   3    -88.4004546 -0.145639E+00  0.206E+00    1.05       1.0  T
   4    -88.3256677  0.747870E-01  0.191E+00    0.94       1.0  T
   5    -88.4689468 -0.143279E+00  0.157E+00    0.23       1.0  T
   6    -88.5912605 -0.122314E+00  0.967E-01    0.02       1.0  T
   7    -88.4273106  0.163950E+00  0.123E+00    0.37       1.0  T
   8    -88.6682341 -0.240924E+00  0.441E-01    0.05       1.0  T
   9    -88.5435379  0.124696E+00  0.819E-01    0.19       1.0  T
  10    -88.6137217 -0.701839E-01  0.647E-01    0.08       1.0  T
  11    -88.6751500 -0.614282E-01  0.267E-01    0.06       1.0  T
  12    -88.6423890  0.327610E-01  0.434E-01    0.03       1.0  T
  13    -88.6455301 -0.314113E-02  0.441E-01    0.10       1.0  T
  14    -88.6772207 -0.316906E-01  0.142E-01    0.05       1.0  T
  15    -88.6754008  0.181991E-02  0.162E-01    0.05       1.0  T
  16    -88.6765616 -0.116074E-02  0.118E-01    0.01       1.0  T
  17    -88.6787159 -0.215435E-02  0.502E-02    0.03       1.0  T
  18    -88.6786208  0.950902E-04  0.488E-02    0.02       1.0  T
  19    -88.6786791 -0.582950E-04  0.403E-02    0.02       1.0  T
  20    -88.6789632 -0.284089E-03  0.979E-03    0.03       1.4  T
  21    -88.6789772 -0.140394E-04  0.338E-03    0.03       3.9  T
  22    -88.6789734  0.386278E-05  0.540E-03    0.03       2.5  T
  23    -88.6789778 -0.447064E-05  0.157E-03    0.03       8.4  T
  24    -88.6789779 -0.842706E-07  0.127E-03    0.03      10.4  T
  25    -88.6789782 -0.247483E-06  0.301E-04    0.03      44.0  T
  26    -88.6789782 -0.191554E-07  0.721E-05    0.03     183.8  T

   *** convergence criteria satisfied after 26 iterations ***

         #    Occupation            Energy/Eh            Energy/eV
      -------------------------------------------------------------
         1        2.0000           -0.8052792             -21.9128
       ...           ...                  ...                  ...
        74        2.0000           -0.3990869             -10.8597
        75        1.9993           -0.3957764             -10.7696
        76        1.9636           -0.3920073             -10.6671
        77        1.9230           -0.3912552             -10.6466
        78        1.8829           -0.3908144             -10.6346
        79        1.2312           -0.3877540             -10.5513
        80        0.6315           -0.2542010              -6.9172 (HOMO)
        81        0.3685           -0.2531774              -6.8893 (LUMO)
        82                         -0.2292738              -6.2389
        83                         -0.2161406              -5.8815
        84                         -0.1806093              -4.9146
        85                         -0.1268356              -3.4514
       ...                                ...                  ...
       147                          0.7015517              19.0902
      -------------------------------------------------------------
                  HL-Gap            0.0010237 Eh            0.0279 eV
             Fermi-level           -0.3212922 Eh           -8.7428 eV

 transition dipole moment (au) for excitation:          79          80
     X       Y       Z   
  -1.1258  -0.3647  -0.3629  total (au/Debye):    1.238   3.146
 dE (eV)             :    3.634
 oscillator strength :  0.19291E+00

 SCC (total)                   0 d,  0 h,  0 min,  0.230 sec
 SCC setup                      ...        0 min,  0.001 sec (  0.248%)
 Dispersion                     ...        0 min,  0.001 sec (  0.363%)
 classical contributions        ...        0 min,  0.000 sec (  0.113%)
 integral evaluation            ...        0 min,  0.011 sec (  4.914%)
 iterations                     ...        0 min,  0.169 sec ( 73.267%)
 molecular gradient             ...        0 min,  0.039 sec ( 17.049%)
 printout                       ...        0 min,  0.009 sec (  4.042%)

         :::::::::::::::::::::::::::::::::::::::::::::::::::::
         ::                     SUMMARY                     ::
         :::::::::::::::::::::::::::::::::::::::::::::::::::::
         :: total energy             -87.523749140343 Eh    ::
         :: gradient norm              0.117602844127 Eh/a0 ::
         :: HOMO-LUMO gap              0.027855024447 eV    ::
         ::.................................................::
         :: SCC energy               -88.679150459301 Eh    ::
         :: -> isotropic ES            0.074994218123 Eh    ::
         :: -> anisotropic ES          0.005356420123 Eh    ::
         :: -> anisotropic XC          0.036182957582 Eh    ::
         :: -> dispersion             -0.060715314753 Eh    ::
         :: repulsion energy           1.155401318959 Eh    ::
         :: add. restraining           0.000000000000 Eh    ::
         :: total charge               0.000000000068 e     ::
         :::::::::::::::::::::::::::::::::::::::::::::::::::::

           -------------------------------------------------
          |                Property Printout                |
           -------------------------------------------------

    * Orbital Energies and Occupations

         #    Occupation            Energy/Eh            Energy/eV
      -------------------------------------------------------------
         1        2.0000           -0.8052792             -21.9128
       ...           ...                  ...                  ...
        68        2.0000           -0.4453902             -12.1197
        69        2.0000           -0.4408209             -11.9953
        70        2.0000           -0.4296139             -11.6904
        71        2.0000           -0.4283446             -11.6558
        72        2.0000           -0.4269769             -11.6186
        73        2.0000           -0.4043427             -11.0027
        74        2.0000           -0.3990869             -10.8597
        75        1.9993           -0.3957764             -10.7696
        76        1.9636           -0.3920073             -10.6671
        77        1.9230           -0.3912552             -10.6466
        78        1.8829           -0.3908144             -10.6346
        79        1.2312           -0.3877540             -10.5513
        80        0.6315           -0.2542010              -6.9172 (HOMO)
        81        0.3685           -0.2531774              -6.8893 (LUMO)
        82                         -0.2292738              -6.2389
        83                         -0.2161406              -5.8815
        84                         -0.1806093              -4.9146
        85                         -0.1268356              -3.4514
        86                         -0.0839241              -2.2837
        87                         -0.0241734              -0.6578
        88                         -0.0153079              -0.4166
        89                         -0.0012338              -0.0336
        90                          0.0425929               1.1590
        91                          0.0513049               1.3961
       ...                                ...                  ...
       147                          0.7015517              19.0902
      -------------------------------------------------------------
                  HL-Gap            0.0010237 Eh            0.0279 eV
             Fermi-level           -0.3212922 Eh           -8.7428 eV

     #   Z          covCN         q      C6AA      α(0)
     1   8 O        0.858    -0.436    22.419     6.348
     2   6 C        2.789     0.251    22.780     7.818
     3   6 C        2.960    -0.054    29.332     8.883
     4   6 C        3.808    -0.060    21.646     6.623
     5   6 C        3.760     0.007    20.512     6.457
     6   7 N        2.731    -0.103    23.256     7.162
     7   6 C        3.768     0.004    20.549     6.460
     8   6 C        3.812    -0.070    21.835     6.651
     9   6 C        3.861    -0.017    20.838     6.492
    10   6 C        3.812    -0.063    21.707     6.632
    11   6 C        3.768     0.002    20.588     6.466
    12   6 C        3.013     0.062    26.593     8.459
    13   7 N        1.956    -0.153    25.081     7.427
    14   8 O        1.802    -0.148    16.514     5.488
    15   6 C        3.052     0.132    25.066     8.211
    16   6 C        3.031    -0.043    29.036     8.839
    17   6 C        2.914    -0.047    29.174     8.857
    18   6 C        2.920    -0.059    29.471     8.902
    19   6 C        2.797     0.160    24.534     8.114
    20   9 F        0.788    -0.226    11.503     4.006
    21   6 C        2.906    -0.082    30.051     8.989
    22   6 C        2.941     0.066    26.528     8.447
    23   7 N        1.851    -0.250    27.378     7.755
    24   6 C        2.880     0.136    25.032     8.202
    25   7 N        2.745    -0.091    23.024     7.126
    26   6 C        3.756     0.006    20.522     6.459
    27   6 C        3.808    -0.064    21.715     6.633
    28   6 C        3.808    -0.058    21.616     6.618
    29   6 C        3.817    -0.072    21.858     6.654
    30   6 C        3.760    -0.116    22.775     6.803
    31   1 H        0.924     0.066     2.133     2.284
    32   1 H        0.925     0.062     2.170     2.304
    33   1 H        0.923     0.046     2.375     2.410
    34   1 H        0.924     0.045     2.382     2.413
    35   1 H        0.924     0.045     2.385     2.415
    36   1 H        0.922     0.031     2.568     2.506
    37   1 H        0.925     0.070     2.086     2.258
    38   1 H        0.924     0.048     2.339     2.392
    39   1 H        0.924     0.037     2.485     2.465
    40   1 H        0.924     0.044     2.394     2.420
    41   1 H        0.924     0.057     2.230     2.335
    42   1 H        0.922     0.034     2.532     2.489
    43   1 H        0.924     0.055     2.259     2.350
    44   1 H        0.926     0.033     2.541     2.493
    45   1 H        0.926     0.053     2.286     2.364
    46   1 H        0.926     0.064     2.156     2.296
    47   1 H        0.924     0.052     2.295     2.369
    48   1 H        0.924     0.073     2.051     2.239
    49   1 H        0.924     0.046     2.373     2.409
    50   1 H        0.924     0.045     2.383     2.414
    51   1 H        0.924     0.043     2.411     2.428
    52   1 H        0.924     0.042     2.423     2.434
    53   1 H        0.924     0.061     2.182     2.310
    54   1 H        0.924     0.067     2.123     2.278
    55   1 H        0.925     0.050     2.325     2.384
    56   1 H        0.925     0.053     2.283     2.363
    57   1 H        0.925     0.065     2.143     2.289

 Mol. C6AA /au·bohr⁶  :      34305.941781
 Mol. C8AA /au·bohr⁸  :     797434.620485
 Mol. α(0) /au        :        282.097474


Wiberg/Mayer (AO) data.
largest (>0.10) Wiberg bond orders for each atom

 ---------------------------------------------------------------------------
     #   Z sym  total        # sym  WBO       # sym  WBO       # sym  WBO
 ---------------------------------------------------------------------------
     1   8 O    1.920 --     2 C    1.605
     2   6 C    3.919 --     1 O    1.605     3 C    1.177    25 N    1.030
     3   6 C    3.752 --    22 C    1.253     2 C    1.177     4 C    1.036
     4   6 C    3.978 --     3 C    1.036    32 H    0.963    31 H    0.962
                             5 C    0.948
     5   6 C    3.961 --     6 N    1.023    34 H    0.969    33 H    0.950
                             4 C    0.948
     6   7 N    3.221 --     5 C    1.023    11 C    1.003     7 C    0.998
     7   6 C    3.971 --     8 C    1.004     6 N    0.998    35 H    0.969
                            36 H    0.951
     8   6 C    3.988 --     7 C    1.004     9 C    0.992    38 H    0.974
                            37 H    0.971
     9   6 C    3.994 --    12 C    1.004     8 C    0.992    10 C    0.975
                            39 H    0.961
    10   6 C    3.985 --    11 C    1.002    40 H    0.975     9 C    0.975
                            41 H    0.975
    11   6 C    3.973 --     6 N    1.003    10 C    1.002    43 H    0.965
                            42 H    0.950
    12   6 C    3.881 --    13 N    1.527    16 C    1.204     9 C    1.004
    13   7 N    2.784 --    12 C    1.527    14 O    1.047
    14   8 O    2.364 --    15 C    1.115    13 N    1.047
    15   6 C    3.930 --    21 C    1.344    16 C    1.272    14 O    1.115
    16   6 C    3.943 --    17 C    1.274    15 C    1.272    12 C    1.204
    17   6 C    3.841 --    18 C    1.469    16 C    1.274    44 H    0.969
    18   6 C    3.975 --    17 C    1.469    19 C    1.361    45 H    0.968
    19   6 C    3.793 --    18 C    1.361    21 C    1.361    20 F    0.957
    20   9 F    1.072 --    19 C    0.957
    21   6 C    3.861 --    19 C    1.361    15 C    1.344    46 H    0.964
    22   6 C    3.770 --    23 N    1.314     3 C    1.253    30 C    1.026
    23   7 N    2.978 --    24 C    1.433    22 C    1.314
    24   6 C    3.795 --    23 N    1.433    25 N    1.190    29 C    1.005
    25   7 N    3.452 --    24 C    1.190     2 C    1.030    26 C    0.976
    26   6 C    3.962 --    27 C    1.009    25 N    0.976    47 H    0.961
                            48 H    0.961
    27   6 C    3.995 --    26 C    1.009    28 C    1.008    50 H    0.976
                            49 H    0.974
    28   6 C    3.995 --    29 C    1.008    27 C    1.008    52 H    0.977
                            51 H    0.976
    29   6 C    3.988 --    28 C    1.008    24 C    1.005    54 H    0.961
                            53 H    0.948
    30   6 C    3.989 --    22 C    1.026    57 H    0.983    55 H    0.967
                            56 H    0.962
    31   1 H    0.992 --     4 C    0.962
    32   1 H    0.991 --     4 C    0.963
    33   1 H    0.988 --     5 C    0.950
    34   1 H    0.997 --     5 C    0.969
    35   1 H    0.996 --     7 C    0.969
    36   1 H    0.982 --     7 C    0.951
    37   1 H    0.994 --     8 C    0.971
    38   1 H    0.997 --     8 C    0.974
    39   1 H    0.997 --     9 C    0.961
    40   1 H    0.998 --    10 C    0.975
    41   1 H    0.996 --    10 C    0.975
    42   1 H    0.986 --    11 C    0.950
    43   1 H    0.994 --    11 C    0.965
    44   1 H    0.999 --    17 C    0.969
    45   1 H    0.997 --    18 C    0.968
    46   1 H    0.995 --    21 C    0.964
    47   1 H    0.990 --    26 C    0.961
    48   1 H    0.991 --    26 C    0.961
    49   1 H    0.997 --    27 C    0.974
    50   1 H    0.998 --    27 C    0.976
    51   1 H    0.997 --    28 C    0.976
    52   1 H    0.997 --    28 C    0.977
    53   1 H    0.987 --    29 C    0.948
    54   1 H    0.990 --    29 C    0.961
    55   1 H    0.991 --    30 C    0.967
    56   1 H    0.989 --    30 C    0.962
    57   1 H    0.995 --    30 C    0.983
 ---------------------------------------------------------------------------

Topologies differ in total number of bonds
Writing topology from bond orders to xtbtopo.mol

molecular dipole:
                 x           y           z       tot (Debye)
 q only:       -3.879       0.130      -0.533
   full:       -3.718       0.815      -0.339       9.713
molecular quadrupole (traceless):
                xx          xy          yy          xz          yz          zz
 q only:      -29.830       0.958      14.904       0.406      -3.663      14.926
  q+dip:      -31.018       1.685      15.947      -0.105      -7.163      15.071
   full:      -30.911       1.920      13.512      -0.969      -9.237      17.399


           -------------------------------------------------
          | TOTAL ENERGY              -87.523749140343 Eh   |
          | GRADIENT NORM               0.117602844127 Eh/α |
          | HOMO-LUMO GAP               0.027855024447 eV   |
           -------------------------------------------------

------------------------------------------------------------------------
 * finished run on 2025/05/15 at 16:28:09.881     
------------------------------------------------------------------------
 total:
 * wall-time:     0 d,  0 h,  0 min,  0.287 sec
 *  cpu-time:     0 d,  0 h,  0 min,  0.172 sec
 * ratio c/w:     0.598 speedup
 SCF:
 * wall-time:     0 d,  0 h,  0 min,  0.231 sec
 *  cpu-time:     0 d,  0 h,  0 min,  0.156 sec
 * ratio c/w:     0.676 speedup


