57
 energy: -87.644296153366 gnorm: 0.000772460053 xtb: 6.7.1 (edcfbbe)
O           -2.98506329383329        1.14534267337791        1.85024800270265
C           -3.51412161175945        0.30214740530566        1.14435379112456
C           -2.83719398319469       -0.77951900061633        0.47468796222871
C           -1.34937103543846       -0.84362803614134        0.64104423049782
C           -0.65112704399426       -0.03072049557752       -0.46010125392329
N            0.76643884647827       -0.33258973493401       -0.51993423272556
C            1.35286977744743       -0.01957952469773       -1.80884650523581
C            2.77867629471907       -0.55580023534415       -1.88151735601655
C            3.62929868175952        0.07277672178851       -0.78010839795506
C            2.94989261046959       -0.20759864528027        0.56685758627065
C            1.51576863386970        0.31049033711659        0.54220293625271
C            5.01756414505284       -0.46297831170195       -0.77061331378605
N            5.31795202714166       -1.66150782878247       -1.16778837869046
O            6.66242010837202       -1.86949306575485       -1.00963422851323
C            7.20665808657741       -0.75495410183487       -0.49552474205906
C            6.19854904668258        0.21068186643416       -0.30781442594120
C            6.51210478772451        1.46392500350004        0.21371740493578
C            7.82513613823560        1.71912948703502        0.53289631999879
C            8.80028732725226        0.73770473882923        0.33323131190732
F           10.07020733908650        1.04124049122000        0.66102748650244
C            8.53609938684816       -0.51412616205592       -0.17831193115771
C           -3.56251614790342       -1.65961621929413       -0.27580227901024
N           -4.90726527697410       -1.54328254863341       -0.41176493290925
C           -5.53247946493524       -0.57626592907939        0.17818998284051
N           -4.90735239561605        0.34559367936595        0.94255681892060
C           -5.60099874169233        1.41156166403269        1.65013473632770
C           -6.97194284968322        1.70015133887501        1.06595132027918
C           -7.73913524473438        0.39047801379793        0.94374730390476
C           -7.01331385957153       -0.49560341456291       -0.05880644953881
C           -2.95608002982771       -2.82263039081725       -0.99492903478975
H           -1.10271248594481       -0.42574853924604        1.61753707102516
H           -0.99495407192331       -1.87251166466117        0.58966314790374
H           -0.84300988714279        1.04278162970856       -0.29529411859275
H           -1.09145490237863       -0.30257064085113       -1.42356315652732
H            0.74957153779775       -0.49316590210880       -2.58739106401162
H            1.35863054279452        1.07140156351699       -1.99897330962905
H            2.77030578781815       -1.63605206116570       -1.74309485123261
H            3.20629221939523       -0.33747372853712       -2.86091449500973
H            3.68056051893936        1.15828466076620       -0.92894089268906
H            3.50083597043462        0.26831779312660        1.38054434273809
H            2.93757201370252       -1.28484586635169        0.73574660690377
H            1.52169728489854        1.41076235450677        0.41754874104589
H            1.03522688813795        0.08363839857862        1.49463935958585
H            5.74771257546989        2.21006941500084        0.36168444991551
H            8.12847256470903        2.67097686492629        0.93874530343884
H            9.30973004263939       -1.24866795059073       -0.32080528201600
H           -5.68959414890546        1.11508047239309        2.70208998982147
H           -4.94998237629123        2.29020403038730        1.61576652381377
H           -7.49186274285397        2.40337756507565        1.71711482549353
H           -6.87069480618373        2.15898319253566        0.08010114208504
H           -7.78267464887482       -0.10087791017833        1.91801281913177
H           -8.76195191691010        0.56742634930685        0.60912783474884
H           -7.15465638111500       -0.10090228097594       -1.06975887889037
H           -7.40526714859763       -1.51316983445252       -0.05899276992898
H           -2.14917651058968       -2.49830767924188       -1.64746810685562
H           -2.54552846431290       -3.53373031993467       -0.27996000340779
H           -3.72504971326806       -3.31480968712577       -1.58241496130821
