48
 energy: -69.043174224712 gnorm: 0.000410557036 xtb: 6.7.1 (edcfbbe)
O           -0.52657548869284        1.10703443735312        1.84742674258993
C            0.03434429167259        1.20966892287875        0.56178982136910
C            0.68765271270074       -0.13091220931025        0.15571959898431
N            1.50059805371159       -0.63660862774666        1.26389161175609
C            1.77410805049602       -2.04736874673287        1.02416939189817
C            2.39043623006478       -2.25215779117549       -0.37690840865453
C            2.76312044828911        0.08039512696700        1.36869790860249
C            3.68493176135508       -0.20515728341870        0.15702411027497
C            4.35384517279188        1.03632909767839       -0.33688098703848
C            5.66200677087078        1.18618658865096       -0.43197182634456
C            2.79646418596279       -0.87363080121392       -0.91135076227496
C            1.52581615541429       -0.04543622118068       -1.13074889222725
C           -0.99203956466568        1.59828966604809       -0.47360408476768
C           -0.69265664537636        2.59243981914422       -1.37231280067655
C           -1.59609083166020        2.90400320552132       -2.40096318610970
N           -2.73391005714608        2.29574021451834       -2.57067594370838
C           -3.07531973971936        1.32917304309615       -1.69638025462774
C           -2.24262040136957        0.93382501202829       -0.60727964268101
C           -2.70238415412967       -0.07277706806863        0.25522704486484
C           -3.92231082989277       -0.68463658457085        0.05675456846029
O           -4.25828325714008       -1.64962855180002        0.95870252446250
C           -5.50324394459931       -2.29247651131053        0.83715457153885
C           -4.73268254145577       -0.30084251669376       -1.02915016624998
C           -4.31423644408685        0.68530245607367       -1.87759196698344
H            0.03777169653284        0.49628803116524        2.34488682940548
H            0.80869434373898        1.99737033284351        0.57302986771853
H           -0.12542309554610       -0.85199034591335        0.02280845579252
H            2.45398658397830       -2.38955774739588        1.80727466080508
H            0.83714570037511       -2.60018125984734        1.12743321622935
H            1.66737739853954       -2.70629547866542       -1.05634186103144
H            3.26013620811759       -2.90827895252864       -0.32459425089498
H            3.24597935691053       -0.22667564232646        2.30000525490519
H            2.55407789386452        1.14842763997821        1.44513693096549
H            4.46166694078145       -0.92201345049136        0.44244779086206
H            3.69828540240753        1.84967048620269       -0.61965400110974
H            6.10823724686994        2.09863525423267       -0.78912933262320
H            6.34516844695159        0.39976348221528       -0.15510032639968
H            3.35136408817795       -0.97258239732032       -1.84820814837484
H            0.96190404859769       -0.43609271320828       -1.97897850981720
H            1.78483096397760        0.98856622151565       -1.35984083045078
H            0.23637219983490        3.13932044885962       -1.30213220852829
H           -1.36091303542789        3.68239591565748       -3.11607150796711
H           -2.12302999217048       -0.35890942859828        1.11643772431651
H           -5.58314351578235       -2.84545664997122       -0.10467148286220
H           -5.55247462312017       -2.99405634458909        1.66861976699447
H           -6.33392229563415       -1.58396533668002        0.91545731954662
H           -5.68900550094649       -0.77243460005327       -1.19404119507756
H           -4.92635639441950        1.00149785817696       -2.70761313485996
