29
 energy: -55.286918972691 gnorm: 0.000690232239 xtb: 6.7.1 (edcfbbe)
O           -1.05678808178153        1.73824506071124        0.07879386994324
C           -1.31050686204370        1.33279280747386       -1.23401327273597
C           -1.43017030579316       -0.19498409846250       -1.40093005259063
C           -2.24462908939874       -0.85371043700390       -0.27795390482836
C           -1.16416350339262       -1.30034388043602        0.73091239890164
C            0.10534799493257       -1.44118550817417       -0.15990759039290
N            1.26151761326961       -0.83820080866034        0.45816430067168
C            2.47151668258630       -1.36937432783381        0.72994334599976
N            3.25184156973847       -0.47308257749742        1.26942167065537
C            2.48847140493074        0.63936985373556        1.31942410430102
C            2.95003679321211        1.94982430225626        1.85017031838285
N            1.98426768989617        2.89849722968948        1.83870256991923
O            4.07396823170050        2.15157594628468        2.24455245124022
N            1.27230862392679        0.44505946690049        0.83508791583026
O           -0.15678521760006       -0.83633061220662       -1.39259697937958
O           -1.47819816585159       -2.46485502439899        1.41254376114489
O           -2.91808024913177       -2.01703859963185       -0.70118714525893
H           -0.19387822047489        1.36188824320305        0.35193352557233
H           -0.52537385593928        1.68222276485129       -1.91822376572199
H           -2.25884195153831        1.79480331873686       -1.52169949439421
H           -1.86475009864951       -0.40496251400339       -2.38533801679469
H           -2.93981113811471       -0.13952918649234        0.17641098977618
H           -0.99544333231796       -0.51609450247203        1.47573224690656
H            0.35077530746128       -2.50116595520787       -0.31514002737051
H            2.73246736427756       -2.38746171357581        0.52910553732951
H            1.05012844781864        2.71025254472133        1.52034237879194
H            2.21347430100946        3.81491863396051        2.18577075532573
H           -2.03604416563671       -3.00502419607463        0.83214871689347
H           -3.63295778709729       -1.77630623039354       -1.29787060811727
