----- Optimization -----
      -----------------------------------------------------------      
     |                   =====================                   |     
     |                           x T B                           |     
     |                   =====================                   |     
     |                         S. Grimme                         |     
     |          Mulliken Center for Theoretical Chemistry        |     
     |                    University of Bonn                     |     
      -----------------------------------------------------------      

   * xtb version 6.7.1 (edcfbbe) compiled by 'conda@3ef47c1a292c' on 2024-11-25

   xtb is free software: you can redistribute it and/or modify it under
   the terms of the GNU Lesser General Public License as published by
   the Free Software Foundation, either version 3 of the License, or
   (at your option) any later version.
   
   xtb is distributed in the hope that it will be useful,
   but WITHOUT ANY WARRANTY; without even the implied warranty of
   MERCHANTABILITY or FITNESS FOR A PARTICULAR PURPOSE.  See the
   GNU Lesser General Public License for more details.
   
   Cite this work as:
   * C. Bannwarth, E. Caldeweyher, S. Ehlert, A. Hansen, P. Pracht,
     J. Seibert, S. Spicher, S. Grimme, WIREs Comput. Mol. Sci., 2020, 11,
     e01493. DOI: 10.1002/wcms.1493
   
   for GFN2-xTB:
   * C. Bannwarth, S. Ehlert and S. Grimme., J. Chem. Theory Comput., 2019,
     15, 1652-1671. DOI: 10.1021/acs.jctc.8b01176
   for GFN1-xTB:
   * S. Grimme, C. Bannwarth, P. Shushkov, J. Chem. Theory Comput., 2017,
     13, 1989-2009. DOI: 10.1021/acs.jctc.7b00118
   for GFN0-xTB:
   * P. Pracht, E. Caldeweyher, S. Ehlert, S. Grimme, ChemRxiv, 2019, preprint.
     DOI: 10.26434/chemrxiv.8326202.v1
   for GFN-FF:
   * S. Spicher and S. Grimme, Angew. Chem. Int. Ed., 2020, 59, 15665-15673.
     DOI: 10.1002/anie.202004239
   
   for ALPB and GBSA implicit solvation:
   * S. Ehlert, M. Stahn, S. Spicher, S. Grimme, J. Chem. Theory Comput.,
     2021, 17, 4250-4261. DOI: 10.1021/acs.jctc.1c00471
   
   for ddCOSMO and CPCM-X implicit solvation:
   * M. Stahn, S. Ehlert, S. Grimme, J. Phys. Chem. A,
     2023, XX, XXXX-XXXX. DOI: 10.1021/acs.jpca.3c04382
   
   for DFT-D4:
   * E. Caldeweyher, C. Bannwarth and S. Grimme, J. Chem. Phys., 2017,
     147, 034112. DOI: 10.1063/1.4993215
   * E. Caldeweyher, S. Ehlert, A. Hansen, H. Neugebauer, S. Spicher,
     C. Bannwarth and S. Grimme, J. Chem. Phys., 2019, 150, 154122.
     DOI: 10.1063/1.5090222
   * E. Caldeweyher, J.-M. Mewes, S. Ehlert and S. Grimme, Phys. Chem. Chem. Phys.
     2020, 22, 8499-8512. DOI: 10.1039/D0CP00502A
   
   for sTDA-xTB:
   * S. Grimme and C. Bannwarth, J. Chem. Phys., 2016, 145, 054103.
     DOI: 10.1063/1.4959605
   
   in the mass-spec context:
   * V. Asgeirsson, C. Bauer and S. Grimme, Chem. Sci., 2017, 8, 4879.
     DOI: 10.1039/c7sc00601b
   * J. Koopman and S. Grimme, ACS Omega 2019, 4, 12, 15120-15133.
     DOI: 10.1021/acsomega.9b02011
   
   for metadynamics refer to:
   * S. Grimme, J. Chem. Theory Comput., 2019, 155, 2847-2862
     DOI: 10.1021/acs.jctc.9b00143
   
   for SPH calculations refer to:
   * S. Spicher and S. Grimme, J. Chem. Theory Comput., 2021, 17, 1701-1714
     DOI: 10.1021/acs.jctc.0c01306
   
   for ONIOM refer to:
   * C. Plett, A. Katbashev, S. Ehlert, S. Grimme, M. Bursch,
     Phys. Chem. Chem. Phys., 2023, 25, 17860-17868. DOI: 10.1039/D3CP02178E
   
   for DIPRO refer to:
   * J. Kohn, N. Gildemeister, S. Grimme, D. Fazzi, A. Hansen,
     J. Chem. Phys., 2023, just accepted.
   
   for PTB refer to:
   * S. Grimme, M. Mueller, A. Hansen, J. Chem. Phys., 2023, 158, 124111.
     DOI: 10.1063/5.0137838
   
   with help from (in alphabetical order)
   P. Atkinson, C. Bannwarth, F. Bohle, G. Brandenburg, E. Caldeweyher
   M. Checinski, S. Dohm, S. Ehlert, S. Ehrlich, I. Gerasimov, C. Hölzer
   A. Katbashev, J. Kohn, J. Koopman, C. Lavigne, S. Lehtola, F. März, M. Müller,
   F. Musil, H. Neugebauer, J. Pisarek, C. Plett, P. Pracht, F. Pultar,
   J. Seibert, P. Shushkov, S. Spicher, M. Stahn, M. Steiner, T. Strunk,
   J. Stückrath, T. Rose, and J. Unsleber
   
 * started run on 2025/05/15 at 16:25:46.725     
   ID    Z sym.   atoms
    1    6 C      1-3, 5-8, 10, 11, 13, 15, 16, 18-20, 22, 23
    2    8 O      4, 21, 24
    3    7 N      9, 14, 17
    4   16 S      12
    5    1 H      25-43

           -------------------------------------------------
          |                Calculation Setup                |
           -------------------------------------------------

          program call               : xtb /rds/general/user/hgt20/home/callum/QDESCP/Omeprazole_rdkit_conf_15/Omeprazole_rdkit_conf_15.xyz --opt normal --acc 1 --gfn 2 --chrg 0 --uhf 0 -P 1
          hostname                   : login-c
          coordinate file            : /rds/general/user/hgt20/home/callum/QDESCP/Omeprazole_rdkit_conf_15/Omeprazole_rdkit_conf_15.xyz
          omp threads                :                     1


           -------------------------------------------------
          |                 G F N 2 - x T B                 |
           -------------------------------------------------

        Reference                      10.1021/acs.jctc.8b01176
      * Hamiltonian:
        H0-scaling (s, p, d)           1.850000    2.230000    2.230000
        zeta-weighting                 0.500000
      * Dispersion:
        s8                             2.700000
        a1                             0.520000
        a2                             5.000000
        s9                             5.000000
      * Repulsion:
        kExp                           1.500000    1.000000
        rExp                           1.000000
      * Coulomb:
        alpha                          2.000000
        third order                    shell-resolved
        anisotropic                    true
        a3                             3.000000
        a5                             4.000000
        cn-shift                       1.200000
        cn-exp                         4.000000
        max-rad                        5.000000


          ...................................................
          :                      SETUP                      :
          :.................................................:
          :  # basis functions                 121          :
          :  # atomic orbitals                 120          :
          :  # shells                           68          :
          :  # electrons                       126          :
          :  max. iterations                   250          :
          :  Hamiltonian                  GFN2-xTB          :
          :  restarted?                      false          :
          :  GBSA solvation                  false          :
          :  PC potential                    false          :
          :  electronic temp.          300.0000000     K    :
          :  accuracy                    1.0000000          :
          :  -> integral cutoff          0.2500000E+02      :
          :  -> integral neglect         0.1000000E-07      :
          :  -> SCF convergence          0.1000000E-05 Eh   :
          :  -> wf. convergence          0.1000000E-03 e    :
          :  Broyden damping             0.4000000          :
          :  net charge                          0          :
          :  unpaired electrons                  0          :
          ...................................................

 iter      E             dE          RMSdq      gap      omega  full diag
   1    -71.0614628 -0.710615E+02  0.435E+00    3.09       0.0  T
   2    -71.1692589 -0.107796E+00  0.248E+00    3.07       1.0  T
   3    -71.1648905  0.436842E-02  0.118E+00    2.99       1.0  T
   4    -71.1770852 -0.121948E-01  0.493E-01    3.04       1.0  T
   5    -71.1852298 -0.814455E-02  0.158E-01    3.03       1.0  T
   6    -71.1853830 -0.153167E-03  0.752E-02    3.03       1.0  T
   7    -71.1854498 -0.667900E-04  0.323E-02    3.04       1.0  T
   8    -71.1854574 -0.760208E-05  0.188E-02    3.03       1.0  T
   9    -71.1854585 -0.113772E-05  0.778E-03    3.03       2.0  T
  10    -71.1854599 -0.136487E-05  0.315E-03    3.03       4.8  T
  11    -71.1854599 -0.419032E-07  0.160E-03    3.03       9.5  T
  12    -71.1854599 -0.232651E-07  0.638E-04    3.03      23.9  T
  13    -71.1854599 -0.753488E-08  0.243E-04    3.03      62.7  T

   *** convergence criteria satisfied after 13 iterations ***

         #    Occupation            Energy/Eh            Energy/eV
      -------------------------------------------------------------
         1        2.0000           -0.7569355             -20.5973
       ...           ...                  ...                  ...
        57        2.0000           -0.4115540             -11.1990
        58        2.0000           -0.4043823             -11.0038
        59        2.0000           -0.3946124             -10.7380
        60        2.0000           -0.3879114             -10.5556
        61        2.0000           -0.3833065             -10.4303
        62        2.0000           -0.3765977             -10.2477
        63        2.0000           -0.3735050             -10.1636 (HOMO)
        64                         -0.2620700              -7.1313 (LUMO)
        65                         -0.2523495              -6.8668
        66                         -0.2391428              -6.5074
        67                         -0.2044326              -5.5629
        68                         -0.1980431              -5.3890
       ...                                ...                  ...
       120                          0.8025999              21.8399
      -------------------------------------------------------------
                  HL-Gap            0.1114350 Eh            3.0323 eV
             Fermi-level           -0.3177875 Eh           -8.6474 eV

 SCC (total)                   0 d,  0 h,  0 min,  0.109 sec
 SCC setup                      ...        0 min,  0.000 sec (  0.336%)
 Dispersion                     ...        0 min,  0.000 sec (  0.439%)
 classical contributions        ...        0 min,  0.000 sec (  0.138%)
 integral evaluation            ...        0 min,  0.049 sec ( 44.592%)
 iterations                     ...        0 min,  0.031 sec ( 28.733%)
 molecular gradient             ...        0 min,  0.028 sec ( 25.586%)
 printout                       ...        0 min,  0.000 sec (  0.169%)

         :::::::::::::::::::::::::::::::::::::::::::::::::::::
         ::                     SUMMARY                     ::
         :::::::::::::::::::::::::::::::::::::::::::::::::::::
         :: total energy             -70.301044522629 Eh    ::
         :: gradient norm              0.099704858361 Eh/a0 ::
         :: HOMO-LUMO gap              3.032301565631 eV    ::
         ::.................................................::
         :: SCC energy               -71.184761448756 Eh    ::
         :: -> isotropic ES            0.095080310115 Eh    ::
         :: -> anisotropic ES          0.009420096951 Eh    ::
         :: -> anisotropic XC          0.030555577587 Eh    ::
         :: -> dispersion             -0.049247405104 Eh    ::
         :: repulsion energy           0.883716926127 Eh    ::
         :: add. restraining           0.000000000000 Eh    ::
         :: total charge               0.000000000000 e     ::
         :::::::::::::::::::::::::::::::::::::::::::::::::::::

      ----------------------------------------------------------- 
     |                   =====================                   |
     |                        A N C O P T                        |
     |                   =====================                   |
     |               Approximate Normal Coordinate               |
     |                Rational Function Optimizer                |
      ----------------------------------------------------------- 
      ----------------------------------------------------------- 
     |                   =====================                   |
     |                        A N C O P T                        |
     |                   =====================                   |
     |               Approximate Normal Coordinate               |
     |                Rational Function Optimizer                |
      ----------------------------------------------------------- 

          ...................................................
          :                      SETUP                      :
          :.................................................:
          :   optimization level            normal          :
          :   max. optcycles                   200          :
          :   ANC micro-cycles                  20          :
          :   degrees of freedom               123          :
          :.................................................:
          :   RF solver                   davidson          :
          :   write xtbopt.log                true          :
          :   linear?                        false          :
          :   energy convergence         0.5000000E-05 Eh   :
          :   grad. convergence          0.1000000E-02 Eh/α :
          :   maxmium RF displ.          1.0000000          :
          :   Hlow (freq-cutoff)         0.1000000E-01      :
          :   Hmax (freq-cutoff)         5.0000000          :
          :   S6 in model hess.         20.0000000          :
          ...................................................

generating ANC from exact Hessian ...
Using Lindh-Hessian (1995)
 Shifting diagonal of input Hessian by    9.8821281363212655E-003
 Lowest  eigenvalues of input Hessian
    0.000000    0.000000    0.000000    0.000000    0.000000    0.000000
    0.010000    0.010173    0.010286    0.011023    0.011396    0.012242
    0.012710    0.013250    0.013672    0.015375    0.015684    0.016192
 Highest eigenvalues
    1.990084    2.030117    2.039485    2.099641    2.231945    2.270689


........................................................................
.............................. CYCLE    1 ..............................
........................................................................

 iter      E             dE          RMSdq      gap      omega  full diag
   1    -71.1854599 -0.711855E+02  0.978E-05    3.03       0.0  T
   2    -71.1854599 -0.645173E-10  0.573E-05    3.03     266.1  T
   3    -71.1854599 -0.249258E-10  0.398E-05    3.03     383.0  T
     SCC iter.                  ...        0 min,  0.008 sec
     gradient                   ...        0 min,  0.026 sec
 * total energy  :   -70.3010445 Eh     change       -0.9074057E-09 Eh
   gradient norm :     0.0997047 Eh/α   predicted     0.0000000E+00 (-100.00%)
   displ. norm   :     0.2814024 α      lambda       -0.1309317E-01
   maximum displ.:     0.0929915 α      in ANC's #31, #21, #37, ...

........................................................................
.............................. CYCLE    2 ..............................
........................................................................

 iter      E             dE          RMSdq      gap      omega  full diag
   1    -71.2216527 -0.712217E+02  0.196E-01    3.08       0.0  T
   2    -71.2217612 -0.108549E-03  0.124E-01    3.07       1.0  T
   3    -71.2216934  0.677932E-04  0.670E-02    3.08       1.0  T
   4    -71.2218299 -0.136465E-03  0.150E-02    3.08       1.0  T
   5    -71.2218339 -0.402258E-05  0.699E-03    3.08       2.2  T
   6    -71.2218340 -0.126998E-06  0.321E-03    3.08       4.8  T
   7    -71.2218342 -0.174714E-06  0.157E-03    3.08       9.7  T
   8    -71.2218342 -0.141581E-07  0.757E-04    3.08      20.2  T
   9    -71.2218342 -0.472842E-08  0.275E-04    3.08      55.4  T
     SCC iter.                  ...        0 min,  0.063 sec
     gradient                   ...        0 min,  0.028 sec
 * total energy  :   -70.3101108 Eh     change       -0.9066301E-02 Eh
   gradient norm :     0.0466824 Eh/α   predicted    -0.7069570E-02 ( -22.02%)
   displ. norm   :     0.2398487 α      lambda       -0.4054755E-02
   maximum displ.:     0.0788852 α      in ANC's #23, #9, #31, ...

........................................................................
.............................. CYCLE    3 ..............................
........................................................................

 iter      E             dE          RMSdq      gap      omega  full diag
   1    -71.2418717 -0.712419E+02  0.131E-01    3.09       0.0  T
   2    -71.2419354 -0.636587E-04  0.842E-02    3.09       1.0  T
   3    -71.2419287  0.666504E-05  0.431E-02    3.10       1.0  T
   4    -71.2419613 -0.326272E-04  0.127E-02    3.09       1.2  T
   5    -71.2419661 -0.472085E-05  0.392E-03    3.09       3.9  T
   6    -71.2419661 -0.556405E-07  0.218E-03    3.09       7.0  T
   7    -71.2419662 -0.526913E-07  0.964E-04    3.09      15.8  T
   8    -71.2419662 -0.967472E-08  0.528E-04    3.09      28.9  T
     SCC iter.                  ...        0 min,  0.055 sec
     gradient                   ...        0 min,  0.028 sec
 * total energy  :   -70.3124745 Eh     change       -0.2363697E-02 Eh
   gradient norm :     0.0143997 Eh/α   predicted    -0.2144605E-02 (  -9.27%)
   displ. norm   :     0.1745607 α      lambda       -0.6426941E-03
   maximum displ.:     0.0738473 α      in ANC's #9, #11, #10, ...

........................................................................
.............................. CYCLE    4 ..............................
........................................................................

 iter      E             dE          RMSdq      gap      omega  full diag
   1    -71.2432749 -0.712433E+02  0.615E-02    3.08       0.0  T
   2    -71.2432804 -0.545438E-05  0.376E-02    3.08       1.0  T
   3    -71.2432762  0.420956E-05  0.146E-02    3.08       1.0  T
   4    -71.2432820 -0.584199E-05  0.374E-03    3.08       4.1  T
   5    -71.2432822 -0.236858E-06  0.167E-03    3.08       9.1  T
   6    -71.2432823 -0.154365E-07  0.659E-04    3.08      23.1  T
   7    -71.2432823 -0.891657E-08  0.236E-04    3.08      64.6  T
     SCC iter.                  ...        0 min,  0.016 sec
     gradient                   ...        0 min,  0.054 sec
 * total energy  :   -70.3129708 Eh     change       -0.4962451E-03 Eh
   gradient norm :     0.0086939 Eh/α   predicted    -0.3311548E-03 ( -33.27%)
   displ. norm   :     0.2979735 α      lambda       -0.6701400E-03
   maximum displ.:     0.1234903 α      in ANC's #9, #11, #3, ...

........................................................................
.............................. CYCLE    5 ..............................
........................................................................

 iter      E             dE          RMSdq      gap      omega  full diag
   1    -71.2419639 -0.712420E+02  0.930E-02    3.06       0.0  T
   2    -71.2419694 -0.551010E-05  0.551E-02    3.06       1.0  T
   3    -71.2419618  0.754255E-05  0.160E-02    3.06       1.0  T
   4    -71.2419715 -0.968603E-05  0.388E-03    3.06       3.9  T
   5    -71.2419716 -0.552586E-07  0.181E-03    3.06       8.4  T
   6    -71.2419716 -0.287366E-07  0.538E-04    3.06      28.3  T
   7    -71.2419716 -0.435995E-08  0.288E-04    3.06      53.0  T
     SCC iter.                  ...        0 min,  0.016 sec
     gradient                   ...        0 min,  0.027 sec
 * total energy  :   -70.3134079 Eh     change       -0.4371027E-03 Eh
   gradient norm :     0.0061658 Eh/α   predicted    -0.3648226E-03 ( -16.54%)
   displ. norm   :     0.1908639 α      lambda       -0.2103438E-03
   maximum displ.:     0.0850536 α      in ANC's #3, #9, #11, ...

........................................................................
.............................. CYCLE    6 ..............................
........................................................................

 iter      E             dE          RMSdq      gap      omega  full diag
   1    -71.2414855 -0.712415E+02  0.537E-02    3.05       0.0  T
   2    -71.2414870 -0.154857E-05  0.305E-02    3.05       1.0  T
   3    -71.2414864  0.679597E-06  0.653E-03    3.05       2.3  T
   4    -71.2414873 -0.944858E-06  0.253E-03    3.05       6.0  T
   5    -71.2414875 -0.189713E-06  0.973E-04    3.05      15.7  T
   6    -71.2414875 -0.578234E-08  0.353E-04    3.05      43.1  T
     SCC iter.                  ...        0 min,  0.014 sec
     gradient                   ...        0 min,  0.028 sec
 * total energy  :   -70.3135585 Eh     change       -0.1506636E-03 Eh
   gradient norm :     0.0054052 Eh/α   predicted    -0.1090382E-03 ( -27.63%)
   displ. norm   :     0.1774188 α      lambda       -0.1526251E-03
   maximum displ.:     0.0957023 α      in ANC's #3, #1, #9, ...

........................................................................
.............................. CYCLE    7 ..............................
........................................................................

 iter      E             dE          RMSdq      gap      omega  full diag
   1    -71.2418758 -0.712419E+02  0.450E-02    3.05       0.0  T
   2    -71.2418774 -0.157270E-05  0.253E-02    3.05       1.0  T
   3    -71.2418767  0.703544E-06  0.747E-03    3.05       2.0  T
   4    -71.2418777 -0.100223E-05  0.257E-03    3.05       5.9  T
   5    -71.2418779 -0.147420E-06  0.101E-03    3.05      15.1  T
   6    -71.2418779 -0.601014E-08  0.371E-04    3.05      41.1  T
   7    -71.2418779 -0.189432E-08  0.173E-04    3.05      87.9  T
     SCC iter.                  ...        0 min,  0.055 sec
     gradient                   ...        0 min,  0.028 sec
 * total energy  :   -70.3136703 Eh     change       -0.1117403E-03 Eh
   gradient norm :     0.0038652 Eh/α   predicted    -0.7872286E-04 ( -29.55%)
   displ. norm   :     0.1769396 α      lambda       -0.1184269E-03
   maximum displ.:     0.1051111 α      in ANC's #3, #1, #4, ...

........................................................................
.............................. CYCLE    8 ..............................
........................................................................

 iter      E             dE          RMSdq      gap      omega  full diag
   1    -71.2425104 -0.712425E+02  0.402E-02    3.06       0.0  T
   2    -71.2425116 -0.122952E-05  0.227E-02    3.06       1.0  T
   3    -71.2425109  0.744719E-06  0.699E-03    3.06       2.2  T
   4    -71.2425119 -0.103144E-05  0.245E-03    3.06       6.2  T
   5    -71.2425120 -0.107905E-06  0.920E-04    3.06      16.6  T
   6    -71.2425120 -0.706851E-08  0.332E-04    3.06      45.9  T
     SCC iter.                  ...        0 min,  0.014 sec
     gradient                   ...        0 min,  0.049 sec
 * total energy  :   -70.3137598 Eh     change       -0.8950882E-04 Eh
   gradient norm :     0.0032325 Eh/α   predicted    -0.6106823E-04 ( -31.77%)
   displ. norm   :     0.1964993 α      lambda       -0.1044043E-03
   maximum displ.:     0.1194763 α      in ANC's #3, #1, #2, ...

........................................................................
.............................. CYCLE    9 ..............................
........................................................................

 iter      E             dE          RMSdq      gap      omega  full diag
   1    -71.2429183 -0.712429E+02  0.413E-02    3.06       0.0  T
   2    -71.2429192 -0.899607E-06  0.235E-02    3.06       1.0  T
   3    -71.2429184  0.758930E-06  0.627E-03    3.06       2.4  T
   4    -71.2429193 -0.933637E-06  0.248E-03    3.06       6.1  T
   5    -71.2429195 -0.139572E-06  0.870E-04    3.06      17.5  T
   6    -71.2429195 -0.123837E-07  0.342E-04    3.06      44.6  T
     SCC iter.                  ...        0 min,  0.014 sec
     gradient                   ...        0 min,  0.063 sec
 * total energy  :   -70.3138425 Eh     change       -0.8274460E-04 Eh
   gradient norm :     0.0036319 Eh/α   predicted    -0.5421979E-04 ( -34.47%)
   displ. norm   :     0.2317660 α      lambda       -0.1081840E-03
   maximum displ.:     0.1413759 α      in ANC's #3, #1, #2, ...

........................................................................
.............................. CYCLE   10 ..............................
........................................................................

 iter      E             dE          RMSdq      gap      omega  full diag
   1    -71.2430134 -0.712430E+02  0.467E-02    3.07       0.0  T
   2    -71.2430141 -0.734353E-06  0.269E-02    3.06       1.0  T
   3    -71.2430129  0.118738E-05  0.663E-03    3.07       2.3  T
   4    -71.2430143 -0.137319E-05  0.257E-03    3.06       5.9  T
   5    -71.2430145 -0.158740E-06  0.790E-04    3.06      19.3  T
   6    -71.2430145 -0.928067E-08  0.308E-04    3.06      49.5  T
     SCC iter.                  ...        0 min,  0.014 sec
     gradient                   ...        0 min,  0.027 sec
 * total energy  :   -70.3139312 Eh     change       -0.8865278E-04 Eh
   gradient norm :     0.0040930 Eh/α   predicted    -0.5700152E-04 ( -35.70%)
   displ. norm   :     0.2734922 α      lambda       -0.1184067E-03
   maximum displ.:     0.1673746 α      in ANC's #3, #1, #2, ...

........................................................................
.............................. CYCLE   11 ..............................
........................................................................

 iter      E             dE          RMSdq      gap      omega  full diag
   1    -71.2428462 -0.712428E+02  0.535E-02    3.07       0.0  T
   2    -71.2428469 -0.687348E-06  0.311E-02    3.07       1.0  T
   3    -71.2428453  0.160136E-05  0.715E-03    3.07       2.1  T
   4    -71.2428472 -0.189497E-05  0.242E-03    3.07       6.3  T
   5    -71.2428473 -0.968340E-07  0.691E-04    3.07      22.1  T
   6    -71.2428473 -0.101076E-07  0.302E-04    3.07      50.5  T
     SCC iter.                  ...        0 min,  0.047 sec
     gradient                   ...        0 min,  0.027 sec
 * total energy  :   -70.3140297 Eh     change       -0.9848648E-04 Eh
   gradient norm :     0.0042676 Eh/α   predicted    -0.6363559E-04 ( -35.39%)
   displ. norm   :     0.3135921 α      lambda       -0.1268994E-03
   maximum displ.:     0.1933779 α      in ANC's #3, #1, #2, ...

........................................................................
.............................. CYCLE   12 ..............................
........................................................................

 iter      E             dE          RMSdq      gap      omega  full diag
   1    -71.2425427 -0.712425E+02  0.595E-02    3.07       0.0  T
   2    -71.2425435 -0.758023E-06  0.348E-02    3.06       1.0  T
   3    -71.2425421  0.142164E-05  0.688E-03    3.07       2.2  T
   4    -71.2425438 -0.175337E-05  0.233E-03    3.06       6.5  T
   5    -71.2425439 -0.531297E-07  0.694E-04    3.07      22.0  T
   6    -71.2425439 -0.151463E-07  0.303E-04    3.07      50.3  T
     SCC iter.                  ...        0 min,  0.014 sec
     gradient                   ...        0 min,  0.061 sec
 * total energy  :   -70.3141347 Eh     change       -0.1050591E-03 Eh
   gradient norm :     0.0040219 Eh/α   predicted    -0.6969560E-04 ( -33.66%)
   displ. norm   :     0.3403543 α      lambda       -0.1246772E-03
   maximum displ.:     0.2123275 α      in ANC's #3, #1, #2, ...

........................................................................
.............................. CYCLE   13 ..............................
........................................................................

 iter      E             dE          RMSdq      gap      omega  full diag
   1    -71.2422854 -0.712423E+02  0.624E-02    3.06       0.0  T
   2    -71.2422863 -0.894700E-06  0.365E-02    3.06       1.0  T
   3    -71.2422853  0.973852E-06  0.621E-03    3.06       2.5  T
   4    -71.2422866 -0.128689E-05  0.231E-03    3.06       6.6  T
   5    -71.2422866 -0.507915E-07  0.711E-04    3.06      21.4  T
   6    -71.2422866 -0.116722E-07  0.330E-04    3.06      46.2  T
     SCC iter.                  ...        0 min,  0.014 sec
     gradient                   ...        0 min,  0.028 sec
 * total energy  :   -70.3142365 Eh     change       -0.1017331E-03 Eh
   gradient norm :     0.0033734 Eh/α   predicted    -0.6956474E-04 ( -31.62%)
   displ. norm   :     0.3474918 α      lambda       -0.1110188E-03
   maximum displ.:     0.2191933 α      in ANC's #3, #1, #2, ...

........................................................................
.............................. CYCLE   14 ..............................
........................................................................

 iter      E             dE          RMSdq      gap      omega  full diag
   1    -71.2422441 -0.712422E+02  0.615E-02    3.05       0.0  T
   2    -71.2422450 -0.947862E-06  0.360E-02    3.05       1.0  T
   3    -71.2422442  0.795596E-06  0.583E-03    3.05       2.6  T
   4    -71.2422453 -0.108716E-05  0.226E-03    3.05       6.7  T
   5    -71.2422454 -0.574444E-07  0.762E-04    3.05      20.0  T
   6    -71.2422454 -0.100928E-07  0.341E-04    3.05      44.8  T
     SCC iter.                  ...        0 min,  0.014 sec
     gradient                   ...        0 min,  0.028 sec
 * total energy  :   -70.3143267 Eh     change       -0.9023649E-04 Eh
   gradient norm :     0.0027717 Eh/α   predicted    -0.6221296E-04 ( -31.06%)
   displ. norm   :     0.3548887 α      lambda       -0.1003454E-03
   maximum displ.:     0.2247904 α      in ANC's #3, #1, #2, ...

........................................................................
.............................. CYCLE   15 ..............................
........................................................................

 iter      E             dE          RMSdq      gap      omega  full diag
   1    -71.2424140 -0.712424E+02  0.613E-02    3.05       0.0  T
   2    -71.2424149 -0.918913E-06  0.359E-02    3.05       1.0  T
   3    -71.2424142  0.714878E-06  0.554E-03    3.05       2.8  T
   4    -71.2424152 -0.100424E-05  0.218E-03    3.05       7.0  T
   5    -71.2424152 -0.551094E-07  0.736E-04    3.05      20.7  T
   6    -71.2424152 -0.847301E-08  0.329E-04    3.05      46.3  T
     SCC iter.                  ...        0 min,  0.041 sec
     gradient                   ...        0 min,  0.027 sec
 * total energy  :   -70.3144096 Eh     change       -0.8293790E-04 Eh
   gradient norm :     0.0028703 Eh/α   predicted    -0.5650091E-04 ( -31.88%)
   displ. norm   :     0.3959726 α      lambda       -0.1062517E-03
   maximum displ.:     0.2494037 α      in ANC's #3, #1, #2, ...

........................................................................
.............................. CYCLE   16 ..............................
........................................................................

 iter      E             dE          RMSdq      gap      omega  full diag
   1    -71.2426094 -0.712426E+02  0.679E-02    3.04       0.0  T
   2    -71.2426105 -0.103694E-05  0.398E-02    3.04       1.0  T
   3    -71.2426097  0.776451E-06  0.576E-03    3.04       2.6  T
   4    -71.2426108 -0.113645E-05  0.226E-03    3.04       6.8  T
   5    -71.2426109 -0.539866E-07  0.744E-04    3.04      20.5  T
   6    -71.2426109 -0.967161E-08  0.336E-04    3.04      45.4  T
     SCC iter.                  ...        0 min,  0.014 sec
     gradient                   ...        0 min,  0.067 sec
 * total energy  :   -70.3144990 Eh     change       -0.8936641E-04 Eh
   gradient norm :     0.0036166 Eh/α   predicted    -0.6145632E-04 ( -31.23%)
   displ. norm   :     0.4844391 α      lambda       -0.1303875E-03
   maximum displ.:     0.3006792 α      in ANC's #3, #1, #2, ...

........................................................................
.............................. CYCLE   17 ..............................
........................................................................

 iter      E             dE          RMSdq      gap      omega  full diag
   1    -71.2425654 -0.712426E+02  0.837E-02    3.04       0.0  T
   2    -71.2425670 -0.151421E-05  0.491E-02    3.04       1.0  T
   3    -71.2425653  0.164429E-05  0.766E-03    3.04       2.0  T
   4    -71.2425676 -0.225826E-05  0.269E-03    3.04       5.7  T
   5    -71.2425676 -0.601976E-07  0.955E-04    3.04      16.0  T
   6    -71.2425676 -0.208406E-07  0.403E-04    3.04      37.9  T
     SCC iter.                  ...        0 min,  0.014 sec
     gradient                   ...        0 min,  0.067 sec
 * total energy  :   -70.3146072 Eh     change       -0.1081820E-03 Eh
   gradient norm :     0.0046554 Eh/α   predicted    -0.8049859E-04 ( -25.59%)
   displ. norm   :     0.4877945 α      lambda       -0.1464524E-03
   maximum displ.:     0.2913346 α      in ANC's #3, #1, #2, ...

........................................................................
.............................. CYCLE   18 ..............................
........................................................................

 iter      E             dE          RMSdq      gap      omega  full diag
   1    -71.2429181 -0.712429E+02  0.858E-02    3.04       0.0  T
   2    -71.2429198 -0.168844E-05  0.503E-02    3.04       1.0  T
   3    -71.2429168  0.296240E-05  0.949E-03    3.04       1.6  T
   4    -71.2429206 -0.375126E-05  0.269E-03    3.04       5.7  T
   5    -71.2429206 -0.539845E-07  0.108E-03    3.04      14.1  T
   6    -71.2429206 -0.251953E-07  0.415E-04    3.04      36.8  T
   7    -71.2429206 -0.143027E-08  0.197E-04    3.04      77.3  T
     SCC iter.                  ...        0 min,  0.016 sec
     gradient                   ...        0 min,  0.028 sec
 * total energy  :   -70.3147252 Eh     change       -0.1180296E-03 Eh
   gradient norm :     0.0054450 Eh/α   predicted    -0.9065211E-04 ( -23.20%)
   displ. norm   :     0.4374740 α      lambda       -0.1651669E-03
   maximum displ.:     0.2548991 α      in ANC's #1, #3, #2, ...

........................................................................
.............................. CYCLE   19 ..............................
........................................................................

 iter      E             dE          RMSdq      gap      omega  full diag
   1    -71.2433034 -0.712433E+02  0.808E-02    3.05       0.0  T
   2    -71.2433053 -0.188510E-05  0.475E-02    3.04       1.0  T
   3    -71.2433007  0.455689E-05  0.115E-02    3.05       1.3  T
   4    -71.2433062 -0.548191E-05  0.266E-03    3.04       5.7  T
   5    -71.2433063 -0.102573E-06  0.119E-03    3.05      12.8  T
   6    -71.2433063 -0.176298E-07  0.457E-04    3.05      33.4  T
   7    -71.2433063 -0.291834E-08  0.209E-04    3.05      72.8  T
     SCC iter.                  ...        0 min,  0.016 sec
     gradient                   ...        0 min,  0.028 sec
 * total energy  :   -70.3148563 Eh     change       -0.1311103E-03 Eh
   gradient norm :     0.0052808 Eh/α   predicted    -0.9839173E-04 ( -24.96%)
   displ. norm   :     0.3703280 α      lambda       -0.2069562E-03
   maximum displ.:     0.2121694 α      in ANC's #1, #3, #4, ...

........................................................................
.............................. CYCLE   20 ..............................
........................................................................

 iter      E             dE          RMSdq      gap      omega  full diag
   1    -71.2465421 -0.712465E+02  0.720E-02    3.06       0.0  T
   2    -71.2465443 -0.222308E-05  0.424E-02    3.06       1.0  T
   3    -71.2465394  0.492668E-05  0.120E-02    3.06       1.3  T
   4    -71.2465452 -0.583752E-05  0.257E-03    3.06       5.9  T
   5    -71.2465454 -0.139597E-06  0.114E-03    3.06      13.4  T
   6    -71.2465454 -0.643008E-08  0.479E-04    3.06      31.8  T
   7    -71.2465454 -0.336871E-08  0.192E-04    3.06      79.6  T
     SCC iter.                  ...        0 min,  0.043 sec
     gradient                   ...        0 min,  0.028 sec
 * total energy  :   -70.3149994 Eh     change       -0.1430544E-03 Eh
   gradient norm :     0.0069677 Eh/α   predicted    -0.1176715E-03 ( -17.74%)
   displ. norm   :     0.5101841 α      lambda       -0.2978744E-03
   maximum displ.:     0.3026620 α      in ANC's #1, #3, #14, ...
 * RMSD in coord.:     0.7807748 α      energy gain  -0.1395485E-01 Eh

generating ANC from exact Hessian ...
Using Lindh-Hessian (1995)
 Shifting diagonal of input Hessian by    9.8474231499656849E-003
 Lowest  eigenvalues of input Hessian
    0.000000    0.000000    0.000000    0.000000    0.000000    0.000000
    0.010000    0.010154    0.010400    0.011076    0.011397    0.012405
    0.012894    0.013336    0.014075    0.015708    0.015822    0.015988
 Highest eigenvalues
    2.056870    2.070574    2.150887    2.154213    2.253858    2.474545


........................................................................
.............................. CYCLE   21 ..............................
........................................................................

 iter      E             dE          RMSdq      gap      omega  full diag
   1    -71.2407684 -0.712408E+02  0.107E-01    3.06       0.0  T
   2    -71.2407730 -0.453285E-05  0.630E-02    3.06       1.0  T
   3    -71.2407667  0.628095E-05  0.149E-02    3.06       1.0  T
   4    -71.2407742 -0.747106E-05  0.434E-03    3.06       3.5  T
   5    -71.2407747 -0.571781E-06  0.171E-03    3.06       8.9  T
   6    -71.2407747 -0.159260E-07  0.744E-04    3.06      20.5  T
   7    -71.2407748 -0.688249E-08  0.275E-04    3.06      55.4  T
     SCC iter.                  ...        0 min,  0.043 sec
     gradient                   ...        0 min,  0.028 sec
 * total energy  :   -70.3151492 Eh     change       -0.1497918E-03 Eh
   gradient norm :     0.0105170 Eh/α   predicted     0.0000000E+00 (-100.00%)
   displ. norm   :     0.0891946 α      lambda       -0.3090163E-03
   maximum displ.:     0.0465993 α      in ANC's #14, #12, #11, ...

........................................................................
.............................. CYCLE   22 ..............................
........................................................................

 iter      E             dE          RMSdq      gap      omega  full diag
   1    -71.2438954 -0.712439E+02  0.289E-02    3.05       0.0  T
   2    -71.2438974 -0.197511E-05  0.168E-02    3.06       1.0  T
   3    -71.2438963  0.111999E-05  0.739E-03    3.06       2.1  T
   4    -71.2438978 -0.152934E-05  0.218E-03    3.06       7.0  T
   5    -71.2438979 -0.129584E-06  0.760E-04    3.06      20.1  T
   6    -71.2438979 -0.239804E-08  0.355E-04    3.06      43.0  T
     SCC iter.                  ...        0 min,  0.014 sec
     gradient                   ...        0 min,  0.061 sec
 * total energy  :   -70.3153879 Eh     change       -0.2387375E-03 Eh
   gradient norm :     0.0047007 Eh/α   predicted    -0.1562685E-03 ( -34.54%)
   displ. norm   :     0.2099214 α      lambda       -0.3643301E-03
   maximum displ.:     0.1192729 α      in ANC's #14, #12, #11, ...

........................................................................
.............................. CYCLE   23 ..............................
........................................................................

 iter      E             dE          RMSdq      gap      omega  full diag
   1    -71.2459433 -0.712459E+02  0.511E-02    3.04       0.0  T
   2    -71.2459463 -0.301010E-05  0.304E-02    3.05       1.0  T
   3    -71.2459413  0.495785E-05  0.129E-02    3.04       1.2  T
   4    -71.2459476 -0.625015E-05  0.292E-03    3.05       5.2  T
   5    -71.2459477 -0.185468E-06  0.121E-03    3.05      12.6  T
   6    -71.2459478 -0.106704E-07  0.532E-04    3.05      28.6  T
   7    -71.2459478 -0.442175E-08  0.232E-04    3.05      65.7  T
     SCC iter.                  ...        0 min,  0.016 sec
     gradient                   ...        0 min,  0.061 sec
 * total energy  :   -70.3156684 Eh     change       -0.2805310E-03 Eh
   gradient norm :     0.0034449 Eh/α   predicted    -0.1901979E-03 ( -32.20%)
   displ. norm   :     0.3959428 α      lambda       -0.4683391E-03
   maximum displ.:     0.2417913 α      in ANC's #14, #12, #11, ...

........................................................................
.............................. CYCLE   24 ..............................
........................................................................

 iter      E             dE          RMSdq      gap      omega  full diag
   1    -71.2438993 -0.712439E+02  0.828E-02    3.02       0.0  T
   2    -71.2439033 -0.408549E-05  0.495E-02    3.03       1.0  T
   3    -71.2438918  0.115668E-04  0.179E-02    3.03       1.0  T
   4    -71.2439057 -0.139566E-04  0.373E-03    3.03       4.1  T
   5    -71.2439059 -0.204147E-06  0.172E-03    3.03       8.8  T
   6    -71.2439060 -0.335720E-07  0.683E-04    3.03      22.3  T
   7    -71.2439060 -0.578565E-08  0.345E-04    3.03      44.2  T
     SCC iter.                  ...        0 min,  0.016 sec
     gradient                   ...        0 min,  0.028 sec
 * total energy  :   -70.3159891 Eh     change       -0.3206895E-03 Eh
   gradient norm :     0.0100557 Eh/α   predicted    -0.2708809E-03 ( -15.53%)
   displ. norm   :     0.2158557 α      lambda       -0.2415604E-03
   maximum displ.:     0.1329917 α      in ANC's #14, #15, #11, ...

........................................................................
.............................. CYCLE   25 ..............................
........................................................................

 iter      E             dE          RMSdq      gap      omega  full diag
   1    -71.2420246 -0.712420E+02  0.403E-02    3.02       0.0  T
   2    -71.2420253 -0.745761E-06  0.240E-02    3.03       1.0  T
   3    -71.2420239  0.138507E-05  0.584E-03    3.02       2.6  T
   4    -71.2420256 -0.169214E-05  0.141E-03    3.03      10.8  T
   5    -71.2420257 -0.247166E-07  0.653E-04    3.03      23.4  T
   6    -71.2420257 -0.337064E-08  0.264E-04    3.03      57.8  T
     SCC iter.                  ...        0 min,  0.035 sec
     gradient                   ...        0 min,  0.029 sec
 * total energy  :   -70.3161662 Eh     change       -0.1770893E-03 Eh
   gradient norm :     0.0122040 Eh/α   predicted    -0.1264574E-03 ( -28.59%)
   displ. norm   :     0.2414530 α      lambda       -0.5861413E-03
   maximum displ.:     0.1266415 α      in ANC's #14, #15, #11, ...

........................................................................
.............................. CYCLE   26 ..............................
........................................................................

 iter      E             dE          RMSdq      gap      omega  full diag
   1    -71.2417287 -0.712417E+02  0.618E-02    3.04       0.0  T
   2    -71.2417354 -0.671618E-05  0.363E-02    3.03       1.0  T
   3    -71.2417303  0.512137E-05  0.149E-02    3.04       1.0  T
   4    -71.2417371 -0.682651E-05  0.375E-03    3.03       4.1  T
   5    -71.2417374 -0.335504E-06  0.147E-03    3.03      10.4  T
   6    -71.2417374 -0.602998E-08  0.729E-04    3.03      20.9  T
   7    -71.2417374 -0.113982E-07  0.187E-04    3.03      81.4  T
     SCC iter.                  ...        0 min,  0.016 sec
     gradient                   ...        0 min,  0.055 sec
 * total energy  :   -70.3165117 Eh     change       -0.3454901E-03 Eh
   gradient norm :     0.0090892 Eh/α   predicted    -0.3101575E-03 ( -10.23%)
   displ. norm   :     0.2234339 α      lambda       -0.2574587E-03
   maximum displ.:     0.1287668 α      in ANC's #14, #15, #17, ...

........................................................................
.............................. CYCLE   27 ..............................
........................................................................

 iter      E             dE          RMSdq      gap      omega  full diag
   1    -71.2409663 -0.712410E+02  0.431E-02    3.04       0.0  T
   2    -71.2409675 -0.117996E-05  0.256E-02    3.04       1.0  T
   3    -71.2409661  0.143962E-05  0.755E-03    3.04       2.0  T
   4    -71.2409678 -0.174952E-05  0.198E-03    3.04       7.7  T
   5    -71.2409679 -0.986879E-07  0.859E-04    3.04      17.7  T
   6    -71.2409679 -0.519526E-08  0.398E-04    3.04      38.4  T
     SCC iter.                  ...        0 min,  0.014 sec
     gradient                   ...        0 min,  0.067 sec
 * total energy  :   -70.3166874 Eh     change       -0.1757332E-03 Eh
   gradient norm :     0.0112543 Eh/α   predicted    -0.1352198E-03 ( -23.05%)
   displ. norm   :     0.2094034 α      lambda       -0.4806939E-03
   maximum displ.:     0.0777000 α      in ANC's #14, #10, #7, ...

........................................................................
.............................. CYCLE   28 ..............................
........................................................................

 iter      E             dE          RMSdq      gap      omega  full diag
   1    -71.2456843 -0.712457E+02  0.622E-02    3.06       0.0  T
   2    -71.2456906 -0.631120E-05  0.368E-02    3.06       1.0  T
   3    -71.2456874  0.321829E-05  0.145E-02    3.06       1.1  T
   4    -71.2456917 -0.428631E-05  0.429E-03    3.06       3.6  T
   5    -71.2456922 -0.568353E-06  0.166E-03    3.06       9.2  T
   6    -71.2456923 -0.232876E-07  0.714E-04    3.06      21.4  T
   7    -71.2456923 -0.571454E-08  0.296E-04    3.06      51.5  T
     SCC iter.                  ...        0 min,  0.016 sec
     gradient                   ...        0 min,  0.068 sec
 * total energy  :   -70.3169226 Eh     change       -0.2352020E-03 Eh
   gradient norm :     0.0082240 Eh/α   predicted    -0.2508941E-03 (   6.67%)
   displ. norm   :     0.2110180 α      lambda       -0.2146435E-03
   maximum displ.:     0.1172288 α      in ANC's #14, #17, #10, ...

........................................................................
.............................. CYCLE   29 ..............................
........................................................................

 iter      E             dE          RMSdq      gap      omega  full diag
   1    -71.2439422 -0.712439E+02  0.422E-02    3.06       0.0  T
   2    -71.2439432 -0.983885E-06  0.250E-02    3.06       1.0  T
   3    -71.2439428  0.405776E-06  0.461E-03    3.06       3.3  T
   4    -71.2439433 -0.589280E-06  0.144E-03    3.06      10.6  T
   5    -71.2439434 -0.377121E-07  0.742E-04    3.06      20.6  T
   6    -71.2439434 -0.637148E-08  0.242E-04    3.06      63.1  T
     SCC iter.                  ...        0 min,  0.014 sec
     gradient                   ...        0 min,  0.029 sec
 * total energy  :   -70.3170491 Eh     change       -0.1264210E-03 Eh
   gradient norm :     0.0100363 Eh/α   predicted    -0.1121072E-03 ( -11.32%)
   displ. norm   :     0.1165024 α      lambda       -0.2332019E-03
   maximum displ.:     0.0460094 α      in ANC's #3, #10, #1, ...

........................................................................
.............................. CYCLE   30 ..............................
........................................................................

 iter      E             dE          RMSdq      gap      omega  full diag
   1    -71.2447162 -0.712447E+02  0.372E-02    3.05       0.0  T
   2    -71.2447177 -0.153179E-05  0.211E-02    3.05       1.0  T
   3    -71.2447163  0.143415E-05  0.714E-03    3.05       2.1  T
   4    -71.2447180 -0.178561E-05  0.244E-03    3.05       6.2  T
   5    -71.2447182 -0.143825E-06  0.863E-04    3.05      17.7  T
   6    -71.2447182 -0.229764E-08  0.393E-04    3.05      38.8  T
     SCC iter.                  ...        0 min,  0.041 sec
     gradient                   ...        0 min,  0.028 sec
 * total energy  :   -70.3172145 Eh     change       -0.1654672E-03 Eh
   gradient norm :     0.0064566 Eh/α   predicted    -0.1181865E-03 ( -28.57%)
   displ. norm   :     0.2275424 α      lambda       -0.2061614E-03
   maximum displ.:     0.0864728 α      in ANC's #3, #14, #1, ...

........................................................................
.............................. CYCLE   31 ..............................
........................................................................

 iter      E             dE          RMSdq      gap      omega  full diag
   1    -71.2440435 -0.712440E+02  0.521E-02    3.04       0.0  T
   2    -71.2440447 -0.128073E-05  0.303E-02    3.04       1.0  T
   3    -71.2440434  0.137194E-05  0.681E-03    3.04       2.2  T
   4    -71.2440450 -0.166670E-05  0.267E-03    3.05       5.7  T
   5    -71.2440452 -0.175074E-06  0.881E-04    3.04      17.3  T
   6    -71.2440452 -0.849980E-08  0.394E-04    3.04      38.7  T
     SCC iter.                  ...        0 min,  0.014 sec
     gradient                   ...        0 min,  0.049 sec
 * total energy  :   -70.3173506 Eh     change       -0.1360731E-03 Eh
   gradient norm :     0.0062582 Eh/α   predicted    -0.1084180E-03 ( -20.32%)
   displ. norm   :     0.1788189 α      lambda       -0.1523958E-03
   maximum displ.:     0.0810532 α      in ANC's #3, #1, #10, ...

........................................................................
.............................. CYCLE   32 ..............................
........................................................................

 iter      E             dE          RMSdq      gap      omega  full diag
   1    -71.2454144 -0.712454E+02  0.405E-02    3.04       0.0  T
   2    -71.2454159 -0.151219E-05  0.236E-02    3.04       1.0  T
   3    -71.2454154  0.534454E-06  0.577E-03    3.04       2.6  T
   4    -71.2454161 -0.686002E-06  0.217E-03    3.04       7.0  T
   5    -71.2454162 -0.145055E-06  0.878E-04    3.04      17.4  T
   6    -71.2454162 -0.644346E-08  0.345E-04    3.04      44.2  T
     SCC iter.                  ...        0 min,  0.014 sec
     gradient                   ...        0 min,  0.068 sec
 * total energy  :   -70.3174526 Eh     change       -0.1020302E-03 Eh
   gradient norm :     0.0039588 Eh/α   predicted    -0.7863742E-04 ( -22.93%)
   displ. norm   :     0.3526425 α      lambda       -0.1509998E-03
   maximum displ.:     0.1405741 α      in ANC's #3, #1, #14, ...

........................................................................
.............................. CYCLE   33 ..............................
........................................................................

 iter      E             dE          RMSdq      gap      omega  full diag
   1    -71.2430988 -0.712431E+02  0.709E-02    3.03       0.0  T
   2    -71.2431008 -0.201775E-05  0.420E-02    3.03       1.0  T
   3    -71.2430990  0.182480E-05  0.823E-03    3.04       1.9  T
   4    -71.2431013 -0.233584E-05  0.272E-03    3.03       5.6  T
   5    -71.2431015 -0.144337E-06  0.114E-03    3.03      13.4  T
   6    -71.2431015 -0.778097E-08  0.470E-04    3.03      32.5  T
   7    -71.2431015 -0.300439E-08  0.217E-04    3.03      70.4  T
     SCC iter.                  ...        0 min,  0.016 sec
     gradient                   ...        0 min,  0.028 sec
 * total energy  :   -70.3174832 Eh     change       -0.3057053E-04 Eh
   gradient norm :     0.0080827 Eh/α   predicted    -0.8489027E-04 ( 177.69%)
   displ. norm   :     0.0681596 α      lambda       -0.1772322E-03
   maximum displ.:     0.0342844 α      in ANC's #14, #17, #10, ...

........................................................................
.............................. CYCLE   34 ..............................
........................................................................

 iter      E             dE          RMSdq      gap      omega  full diag
   1    -71.2465722 -0.712466E+02  0.251E-02    3.04       0.0  T
   2    -71.2465740 -0.176377E-05  0.141E-02    3.04       1.1  T
   3    -71.2465739  0.843800E-07  0.465E-03    3.04       3.3  T
   4    -71.2465741 -0.190351E-06  0.159E-03    3.04       9.6  T
   5    -71.2465742 -0.819298E-07  0.646E-04    3.04      23.6  T
   6    -71.2465742 -0.254668E-08  0.243E-04    3.04      62.8  T
     SCC iter.                  ...        0 min,  0.037 sec
     gradient                   ...        0 min,  0.027 sec
 * total energy  :   -70.3175711 Eh     change       -0.8786996E-04 Eh
   gradient norm :     0.0025185 Eh/α   predicted    -0.8902918E-04 (   1.32%)
   displ. norm   :     0.1186606 α      lambda       -0.3954281E-04
   maximum displ.:     0.0570255 α      in ANC's #1, #3, #8, ...

........................................................................
.............................. CYCLE   35 ..............................
........................................................................

 iter      E             dE          RMSdq      gap      omega  full diag
   1    -71.2468151 -0.712468E+02  0.227E-02    3.04       0.0  T
   2    -71.2468153 -0.179193E-06  0.134E-02    3.04       1.1  T
   3    -71.2468150  0.259692E-06  0.284E-03    3.04       5.4  T
   4    -71.2468153 -0.305346E-06  0.103E-03    3.04      14.8  T
   5    -71.2468154 -0.303953E-07  0.343E-04    3.04      44.4  T
   6    -71.2468154 -0.146918E-08  0.140E-04    3.04     108.8  T
     SCC iter.                  ...        0 min,  0.014 sec
     gradient                   ...        0 min,  0.067 sec
 * total energy  :   -70.3176042 Eh     change       -0.3308611E-04 Eh
   gradient norm :     0.0022712 Eh/α   predicted    -0.2005156E-04 ( -39.40%)
   displ. norm   :     0.3082782 α      lambda       -0.8246840E-04
   maximum displ.:     0.1489307 α      in ANC's #1, #3, #8, ...

........................................................................
.............................. CYCLE   36 ..............................
........................................................................

 iter      E             dE          RMSdq      gap      omega  full diag
   1    -71.2458170 -0.712458E+02  0.604E-02    3.04       0.0  T
   2    -71.2458181 -0.109614E-05  0.357E-02    3.04       1.0  T
   3    -71.2458163  0.185351E-05  0.729E-03    3.04       2.1  T
   4    -71.2458185 -0.226286E-05  0.267E-03    3.04       5.7  T
   5    -71.2458187 -0.138154E-06  0.768E-04    3.04      19.9  T
   6    -71.2458187 -0.119218E-07  0.369E-04    3.04      41.4  T
     SCC iter.                  ...        0 min,  0.014 sec
     gradient                   ...        0 min,  0.078 sec
 * total energy  :   -70.3176466 Eh     change       -0.4240811E-04 Eh
   gradient norm :     0.0033060 Eh/α   predicted    -0.4516193E-04 (   6.49%)
   displ. norm   :     0.0630621 α      lambda       -0.3575504E-04
   maximum displ.:     0.0382956 α      in ANC's #8, #1, #3, ...

........................................................................
.............................. CYCLE   37 ..............................
........................................................................

 iter      E             dE          RMSdq      gap      omega  full diag
   1    -71.2466597 -0.712467E+02  0.158E-02    3.04       0.0  T
   2    -71.2466599 -0.271853E-06  0.925E-03    3.04       1.6  T
   3    -71.2466598  0.186416E-06  0.260E-03    3.04       5.9  T
   4    -71.2466600 -0.239799E-06  0.811E-04    3.04      18.8  T
   5    -71.2466600 -0.135954E-07  0.351E-04    3.04      43.5  T
     SCC iter.                  ...        0 min,  0.012 sec
     gradient                   ...        0 min,  0.062 sec
 * total energy  :   -70.3176684 Eh     change       -0.2180417E-04 Eh
   gradient norm :     0.0019431 Eh/α   predicted    -0.1794970E-04 ( -17.68%)
   displ. norm   :     0.1653667 α      lambda       -0.1912688E-04
   maximum displ.:     0.0887409 α      in ANC's #1, #8, #3, ...

........................................................................
.............................. CYCLE   38 ..............................
........................................................................

 iter      E             dE          RMSdq      gap      omega  full diag
   1    -71.2465753 -0.712466E+02  0.321E-02    3.04       0.0  T
   2    -71.2465757 -0.399955E-06  0.191E-02    3.04       1.0  T
   3    -71.2465753  0.390077E-06  0.372E-03    3.04       4.1  T
   4    -71.2465759 -0.543797E-06  0.129E-03    3.04      11.8  T
   5    -71.2465759 -0.112120E-07  0.452E-04    3.04      33.8  T
   6    -71.2465759 -0.464004E-08  0.170E-04    3.04      89.5  T
     SCC iter.                  ...        0 min,  0.014 sec
     gradient                   ...        0 min,  0.027 sec
 * total energy  :   -70.3176873 Eh     change       -0.1891009E-04 Eh
   gradient norm :     0.0014902 Eh/α   predicted    -0.9677162E-05 ( -48.83%)
   displ. norm   :     0.1630330 α      lambda        0.1872270E-05
   maximum displ.:     0.0874673 α      in ANC's #1, #8, #3, ...

........................................................................
.............................. CYCLE   39 ..............................
........................................................................

 iter      E             dE          RMSdq      gap      omega  full diag
   1    -71.2460537 -0.712461E+02  0.317E-02    3.04       0.0  T
   2    -71.2460540 -0.378927E-06  0.189E-02    3.04       1.0  T
   3    -71.2460537  0.379228E-06  0.364E-03    3.04       4.2  T
   4    -71.2460542 -0.526751E-06  0.129E-03    3.04      11.8  T
   5    -71.2460542 -0.118144E-07  0.449E-04    3.04      34.0  T
   6    -71.2460542 -0.478612E-08  0.171E-04    3.04      89.2  T
     SCC iter.                  ...        0 min,  0.014 sec
     gradient                   ...        0 min,  0.028 sec
 * total energy  :   -70.3176860 Eh     change        0.1267843E-05 Eh
   gradient norm :     0.0029275 Eh/α   predicted     0.9456961E-06 ( -25.41%)
   displ. norm   :     0.0315474 α      lambda       -0.1962241E-04
   maximum displ.:     0.0151875 α      in ANC's #11, #12, #3, ...

........................................................................
.............................. CYCLE   40 ..............................
........................................................................

 iter      E             dE          RMSdq      gap      omega  full diag
   1    -71.2465722 -0.712466E+02  0.889E-03    3.04       0.0  T
   2    -71.2465723 -0.437345E-07  0.518E-03    3.04       2.9  T
   3    -71.2465722  0.103414E-06  0.178E-03    3.04       8.5  T
   4    -71.2465723 -0.127518E-06  0.454E-04    3.04      33.6  T
   5    -71.2465723 -0.373298E-08  0.180E-04    3.04      84.6  T
     SCC iter.                  ...        0 min,  0.012 sec
     gradient                   ...        0 min,  0.027 sec
 * total energy  :   -70.3177006 Eh     change       -0.1463408E-04 Eh
   gradient norm :     0.0019172 Eh/α   predicted    -0.9828432E-05 ( -32.84%)
   displ. norm   :     0.0956259 α      lambda       -0.2732288E-04
   maximum displ.:     0.0461770 α      in ANC's #11, #7, #2, ...

........................................................................
.............................. CYCLE   41 ..............................
........................................................................

 iter      E             dE          RMSdq      gap      omega  full diag
   1    -71.2469155 -0.712469E+02  0.232E-02    3.04       0.0  T
   2    -71.2469159 -0.337410E-06  0.138E-02    3.04       1.1  T
   3    -71.2469148  0.103047E-05  0.546E-03    3.04       2.8  T
   4    -71.2469161 -0.126015E-05  0.893E-04    3.04      17.1  T
   5    -71.2469161 -0.306767E-08  0.486E-04    3.04      31.4  T
   6    -71.2469161 -0.220787E-08  0.188E-04    3.04      81.3  T
     SCC iter.                  ...        0 min,  0.056 sec
     gradient                   ...        0 min,  0.028 sec
 * total energy  :   -70.3177151 Eh     change       -0.1443588E-04 Eh
   gradient norm :     0.0025840 Eh/α   predicted    -0.1372753E-04 (  -4.91%)
   displ. norm   :     0.0563340 α      lambda       -0.1820348E-04
   maximum displ.:     0.0305851 α      in ANC's #11, #8, #1, ...

........................................................................
.............................. CYCLE   42 ..............................
........................................................................

 iter      E             dE          RMSdq      gap      omega  full diag
   1    -71.2472531 -0.712473E+02  0.106E-02    3.04       0.0  T
   2    -71.2472532 -0.838529E-07  0.634E-03    3.04       2.4  T
   3    -71.2472532  0.369531E-07  0.126E-03    3.04      12.1  T
   4    -71.2472532 -0.496320E-07  0.439E-04    3.04      34.7  T
   5    -71.2472533 -0.575749E-08  0.197E-04    3.04      77.6  T
     SCC iter.                  ...        0 min,  0.051 sec
     gradient                   ...        0 min,  0.028 sec
 * total energy  :   -70.3177270 Eh     change       -0.1188032E-04 Eh
   gradient norm :     0.0017250 Eh/α   predicted    -0.9137212E-05 ( -23.09%)
   displ. norm   :     0.1674850 α      lambda       -0.1750219E-04
   maximum displ.:     0.0961476 α      in ANC's #1, #8, #2, ...
 * RMSD in coord.:     0.4628168 α      energy gain  -0.2727587E-02 Eh

generating ANC from exact Hessian ...
Using Lindh-Hessian (1995)
 Shifting diagonal of input Hessian by    9.8481917031806848E-003
 Lowest  eigenvalues of input Hessian
    0.000000    0.000000    0.000000    0.000000    0.000000    0.000000
    0.010000    0.010157    0.010387    0.011116    0.011325    0.012278
    0.012851    0.013177    0.014044    0.015602    0.015785    0.015870
 Highest eigenvalues
    2.053929    2.073014    2.150534    2.151298    2.255180    2.463818


........................................................................
.............................. CYCLE   43 ..............................
........................................................................

 iter      E             dE          RMSdq      gap      omega  full diag
   1    -71.2463465 -0.712463E+02  0.315E-02    3.04       0.0  T
   2    -71.2463469 -0.428002E-06  0.188E-02    3.04       1.0  T
   3    -71.2463461  0.789582E-06  0.451E-03    3.04       3.4  T
   4    -71.2463471 -0.975363E-06  0.131E-03    3.04      11.7  T
   5    -71.2463471 -0.194876E-07  0.448E-04    3.04      34.1  T
   6    -71.2463471 -0.271993E-08  0.200E-04    3.04      76.2  T
     SCC iter.                  ...        0 min,  0.053 sec
     gradient                   ...        0 min,  0.029 sec
 * total energy  :   -70.3177405 Eh     change       -0.1349508E-04 Eh
   gradient norm :     0.0021942 Eh/α   predicted     0.0000000E+00 (-100.00%)
   displ. norm   :     0.0140662 α      lambda       -0.1196104E-04
   maximum displ.:     0.0083878 α      in ANC's #1, #2, #14, ...

........................................................................
.............................. CYCLE   44 ..............................
........................................................................

 iter      E             dE          RMSdq      gap      omega  full diag
   1    -71.2465653 -0.712466E+02  0.564E-03    3.04       0.0  T
   2    -71.2465654 -0.543273E-07  0.325E-03    3.04       4.7  T
   3    -71.2465654  0.180634E-08  0.878E-04    3.04      17.4  T
   4    -71.2465654 -0.750215E-08  0.284E-04    3.04      53.6  T
     SCC iter.                  ...        0 min,  0.060 sec
     gradient                   ...        0 min,  0.029 sec
 * total energy  :   -70.3177486 Eh     change       -0.8120678E-05 Eh
   gradient norm :     0.0006348 Eh/α   predicted    -0.6040192E-05 ( -25.62%)
   displ. norm   :     0.0309037 α      lambda       -0.4672412E-05
   maximum displ.:     0.0203642 α      in ANC's #1, #2, #17, ...

........................................................................
.............................. CYCLE   45 ..............................
........................................................................

 iter      E             dE          RMSdq      gap      omega  full diag
   1    -71.2467523 -0.712468E+02  0.715E-03    3.04       0.0  T
   2    -71.2467524 -0.629234E-07  0.414E-03    3.04       3.7  T
   3    -71.2467523  0.885044E-08  0.115E-03    3.04      13.3  T
   4    -71.2467524 -0.171574E-07  0.351E-04    3.04      43.4  T
   5    -71.2467524 -0.296281E-08  0.154E-04    3.04      98.8  T
     SCC iter.                  ...        0 min,  0.012 sec
     gradient                   ...        0 min,  0.061 sec
 * total energy  :   -70.3177528 Eh     change       -0.4267811E-05 Eh
   gradient norm :     0.0008674 Eh/α   predicted    -0.2337904E-05 ( -45.22%)
   displ. norm   :     0.0336991 α      lambda       -0.3245882E-05
   maximum displ.:     0.0221763 α      in ANC's #1, #2, #17, ...

   *** GEOMETRY OPTIMIZATION CONVERGED AFTER 45 ITERATIONS ***

------------------------------------------------------------------------
 total energy gain   :        -0.0167083 Eh      -10.4846 kcal/mol
 total RMSD          :         0.8938850 a0        0.4730 Å
 total power (kW/mol):        -0.9748377 (step)  -11.9922 (real)
------------------------------------------------------------------------

 ANCopt (total)                0 d,  0 h,  0 min,  3.658 sec
 optimizer setup                ...        0 min,  0.000 sec (  0.002%)
 model hessian                  ...        0 min,  0.039 sec (  1.069%)
 ANC generation                 ...        0 min,  0.005 sec (  0.125%)
 coordinate transformation      ...        0 min,  0.000 sec (  0.009%)
 single point calculation       ...        0 min,  3.589 sec ( 98.110%)
 optimization log               ...        0 min,  0.006 sec (  0.166%)
 hessian update                 ...        0 min,  0.001 sec (  0.016%)
 rational function              ...        0 min,  0.005 sec (  0.139%)

================
 final structure:
================
43
 xtb: 6.7.1 (edcfbbe)
C           -2.44137817136987        2.27271995816249        1.27820363163714
C           -2.11667986533299        1.04681131953548        0.48383406525534
C           -2.93388272118509       -0.08753411758859        0.51290650909195
O           -4.07745913023047       -0.09382519751403        1.29286973783384
C           -5.21372620188648        0.43449392028984        0.64299210970170
C           -2.57680970553086       -1.23421119984590       -0.20177865414940
C           -3.41006019480486       -2.47543122245118       -0.12875299945998
C           -0.97936064987488        0.97823164413235       -0.31039629457324
N           -0.64509370515360       -0.08048866391038       -1.01805231688554
C           -1.40882902525960       -1.16464130903510       -0.96830217406872
C           -0.88754730972548       -2.33019795406747       -1.72739648997282
S            0.23253918046269       -3.34570051827682       -0.61346252333627
C            1.34466658155576       -1.97576101754235       -0.29486702620247
N            2.25811185285360       -1.51162689956166       -1.09435087130397
C            2.81697837942875       -0.45923510381157       -0.41541969661368
C            2.19577146008994       -0.32691223666614        0.84956836493500
N            1.26502861833263       -1.33123671578202        0.89713933028246
C            2.56802987426981        0.67276032184556        1.73546351277198
C            3.56856598462171        1.52604502066984        1.33341873122554
C            4.19894761535886        1.40205637101944        0.07946135007440
O            5.17200296110677        2.33032817829711       -0.15645310241794
C            5.85732709126483        2.27762576875690       -1.38342523806430
C            3.83146688486426        0.40868864000243       -0.80986040391694
O           -0.47296283747114       -3.50156618572040        0.66632052364019
H           -1.52772335899035        2.74509443389167        1.63205203447087
H           -2.97544424998222        2.99656024842298        0.66124622403328
H           -3.06721348736709        2.01427472294231        2.12938338485154
H           -5.47116236964220       -0.14994501806420       -0.24677193606812
H           -6.02819554568902        0.37718571597600        1.36246602343235
H           -5.06130452584480        1.47703213056192        0.34740189768910
H           -2.79445813618029       -3.31289947272083        0.19192650766233
H           -3.84288934879248       -2.71033741009075       -1.10243745839637
H           -4.21103291842061       -2.34072898574228        0.59363986183591
H           -0.29786258410112        1.81636955398805       -0.37699811341891
H           -0.23894209504779       -2.01085773675887       -2.53852949808756
H           -1.66528000323440       -3.00327122411119       -2.07771880062124
H            0.60724466785774       -1.56414832161554        1.62445473828395
H            2.09394156660533        0.77950279099575        2.69892726768519
H            3.90288049028983        2.32456431548540        1.97653153190471
H            6.39170045283914        1.32974551994426       -1.50432466619765
H            6.57571217653019        3.09551774322486       -1.35549075680642
H            5.17748148616934        2.42058967354458       -2.22954545327414
H            4.28680081658305        0.28445851921383       -1.77707286444560

 Bond Distances (Angstroems)
 ---------------------------
C1-C2=1.4964         C1-H25=1.0877        C1-H26=1.0908        C1-H27=1.0876        C2-C1=1.4964         C2-C3=1.3984         
C2-C8=1.3889         C3-C2=1.3984         C3-O4=1.3843         C3-C6=1.3975         O4-C3=1.3843         O4-C5=1.4116         
C5-O4=1.4116         C5-H28=1.0952        C5-H29=1.0882        C5-H30=1.0943        C6-C3=1.3975         C6-C7=1.4968         
C6-C10=1.3988        C7-C6=1.4968         C7-H31=1.0877        C7-H32=1.0911        C7-H33=1.0870        C8-C2=1.3889         
C8-N9=1.3166         C8-H34=1.0823        N9-C8=1.3166         N9-C10=1.3271        C10-C6=1.3988        C10-N9=1.3271        
C10-C11=1.4854       C11-C10=1.4854       C11-S12=1.8779       C11-H35=1.0866       C11-H36=1.0866       S12-C11=1.8779       
S12-C13=1.7931       S12-O24=1.4697       C13-S12=1.7931       C13-N14=1.2996       C13-N17=1.3574       N14-C13=1.2996       
N14-C15=1.3714       C15-N14=1.3714       C15-C16=1.4155       C15-C23=1.3921       C16-C15=1.4155       C16-N17=1.3701       
C16-C18=1.3866       N17-C13=1.3574       N17-C16=1.3701       N17-H37=1.0079       C18-C16=1.3866       C18-C19=1.3751       
C18-H38=1.0791       C19-C18=1.3751       C19-C20=1.4090       C19-H39=1.0784       C20-C19=1.4090       C20-O21=1.3654       
C20-C23=1.3830       O21-C20=1.3654       O21-C22=1.4064       C22-O21=1.4064       C22-H40=1.0948       C22-H41=1.0889       
C22-H42=1.0948       C23-C15=1.3921       C23-C20=1.3830       C23-H43=1.0762       O24-S12=1.4697       H25-C1=1.0877        
H26-C1=1.0908        H27-C1=1.0876        H28-C5=1.0952        H29-C5=1.0882        H30-C5=1.0943        H31-C7=1.0877        
H32-C7=1.0911        H33-C7=1.0870        H34-C8=1.0823        H35-C11=1.0866       H36-C11=1.0866       H37-N17=1.0079       
H38-C18=1.0791       H39-C19=1.0784       H40-C22=1.0948       H41-C22=1.0889       H42-C22=1.0948       H43-C23=1.0762       
 C  H  Rav=1.0876 sigma=0.0055  Rmin=1.0762  Rmax=1.0952    18
 C  C  Rav=1.4172 sigma=0.0427  Rmin=1.3751  Rmax=1.4968    13
 N  H  Rav=1.0079 sigma=0.0000  Rmin=1.0079  Rmax=1.0079     1
 N  C  Rav=1.3404 sigma=0.0275  Rmin=1.2996  Rmax=1.3714     6
 O  C  Rav=1.3919 sigma=0.0184  Rmin=1.3654  Rmax=1.4116     4
 S  C  Rav=1.8355 sigma=0.0424  Rmin=1.7931  Rmax=1.8779     2
 S  O  Rav=1.4697 sigma=0.0000  Rmin=1.4697  Rmax=1.4697     1

 selected bond angles (degree)
 --------------------
H25-C1-C2=110.26               H26-C1-C2=110.46               H26-C1-H25=107.88              H27-C1-C2=110.22               
H27-C1-H25=109.39              H27-C1-H26=108.58              C3-C2-C1=121.78                C8-C2-C1=121.45                
C8-C2-C3=116.77                O4-C3-C2=119.88                C6-C3-C2=120.37                C6-C3-O4=119.70                
C5-O4-C3=113.82                H28-C5-O4=111.32               H29-C5-O4=106.16               H29-C5-H28=109.46              
H30-C5-O4=111.64               H30-C5-H28=108.76              H30-C5-H29=109.45              C7-C6-C3=120.88                
C10-C6-C3=116.92               C10-C6-C7=122.20               H31-C7-C6=109.74               H32-C7-C6=110.84               
H32-C7-H31=108.77              H33-C7-C6=109.87               H33-C7-H31=108.45              H33-C7-H32=109.11              
N9-C8-C2=123.71                H34-C8-C2=120.84               H34-C8-N9=115.45               C10-N9-C8=119.38               
N9-C10-C6=122.80               C11-C10-C6=122.28              C11-C10-N9=114.83              

 selected dihedral angles (degree)
 ---------------------------------
C3-C2-C1-H25=145.10           C3-C2-C1-H26=264.25           C3-C2-C1-H27= 24.24           C8-C2-C1-H25=325.67           
C8-C2-C1-H26= 84.82           C8-C2-C1-H27=204.81           O4-C3-C2-C1=359.96            O4-C3-C2-C8=179.41            
C6-C3-C2-C1=182.37            C6-C3-C2-C8=  1.83            C5-O4-C3-C2= 86.82            C5-O4-C3-C6=264.43            
H28-C5-O4-C3= 61.40           H29-C5-O4-C3=180.43           H30-C5-O4-C3=299.64           C7-C6-C3-C2=177.17            
C7-C6-C3-O4=359.58            C10-C6-C3-C2=357.74           C10-C6-C3-O4=180.15           H31-C7-C6-C3=235.96           
H31-C7-C6-C10= 55.36          H32-C7-C6-C3=115.79           H32-C7-C6-C10=295.20          H33-C7-C6-C3=355.12           
H33-C7-C6-C10=174.52          N9-C8-C2-C1=179.41            N9-C8-C2-C3=359.96            H34-C8-C2-C1=359.79           
H34-C8-C2-C3=180.33           C10-N9-C8-C2=358.75           C10-N9-C8-H34=178.39          N9-C10-C6-C3=  0.98           
N9-C10-C6-C7=181.55           C11-C10-C6-C3=177.32          C11-C10-C6-C7=357.89          C6-C10-N9-C8=  0.75           
C11-C10-N9-C8=184.16          
           -------------------------------------------------
          |                Final Singlepoint                |
           -------------------------------------------------

          ...................................................
          :                      SETUP                      :
          :.................................................:
          :  # basis functions                 121          :
          :  # atomic orbitals                 120          :
          :  # shells                           68          :
          :  # electrons                       126          :
          :  max. iterations                   250          :
          :  Hamiltonian                  GFN2-xTB          :
          :  restarted?                      false          :
          :  GBSA solvation                  false          :
          :  PC potential                    false          :
          :  electronic temp.          300.0000000     K    :
          :  accuracy                    1.0000000          :
          :  -> integral cutoff          0.2500000E+02      :
          :  -> integral neglect         0.1000000E-07      :
          :  -> SCF convergence          0.1000000E-05 Eh   :
          :  -> wf. convergence          0.1000000E-03 e    :
          :  Broyden damping             0.4000000          :
          :  net charge                          0          :
          :  unpaired electrons                  0          :
          ...................................................

 iter      E             dE          RMSdq      gap      omega  full diag
   1    -71.2467524 -0.712468E+02  0.593E-05    3.04       0.0  T
   2    -71.2467524 -0.263185E-10  0.371E-05    3.04     411.2  T
   3    -71.2467524 -0.138130E-10  0.236E-05    3.04     645.3  T

   *** convergence criteria satisfied after 3 iterations ***

         #    Occupation            Energy/Eh            Energy/eV
      -------------------------------------------------------------
         1        2.0000           -0.7603055             -20.6890
       ...           ...                  ...                  ...
        57        2.0000           -0.4104135             -11.1679
        58        2.0000           -0.4041156             -10.9965
        59        2.0000           -0.3938730             -10.7178
        60        2.0000           -0.3862837             -10.5113
        61        2.0000           -0.3839968             -10.4491
        62        2.0000           -0.3736235             -10.1668
        63        2.0000           -0.3705997             -10.0845 (HOMO)
        64                         -0.2587967              -7.0422 (LUMO)
        65                         -0.2433083              -6.6208
        66                         -0.2386783              -6.4948
        67                         -0.2022845              -5.5044
        68                         -0.1990116              -5.4154
       ...                                ...                  ...
       120                          0.8975219              24.4228
      -------------------------------------------------------------
                  HL-Gap            0.1118030 Eh            3.0423 eV
             Fermi-level           -0.3146982 Eh           -8.5634 eV

 SCC (total)                   0 d,  0 h,  0 min,  0.089 sec
 SCC setup                      ...        0 min,  0.000 sec (  0.360%)
 Dispersion                     ...        0 min,  0.000 sec (  0.361%)
 classical contributions        ...        0 min,  0.000 sec (  0.165%)
 integral evaluation            ...        0 min,  0.009 sec (  9.794%)
 iterations                     ...        0 min,  0.007 sec (  8.023%)
 molecular gradient             ...        0 min,  0.072 sec ( 81.116%)
 printout                       ...        0 min,  0.000 sec (  0.173%)

         :::::::::::::::::::::::::::::::::::::::::::::::::::::
         ::                     SUMMARY                     ::
         :::::::::::::::::::::::::::::::::::::::::::::::::::::
         :: total energy             -70.317752845672 Eh    ::
         :: gradient norm              0.000867348600 Eh/a0 ::
         :: HOMO-LUMO gap              3.042314520427 eV    ::
         ::.................................................::
         :: SCC energy               -71.245990633150 Eh    ::
         :: -> isotropic ES            0.093240341643 Eh    ::
         :: -> anisotropic ES          0.005005799331 Eh    ::
         :: -> anisotropic XC          0.029094955446 Eh    ::
         :: -> dispersion             -0.052084793117 Eh    ::
         :: repulsion energy           0.928237787478 Eh    ::
         :: add. restraining           0.000000000000 Eh    ::
         :: total charge              -0.000000000000 e     ::
         :::::::::::::::::::::::::::::::::::::::::::::::::::::

           -------------------------------------------------
          |                Property Printout                |
           -------------------------------------------------

    * Orbital Energies and Occupations

         #    Occupation            Energy/Eh            Energy/eV
      -------------------------------------------------------------
         1        2.0000           -0.7603055             -20.6890
       ...           ...                  ...                  ...
        51        2.0000           -0.4501666             -12.2497
        52        2.0000           -0.4481691             -12.1953
        53        2.0000           -0.4370922             -11.8939
        54        2.0000           -0.4325390             -11.7700
[...]
   * S. Ehlert, M. Stahn, S. Spicher, S. Grimme, J. Chem. Theory Comput.,
     2021, 17, 4250-4261. DOI: 10.1021/acs.jctc.1c00471
   
   for ddCOSMO and CPCM-X implicit solvation:
   * M. Stahn, S. Ehlert, S. Grimme, J. Phys. Chem. A,
     2023, XX, XXXX-XXXX. DOI: 10.1021/acs.jpca.3c04382
   
   for DFT-D4:
   * E. Caldeweyher, C. Bannwarth and S. Grimme, J. Chem. Phys., 2017,
     147, 034112. DOI: 10.1063/1.4993215
   * E. Caldeweyher, S. Ehlert, A. Hansen, H. Neugebauer, S. Spicher,
     C. Bannwarth and S. Grimme, J. Chem. Phys., 2019, 150, 154122.
     DOI: 10.1063/1.5090222
   * E. Caldeweyher, J.-M. Mewes, S. Ehlert and S. Grimme, Phys. Chem. Chem. Phys.
     2020, 22, 8499-8512. DOI: 10.1039/D0CP00502A
   
   for sTDA-xTB:
   * S. Grimme and C. Bannwarth, J. Chem. Phys., 2016, 145, 054103.
     DOI: 10.1063/1.4959605
   
   in the mass-spec context:
   * V. Asgeirsson, C. Bauer and S. Grimme, Chem. Sci., 2017, 8, 4879.
     DOI: 10.1039/c7sc00601b
   * J. Koopman and S. Grimme, ACS Omega 2019, 4, 12, 15120-15133.
     DOI: 10.1021/acsomega.9b02011
   
   for metadynamics refer to:
   * S. Grimme, J. Chem. Theory Comput., 2019, 155, 2847-2862
     DOI: 10.1021/acs.jctc.9b00143
   
   for SPH calculations refer to:
   * S. Spicher and S. Grimme, J. Chem. Theory Comput., 2021, 17, 1701-1714
     DOI: 10.1021/acs.jctc.0c01306
   
   for ONIOM refer to:
   * C. Plett, A. Katbashev, S. Ehlert, S. Grimme, M. Bursch,
     Phys. Chem. Chem. Phys., 2023, 25, 17860-17868. DOI: 10.1039/D3CP02178E
   
   for DIPRO refer to:
   * J. Kohn, N. Gildemeister, S. Grimme, D. Fazzi, A. Hansen,
     J. Chem. Phys., 2023, just accepted.
   
   for PTB refer to:
   * S. Grimme, M. Mueller, A. Hansen, J. Chem. Phys., 2023, 158, 124111.
     DOI: 10.1063/5.0137838
   
   with help from (in alphabetical order)
   P. Atkinson, C. Bannwarth, F. Bohle, G. Brandenburg, E. Caldeweyher
   M. Checinski, S. Dohm, S. Ehlert, S. Ehrlich, I. Gerasimov, C. Hölzer
   A. Katbashev, J. Kohn, J. Koopman, C. Lavigne, S. Lehtola, F. März, M. Müller,
   F. Musil, H. Neugebauer, J. Pisarek, C. Plett, P. Pracht, F. Pultar,
   J. Seibert, P. Shushkov, S. Spicher, M. Stahn, M. Steiner, T. Strunk,
   J. Stückrath, T. Rose, and J. Unsleber
   
 * started run on 2025/05/15 at 16:25:53.393     
   ID    Z sym.   atoms
    1    6 C      1-3, 5-8, 10, 11, 13, 15, 16, 18-20, 22, 23
    2    8 O      4, 21, 24
    3    7 N      9, 14, 17
    4   16 S      12
    5    1 H      25-43

           -------------------------------------------------
          |                Calculation Setup                |
           -------------------------------------------------

          program call               : xtb /rds/general/user/hgt20/home/callum/QDESCP/Omeprazole_rdkit_conf_15/Omeprazole_rdkit_conf_15.xyz --acc 1 --gfn 2 --chrg 0 --uhf 2 --etemp 300 --input /rds/general/user/hgt20/home/callum/QDESCP/Omeprazole_rdkit_conf_15/Omeprazole_rdkit_conf_15_xtb.inp -P 1
          hostname                   : login-c
          coordinate file            : /rds/general/user/hgt20/home/callum/QDESCP/Omeprazole_rdkit_conf_15/Omeprazole_rdkit_conf_15.xyz
          omp threads                :                     1


           -------------------------------------------------
          |                 G F N 2 - x T B                 |
           -------------------------------------------------

        Reference                      10.1021/acs.jctc.8b01176
      * Hamiltonian:
        H0-scaling (s, p, d)           1.850000    2.230000    2.230000
        zeta-weighting                 0.500000
      * Dispersion:
        s8                             2.700000
        a1                             0.520000
        a2                             5.000000
        s9                             5.000000
      * Repulsion:
        kExp                           1.500000    1.000000
        rExp                           1.000000
      * Coulomb:
        alpha                          2.000000
        third order                    shell-resolved
        anisotropic                    true
        a3                             3.000000
        a5                             4.000000
        cn-shift                       1.200000
        cn-exp                         4.000000
        max-rad                        5.000000


          ...................................................
          :                      SETUP                      :
          :.................................................:
          :  # basis functions                 121          :
          :  # atomic orbitals                 120          :
          :  # shells                           68          :
          :  # electrons                       126          :
          :  max. iterations                   250          :
          :  Hamiltonian                  GFN2-xTB          :
          :  restarted?                      false          :
          :  GBSA solvation                  false          :
          :  PC potential                    false          :
          :  electronic temp.          300.0000000     K    :
          :  accuracy                    1.0000000          :
          :  -> integral cutoff          0.2500000E+02      :
          :  -> integral neglect         0.1000000E-07      :
          :  -> SCF convergence          0.1000000E-05 Eh   :
          :  -> wf. convergence          0.1000000E-03 e    :
          :  Broyden damping             0.4000000          :
          :  net charge                          0          :
          :  unpaired electrons                  2          :
          ...................................................

 iter      E             dE          RMSdq      gap      omega  full diag
   1    -70.9541737 -0.709542E+02  0.421E+00    0.35       0.0  T
   2    -70.9234851  0.306886E-01  0.290E+00    0.48       1.0  T
   3    -70.8277526  0.957325E-01  0.229E+00    0.90       1.0  T
   4    -70.9951499 -0.167397E+00  0.137E+00    0.47       1.0  T
   5    -71.0166650 -0.215150E-01  0.119E+00    0.58       1.0  T
   6    -71.1183076 -0.101643E+00  0.580E-01    0.41       1.0  T
   7    -71.1121586  0.614902E-02  0.608E-01    0.40       1.0  T
   8    -71.1267923 -0.146337E-01  0.208E-01    0.42       1.0  T
   9    -71.1228662  0.392615E-02  0.271E-01    0.38       1.0  T
  10    -71.1254194 -0.255322E-02  0.191E-01    0.42       1.0  T
  11    -71.1195235  0.589586E-02  0.294E-01    0.39       1.0  T
  12    -71.1276244 -0.810093E-02  0.955E-02    0.40       1.0  T
  13    -71.1281924 -0.568000E-03  0.375E-02    0.40       1.0  T
  14    -71.1282588 -0.663468E-04  0.114E-02    0.39       1.3  T
  15    -71.1282512  0.759214E-05  0.125E-02    0.39       1.2  T
  16    -71.1282592 -0.805695E-05  0.696E-03    0.39       2.2  T
  17    -71.1282623 -0.309089E-05  0.322E-03    0.39       4.7  T
  18    -71.1282634 -0.103748E-05  0.953E-04    0.39      16.0  T
  19    -71.1282634 -0.485019E-07  0.245E-04    0.39      62.3  T
  20    -71.1282634 -0.224607E-08  0.121E-04    0.39     126.5  T

   *** convergence criteria satisfied after 20 iterations ***

         #    Occupation            Energy/Eh            Energy/eV
      -------------------------------------------------------------
         1        2.0000           -0.7530707             -20.4921
       ...           ...                  ...                  ...
        58        2.0000           -0.3995508             -10.8723
        59        2.0000           -0.3920200             -10.6674
        60        1.9971           -0.3834783             -10.4350
        61        1.9825           -0.3817737             -10.3886
        62        1.8572           -0.3796470             -10.3307
        63        1.1632           -0.3763920             -10.2421
        64        0.9995           -0.2530366              -6.8855 (HOMO)
        65        0.0005           -0.2386004              -6.4926 (LUMO)
        66        0.0000           -0.2335568              -6.3554
        67                         -0.2068295              -5.6281
        68                         -0.1969791              -5.3601
        69                         -0.1777496              -4.8368
       ...                                ...                  ...
       120                          0.9023279              24.5536
      -------------------------------------------------------------
                  HL-Gap            0.0144362 Eh            0.3928 eV
             Fermi-level           -0.3118827 Eh           -8.4868 eV

 transition dipole moment (au) for excitation:          63          64
     X       Y       Z   
   0.8354   0.3374   0.5391  total (au/Debye):    1.050   2.669
 dE (eV)             :    3.357
 oscillator strength :  0.12821E+00

 SCC (total)                   0 d,  0 h,  0 min,  0.184 sec
 SCC setup                      ...        0 min,  0.000 sec (  0.202%)
 Dispersion                     ...        0 min,  0.000 sec (  0.271%)
 classical contributions        ...        0 min,  0.000 sec (  0.084%)
 integral evaluation            ...        0 min,  0.009 sec (  4.976%)
 iterations                     ...        0 min,  0.099 sec ( 54.127%)
 molecular gradient             ...        0 min,  0.026 sec ( 14.295%)
 printout                       ...        0 min,  0.048 sec ( 26.040%)

         :::::::::::::::::::::::::::::::::::::::::::::::::::::
         ::                     SUMMARY                     ::
         :::::::::::::::::::::::::::::::::::::::::::::::::::::
         :: total energy             -70.199263901857 Eh    ::
         :: gradient norm              0.093360191045 Eh/a0 ::
         :: HOMO-LUMO gap              0.392828232763 eV    ::
         ::.................................................::
         :: SCC energy               -71.127501689335 Eh    ::
         :: -> isotropic ES            0.087933349272 Eh    ::
         :: -> anisotropic ES          0.004923710122 Eh    ::
         :: -> anisotropic XC          0.024319927101 Eh    ::
         :: -> dispersion             -0.052076209833 Eh    ::
         :: repulsion energy           0.928237787478 Eh    ::
         :: add. restraining           0.000000000000 Eh    ::
         :: total charge               0.000000000327 e     ::
         :::::::::::::::::::::::::::::::::::::::::::::::::::::

           -------------------------------------------------
          |                Property Printout                |
           -------------------------------------------------

    * Orbital Energies and Occupations

         #    Occupation            Energy/Eh            Energy/eV
      -------------------------------------------------------------
         1        2.0000           -0.7530707             -20.4921
       ...           ...                  ...                  ...
        52        2.0000           -0.4453602             -12.1189
        53        2.0000           -0.4423236             -12.0362
        54        2.0000           -0.4367937             -11.8858
        55        2.0000           -0.4204985             -11.4423
        56        2.0000           -0.4108506             -11.1798
        57        2.0000           -0.4043952             -11.0042
        58        2.0000           -0.3995508             -10.8723
        59        2.0000           -0.3920200             -10.6674
        60        1.9971           -0.3834783             -10.4350
        61        1.9825           -0.3817737             -10.3886
        62        1.8572           -0.3796470             -10.3307
        63        1.1632           -0.3763920             -10.2421
        64        0.9995           -0.2530366              -6.8855 (HOMO)
        65        0.0005           -0.2386004              -6.4926 (LUMO)
        66        0.0000           -0.2335568              -6.3554
        67                         -0.2068295              -5.6281
        68                         -0.1969791              -5.3601
        69                         -0.1777496              -4.8368
        70                         -0.1588191              -4.3217
        71                         -0.1095794              -2.9818
        72                         -0.0834675              -2.2713
        73                         -0.0493898              -1.3440
        74                          0.0148598               0.4044
        75                          0.0227409               0.6188
       ...                                ...                  ...
       120                          0.9023279              24.5536
      -------------------------------------------------------------
                  HL-Gap            0.0144362 Eh            0.3928 eV
             Fermi-level           -0.3118827 Eh           -8.4868 eV

     #   Z          covCN         q      C6AA      α(0)
     1   6 C        3.757    -0.101    22.481     6.760
     2   6 C        2.957    -0.024    28.603     8.772
     3   6 C        2.896     0.118    25.404     8.264
     4   8 O        1.703    -0.308    19.140     5.907
     5   6 C        3.656     0.046    20.079     6.432
     6   6 C        2.959    -0.007    28.200     8.710
     7   6 C        3.756    -0.108    22.614     6.780
     8   6 C        2.908     0.039    27.129     8.541
     9   7 N        1.844    -0.215    26.522     7.632
    10   6 C        2.995     0.063    26.574     8.456
    11   6 C        3.801    -0.085    22.128     6.697
    12  16 S        2.871     0.380   126.507    18.930
    13   6 C        3.220     0.104    25.040     8.136
    14   7 N        1.896    -0.292    28.428     7.905
    15   6 C        3.233     0.079    25.442     8.187
    16   6 C        3.107     0.059    26.550     8.442
    17   7 N        2.802    -0.112    23.445     7.191
    18   6 C        2.906    -0.063    29.570     8.916
    19   6 C        2.928    -0.060    29.493     8.906
    20   6 C        2.870     0.146    24.814     8.166
    21   8 O        1.706    -0.243    18.021     5.731
    22   6 C        3.645     0.031    20.385     6.489
    23   6 C        2.908    -0.091    30.272     9.022
    24   8 O        0.859    -0.476    23.262     6.467
    25   1 H        0.925     0.043     2.404     2.425
    26   1 H        0.924     0.045     2.389     2.417
    27   1 H        0.925     0.060     2.205     2.322
    28   1 H        0.924     0.030     2.588     2.516
    29   1 H        0.925     0.055     2.253     2.347
    30   1 H        0.924     0.031     2.575     2.510
    31   1 H        0.925     0.075     2.029     2.227
    32   1 H        0.924     0.041     2.438     2.442
    33   1 H        0.925     0.062     2.180     2.309
    34   1 H        0.925     0.042     2.426     2.436
    35   1 H        0.925     0.074     2.042     2.234
    36   1 H        0.925     0.064     2.158     2.297
    37   1 H        0.860     0.185     1.183     1.704
    38   1 H        0.926     0.038     2.472     2.459
    39   1 H        0.926     0.053     2.283     2.363
    40   1 H        0.924     0.052     2.293     2.368
    41   1 H        0.925     0.068     2.113     2.273
    42   1 H        0.924     0.052     2.294     2.369
    43   1 H        0.926     0.052     2.298     2.371

 Mol. C6AA /au·bohr⁶  :      23675.033210
 Mol. C8AA /au·bohr⁸  :     592224.067716
 Mol. α(0) /au        :        239.829478


Wiberg/Mayer (AO) data.
largest (>0.10) Wiberg bond orders for each atom

 ---------------------------------------------------------------------------
     #   Z sym  total        # sym  WBO       # sym  WBO       # sym  WBO
 ---------------------------------------------------------------------------
     1   6 C    3.988 --     2 C    1.024    27 H    0.979    25 H    0.979
                            26 H    0.965
     2   6 C    3.933 --     8 C    1.405     3 C    1.285     1 C    1.024
     3   6 C    3.889 --     6 C    1.391     2 C    1.285     4 O    0.994
     4   8 O    2.095 --     3 C    0.994     5 C    0.973
     5   6 C    3.945 --    29 H    0.979    28 H    0.979    30 H    0.978
                             4 O    0.973
     6   6 C    3.958 --     3 C    1.391    10 C    1.315     7 C    1.028
     7   6 C    3.986 --     6 C    1.028    33 H    0.977    32 H    0.967
                            31 H    0.963
     8   6 C    3.967 --     9 N    1.409     2 C    1.405    34 H    0.956
     9   7 N    3.130 --     8 C    1.409    10 C    1.297
    10   6 C    3.921 --     6 C    1.315     9 N    1.297    11 C    1.071
    11   6 C    3.937 --    10 C    1.071    35 H    0.967    36 H    0.964
                            12 S    0.750
    12  16 S    3.798 --    24 O    1.763    13 C    0.997    11 C    0.750
    13   6 C    3.890 --    14 N    1.439    17 N    1.136    12 S    0.997
    14   7 N    2.974 --    13 C    1.439    15 C    1.245
    15   6 C    3.951 --    23 C    1.314    14 N    1.245    16 C    1.187
    16   6 C    3.908 --    18 C    1.310    17 N    1.198    15 C    1.187
    17   7 N    3.520 --    16 C    1.198    13 C    1.136    37 H    0.933
    18   6 C    3.937 --    19 C    1.450    16 C    1.310    38 H    0.967
    19   6 C    3.884 --    18 C    1.450    20 C    1.268    39 H    0.968
    20   6 C    3.852 --    23 C    1.357    19 C    1.268    21 O    1.087
    21   8 O    2.213 --    20 C    1.087    22 C    0.985
    22   6 C    3.938 --    21 O    0.985    41 H    0.979    42 H    0.972
                            40 H    0.972
    23   6 C    3.881 --    20 C    1.357    15 C    1.314    43 H    0.963
    24   8 O    1.974 --    12 S    1.763
    25   1 H    0.996 --     1 C    0.979
    26   1 H    0.992 --     1 C    0.965
    27   1 H    0.994 --     1 C    0.979
    28   1 H    0.999 --     5 C    0.979
    29   1 H    0.995 --     5 C    0.979
    30   1 H    0.999 --     5 C    0.978
    31   1 H    0.993 --     7 C    0.963
    32   1 H    0.997 --     7 C    0.967
    33   1 H    0.993 --     7 C    0.977
    34   1 H    0.993 --     8 C    0.956
    35   1 H    0.994 --    11 C    0.967
    36   1 H    0.995 --    11 C    0.964
    37   1 H    0.965 --    17 N    0.933
    38   1 H    0.997 --    18 C    0.967
    39   1 H    0.997 --    19 C    0.968
    40   1 H    0.991 --    22 C    0.972
    41   1 H    0.995 --    22 C    0.979
    42   1 H    0.991 --    22 C    0.972
    43   1 H    0.997 --    23 C    0.963
 ---------------------------------------------------------------------------

Topologies differ in total number of bonds
Writing topology from bond orders to xtbtopo.mol

molecular dipole:
                 x           y           z       tot (Debye)
 q only:        0.247       0.860      -0.922
   full:       -0.260       1.276      -0.612       3.657
molecular quadrupole (traceless):
                xx          xy          yy          xz          yz          zz
 q only:       13.747       2.710      -8.169      -1.694       7.064      -5.579
  q+dip:       15.712       5.309     -11.075      -0.535       6.345      -4.637
   full:       16.520       3.260     -11.742       1.795       4.314      -4.778


           -------------------------------------------------
          | TOTAL ENERGY              -70.199263901857 Eh   |
          | GRADIENT NORM               0.093360191045 Eh/α |
          | HOMO-LUMO GAP               0.392828232763 eV   |
           -------------------------------------------------

------------------------------------------------------------------------
 * finished run on 2025/05/15 at 16:25:53.592     
------------------------------------------------------------------------
 total:
 * wall-time:     0 d,  0 h,  0 min,  0.198 sec
 *  cpu-time:     0 d,  0 h,  0 min,  0.107 sec
 * ratio c/w:     0.539 speedup
 SCF:
 * wall-time:     0 d,  0 h,  0 min,  0.184 sec
 *  cpu-time:     0 d,  0 h,  0 min,  0.093 sec
 * ratio c/w:     0.508 speedup


