43
 energy: -70.317752845672 gnorm: 0.000867348600 xtb: 6.7.1 (edcfbbe)
C           -2.44137817136987        2.27271995816249        1.27820363163714
C           -2.11667986533299        1.04681131953548        0.48383406525534
C           -2.93388272118509       -0.08753411758859        0.51290650909195
O           -4.07745913023047       -0.09382519751403        1.29286973783384
C           -5.21372620188648        0.43449392028984        0.64299210970170
C           -2.57680970553086       -1.23421119984590       -0.20177865414940
C           -3.41006019480486       -2.47543122245118       -0.12875299945998
C           -0.97936064987488        0.97823164413235       -0.31039629457324
N           -0.64509370515360       -0.08048866391038       -1.01805231688554
C           -1.40882902525960       -1.16464130903510       -0.96830217406872
C           -0.88754730972548       -2.33019795406747       -1.72739648997282
S            0.23253918046269       -3.34570051827682       -0.61346252333627
C            1.34466658155576       -1.97576101754235       -0.29486702620247
N            2.25811185285360       -1.51162689956166       -1.09435087130397
C            2.81697837942875       -0.45923510381157       -0.41541969661368
C            2.19577146008994       -0.32691223666614        0.84956836493500
N            1.26502861833263       -1.33123671578202        0.89713933028246
C            2.56802987426981        0.67276032184556        1.73546351277198
C            3.56856598462171        1.52604502066984        1.33341873122554
C            4.19894761535886        1.40205637101944        0.07946135007440
O            5.17200296110677        2.33032817829711       -0.15645310241794
C            5.85732709126483        2.27762576875690       -1.38342523806430
C            3.83146688486426        0.40868864000243       -0.80986040391694
O           -0.47296283747114       -3.50156618572040        0.66632052364019
H           -1.52772335899035        2.74509443389167        1.63205203447087
H           -2.97544424998222        2.99656024842298        0.66124622403328
H           -3.06721348736709        2.01427472294231        2.12938338485154
H           -5.47116236964220       -0.14994501806420       -0.24677193606812
H           -6.02819554568902        0.37718571597600        1.36246602343235
H           -5.06130452584480        1.47703213056192        0.34740189768910
H           -2.79445813618029       -3.31289947272083        0.19192650766233
H           -3.84288934879248       -2.71033741009075       -1.10243745839637
H           -4.21103291842061       -2.34072898574228        0.59363986183591
H           -0.29786258410112        1.81636955398805       -0.37699811341891
H           -0.23894209504779       -2.01085773675887       -2.53852949808756
H           -1.66528000323440       -3.00327122411119       -2.07771880062124
H            0.60724466785774       -1.56414832161554        1.62445473828395
H            2.09394156660533        0.77950279099575        2.69892726768519
H            3.90288049028983        2.32456431548540        1.97653153190471
H            6.39170045283914        1.32974551994426       -1.50432466619765
H            6.57571217653019        3.09551774322486       -1.35549075680642
H            5.17748148616934        2.42058967354458       -2.22954545327414
H            4.28680081658305        0.28445851921383       -1.77707286444560
