43
 energy: -70.311887749807 gnorm: 0.000472026837 xtb: 6.7.1 (edcfbbe)
C           -6.35267799698947       -0.98874590512174        1.30177464187162
C           -4.89696185741484       -0.89027291342330        0.96902945727595
C           -4.45260920426160       -0.35139999532717       -0.24189675910909
O           -5.36774422326037        0.10022492540083       -1.17678268493462
C           -5.76428948955551        1.44239316740514       -0.98147453290352
C           -3.08630020860846       -0.29663399733475       -0.52831975267888
C           -2.59576748200785        0.25494758962695       -1.83071646999828
C           -3.92055940659767       -1.33548953107517        1.85061510572418
N           -2.62726967594593       -1.26851737821565        1.61017690569598
C           -2.21042440111409       -0.77369050687271        0.45226726702820
C           -0.73124151890622       -0.70250576614909        0.29375766077798
S           -0.15015607263360        0.93140007919668        0.98282377563468
C            1.57798235971137        0.59765367485849        0.59568367045630
N            2.29858497208409       -0.39869437271002        1.01690955233374
C            3.54557900125726       -0.19055679904974        0.47908780470457
C            3.53509956789914        1.00201394280134       -0.29005401098074
N            2.25304380665478        1.48107853717860       -0.18678937173532
C            4.66866350823805        1.44544399335918       -0.94470617862358
C            5.81666528402090        0.68613404571527       -0.82406982680447
C            5.83989291356391       -0.49647207939834       -0.06914593124119
O            6.94613348258294       -1.28236247729504        0.07747762925682
C            8.14655866286702       -0.89725813006949       -0.54448034462110
C            4.70212202812641       -0.94581060297161        0.58934863828587
O           -0.49610876596239        1.97157789962888       -0.00013419324672
H           -6.66265374068581       -0.13759266423694        1.90956941690154
H           -6.94696835835520       -1.00047775121104        0.39097277369299
H           -6.54889066190244       -1.89496236698486        1.87042683701604
H           -6.26089339773363        1.57896163075661       -0.01545186774435
H           -4.90734851628666        2.12218634062225       -1.03676850366278
H           -6.46364563553783        1.67013330467258       -1.78422602105469
H           -3.43724268209296        0.51326459534592       -2.46744535837267
H           -1.98894213636352        1.14178403292837       -1.65581150649727
H           -1.98719171958111       -0.48373628743855       -2.35195901023455
H           -4.19591940371182       -1.76443675071632        2.80527607354533
H           -0.23667031079449       -1.44258297723743        0.91728322666461
H           -0.40425919953451       -0.76643932308945       -0.74004279483189
H            1.83964906684896        2.30054031000962       -0.60260943059442
H            4.66572708818063        2.35287388449474       -1.52901858066462
H            6.70815436202869        1.02301518562824       -1.32804805688013
H            8.04399962875660       -0.85592611620756       -1.63406240294599
H            8.50205407547643        0.07030956958041       -0.17465493909094
H            8.87077581966997       -1.66754673975436       -0.28324641585444
H            4.73225043787150       -1.85392527732039        1.16613450844125
