----- Optimization -----
      -----------------------------------------------------------      
     |                   =====================                   |     
     |                           x T B                           |     
     |                   =====================                   |     
     |                         S. Grimme                         |     
     |          Mulliken Center for Theoretical Chemistry        |     
     |                    University of Bonn                     |     
      -----------------------------------------------------------      

   * xtb version 6.7.1 (edcfbbe) compiled by 'conda@3ef47c1a292c' on 2024-11-25

   xtb is free software: you can redistribute it and/or modify it under
   the terms of the GNU Lesser General Public License as published by
   the Free Software Foundation, either version 3 of the License, or
   (at your option) any later version.
   
   xtb is distributed in the hope that it will be useful,
   but WITHOUT ANY WARRANTY; without even the implied warranty of
   MERCHANTABILITY or FITNESS FOR A PARTICULAR PURPOSE.  See the
   GNU Lesser General Public License for more details.
   
   Cite this work as:
   * C. Bannwarth, E. Caldeweyher, S. Ehlert, A. Hansen, P. Pracht,
     J. Seibert, S. Spicher, S. Grimme, WIREs Comput. Mol. Sci., 2020, 11,
     e01493. DOI: 10.1002/wcms.1493
   
   for GFN2-xTB:
   * C. Bannwarth, S. Ehlert and S. Grimme., J. Chem. Theory Comput., 2019,
     15, 1652-1671. DOI: 10.1021/acs.jctc.8b01176
   for GFN1-xTB:
   * S. Grimme, C. Bannwarth, P. Shushkov, J. Chem. Theory Comput., 2017,
     13, 1989-2009. DOI: 10.1021/acs.jctc.7b00118
   for GFN0-xTB:
   * P. Pracht, E. Caldeweyher, S. Ehlert, S. Grimme, ChemRxiv, 2019, preprint.
     DOI: 10.26434/chemrxiv.8326202.v1
   for GFN-FF:
   * S. Spicher and S. Grimme, Angew. Chem. Int. Ed., 2020, 59, 15665-15673.
     DOI: 10.1002/anie.202004239
   
   for ALPB and GBSA implicit solvation:
   * S. Ehlert, M. Stahn, S. Spicher, S. Grimme, J. Chem. Theory Comput.,
     2021, 17, 4250-4261. DOI: 10.1021/acs.jctc.1c00471
   
   for ddCOSMO and CPCM-X implicit solvation:
   * M. Stahn, S. Ehlert, S. Grimme, J. Phys. Chem. A,
     2023, XX, XXXX-XXXX. DOI: 10.1021/acs.jpca.3c04382
   
   for DFT-D4:
   * E. Caldeweyher, C. Bannwarth and S. Grimme, J. Chem. Phys., 2017,
     147, 034112. DOI: 10.1063/1.4993215
   * E. Caldeweyher, S. Ehlert, A. Hansen, H. Neugebauer, S. Spicher,
     C. Bannwarth and S. Grimme, J. Chem. Phys., 2019, 150, 154122.
     DOI: 10.1063/1.5090222
   * E. Caldeweyher, J.-M. Mewes, S. Ehlert and S. Grimme, Phys. Chem. Chem. Phys.
     2020, 22, 8499-8512. DOI: 10.1039/D0CP00502A
   
   for sTDA-xTB:
   * S. Grimme and C. Bannwarth, J. Chem. Phys., 2016, 145, 054103.
     DOI: 10.1063/1.4959605
   
   in the mass-spec context:
   * V. Asgeirsson, C. Bauer and S. Grimme, Chem. Sci., 2017, 8, 4879.
     DOI: 10.1039/c7sc00601b
   * J. Koopman and S. Grimme, ACS Omega 2019, 4, 12, 15120-15133.
     DOI: 10.1021/acsomega.9b02011
   
   for metadynamics refer to:
   * S. Grimme, J. Chem. Theory Comput., 2019, 155, 2847-2862
     DOI: 10.1021/acs.jctc.9b00143
   
   for SPH calculations refer to:
   * S. Spicher and S. Grimme, J. Chem. Theory Comput., 2021, 17, 1701-1714
     DOI: 10.1021/acs.jctc.0c01306
   
   for ONIOM refer to:
   * C. Plett, A. Katbashev, S. Ehlert, S. Grimme, M. Bursch,
     Phys. Chem. Chem. Phys., 2023, 25, 17860-17868. DOI: 10.1039/D3CP02178E
   
   for DIPRO refer to:
   * J. Kohn, N. Gildemeister, S. Grimme, D. Fazzi, A. Hansen,
     J. Chem. Phys., 2023, just accepted.
   
   for PTB refer to:
   * S. Grimme, M. Mueller, A. Hansen, J. Chem. Phys., 2023, 158, 124111.
     DOI: 10.1063/5.0137838
   
   with help from (in alphabetical order)
   P. Atkinson, C. Bannwarth, F. Bohle, G. Brandenburg, E. Caldeweyher
   M. Checinski, S. Dohm, S. Ehlert, S. Ehrlich, I. Gerasimov, C. Hölzer
   A. Katbashev, J. Kohn, J. Koopman, C. Lavigne, S. Lehtola, F. März, M. Müller,
   F. Musil, H. Neugebauer, J. Pisarek, C. Plett, P. Pracht, F. Pultar,
   J. Seibert, P. Shushkov, S. Spicher, M. Stahn, M. Steiner, T. Strunk,
   J. Stückrath, T. Rose, and J. Unsleber
   
 * started run on 2025/05/15 at 16:31:05.912     
   ID    Z sym.   atoms
    1    6 C      1-3, 5-8, 10, 11, 13, 15, 16, 18-20, 22, 23
    2    8 O      4, 21, 24
    3    7 N      9, 14, 17
    4   16 S      12
    5    1 H      25-43

           -------------------------------------------------
          |                Calculation Setup                |
           -------------------------------------------------

          program call               : xtb /rds/general/user/hgt20/home/callum/QDESCP/Omeprazole_rdkit_conf_4/Omeprazole_rdkit_conf_4.xyz --opt normal --acc 1 --gfn 2 --chrg 0 --uhf 0 -P 1
          hostname                   : login-c
          coordinate file            : /rds/general/user/hgt20/home/callum/QDESCP/Omeprazole_rdkit_conf_4/Omeprazole_rdkit_conf_4.xyz
          omp threads                :                     1


           -------------------------------------------------
          |                 G F N 2 - x T B                 |
           -------------------------------------------------

        Reference                      10.1021/acs.jctc.8b01176
      * Hamiltonian:
        H0-scaling (s, p, d)           1.850000    2.230000    2.230000
        zeta-weighting                 0.500000
      * Dispersion:
        s8                             2.700000
        a1                             0.520000
        a2                             5.000000
        s9                             5.000000
      * Repulsion:
        kExp                           1.500000    1.000000
        rExp                           1.000000
      * Coulomb:
        alpha                          2.000000
        third order                    shell-resolved
        anisotropic                    true
        a3                             3.000000
        a5                             4.000000
        cn-shift                       1.200000
        cn-exp                         4.000000
        max-rad                        5.000000


          ...................................................
          :                      SETUP                      :
          :.................................................:
          :  # basis functions                 121          :
          :  # atomic orbitals                 120          :
          :  # shells                           68          :
          :  # electrons                       126          :
          :  max. iterations                   250          :
          :  Hamiltonian                  GFN2-xTB          :
          :  restarted?                      false          :
          :  GBSA solvation                  false          :
          :  PC potential                    false          :
          :  electronic temp.          300.0000000     K    :
          :  accuracy                    1.0000000          :
          :  -> integral cutoff          0.2500000E+02      :
          :  -> integral neglect         0.1000000E-07      :
          :  -> SCF convergence          0.1000000E-05 Eh   :
          :  -> wf. convergence          0.1000000E-03 e    :
          :  Broyden damping             0.4000000          :
          :  net charge                          0          :
          :  unpaired electrons                  0          :
          ...................................................

 iter      E             dE          RMSdq      gap      omega  full diag
   1    -71.0616103 -0.710616E+02  0.449E+00    3.04       0.0  T
   2    -71.1644644 -0.102854E+00  0.257E+00    3.16       1.0  T
   3    -71.1545867  0.987770E-02  0.126E+00    3.01       1.0  T
   4    -71.1739607 -0.193740E-01  0.532E-01    2.98       1.0  T
   5    -71.1823961 -0.843543E-02  0.174E-01    2.97       1.0  T
   6    -71.1825573 -0.161173E-03  0.836E-02    2.96       1.0  T
   7    -71.1826465 -0.892265E-04  0.366E-02    2.97       1.0  T
   8    -71.1826608 -0.143443E-04  0.214E-02    2.97       1.0  T
   9    -71.1826635 -0.261535E-05  0.868E-03    2.97       1.8  T
  10    -71.1826646 -0.118391E-05  0.341E-03    2.97       4.5  T
  11    -71.1826647 -0.522606E-07  0.173E-03    2.97       8.8  T
  12    -71.1826647 -0.268496E-07  0.641E-04    2.97      23.8  T
  13    -71.1826647 -0.532326E-08  0.242E-04    2.97      63.1  T

   *** convergence criteria satisfied after 13 iterations ***

         #    Occupation            Energy/Eh            Energy/eV
      -------------------------------------------------------------
         1        2.0000           -0.7573343             -20.6081
       ...           ...                  ...                  ...
        57        2.0000           -0.4065836             -11.0637
        58        2.0000           -0.4029517             -10.9649
        59        2.0000           -0.3991662             -10.8619
        60        2.0000           -0.3918869             -10.6638
        61        2.0000           -0.3835276             -10.4363
        62        2.0000           -0.3764695             -10.2443
        63        2.0000           -0.3728043             -10.1445 (HOMO)
        64                         -0.2636650              -7.1747 (LUMO)
        65                         -0.2506089              -6.8194
        66                         -0.2350313              -6.3955
        67                         -0.2101458              -5.7184
        68                         -0.2022643              -5.5039
       ...                                ...                  ...
       120                          0.7970833              21.6897
      -------------------------------------------------------------
                  HL-Gap            0.1091393 Eh            2.9698 eV
             Fermi-level           -0.3182347 Eh           -8.6596 eV

 SCC (total)                   0 d,  0 h,  0 min,  0.071 sec
 SCC setup                      ...        0 min,  0.000 sec (  0.549%)
 Dispersion                     ...        0 min,  0.000 sec (  0.674%)
 classical contributions        ...        0 min,  0.000 sec (  0.216%)
 integral evaluation            ...        0 min,  0.008 sec ( 11.446%)
 iterations                     ...        0 min,  0.032 sec ( 44.580%)
 molecular gradient             ...        0 min,  0.030 sec ( 42.252%)
 printout                       ...        0 min,  0.000 sec (  0.275%)

         :::::::::::::::::::::::::::::::::::::::::::::::::::::
         ::                     SUMMARY                     ::
         :::::::::::::::::::::::::::::::::::::::::::::::::::::
         :: total energy             -70.299585583554 Eh    ::
         :: gradient norm              0.098165373241 Eh/a0 ::
         :: HOMO-LUMO gap              2.969831517802 eV    ::
         ::.................................................::
         :: SCC energy               -71.182879137919 Eh    ::
         :: -> isotropic ES            0.094971635352 Eh    ::
         :: -> anisotropic ES          0.008820131408 Eh    ::
         :: -> anisotropic XC          0.030643997909 Eh    ::
         :: -> dispersion             -0.046840760393 Eh    ::
         :: repulsion energy           0.883293554366 Eh    ::
         :: add. restraining           0.000000000000 Eh    ::
         :: total charge               0.000000000000 e     ::
         :::::::::::::::::::::::::::::::::::::::::::::::::::::

      ----------------------------------------------------------- 
     |                   =====================                   |
     |                        A N C O P T                        |
     |                   =====================                   |
     |               Approximate Normal Coordinate               |
     |                Rational Function Optimizer                |
      ----------------------------------------------------------- 
      ----------------------------------------------------------- 
     |                   =====================                   |
     |                        A N C O P T                        |
     |                   =====================                   |
     |               Approximate Normal Coordinate               |
     |                Rational Function Optimizer                |
      ----------------------------------------------------------- 

          ...................................................
          :                      SETUP                      :
          :.................................................:
          :   optimization level            normal          :
          :   max. optcycles                   200          :
          :   ANC micro-cycles                  20          :
          :   degrees of freedom               123          :
          :.................................................:
          :   RF solver                   davidson          :
          :   write xtbopt.log                true          :
          :   linear?                        false          :
          :   energy convergence         0.5000000E-05 Eh   :
          :   grad. convergence          0.1000000E-02 Eh/α :
          :   maxmium RF displ.          1.0000000          :
          :   Hlow (freq-cutoff)         0.1000000E-01      :
          :   Hmax (freq-cutoff)         5.0000000          :
          :   S6 in model hess.         20.0000000          :
          ...................................................

generating ANC from exact Hessian ...
Using Lindh-Hessian (1995)
 Shifting diagonal of input Hessian by    9.8514244362801224E-003
 Lowest  eigenvalues of input Hessian
    0.000000    0.000000    0.000000    0.000000    0.000000    0.000000
    0.010000    0.010099    0.010454    0.010749    0.011439    0.011874
    0.012659    0.013093    0.014619    0.014739    0.015749    0.016112
 Highest eigenvalues
    1.984414    2.034213    2.038068    2.105822    2.228407    2.259323


........................................................................
.............................. CYCLE    1 ..............................
........................................................................

 iter      E             dE          RMSdq      gap      omega  full diag
   1    -71.1826647 -0.711827E+02  0.932E-05    2.97       0.0  T
   2    -71.1826647 -0.495390E-10  0.542E-05    2.97     281.3  T
   3    -71.1826647 -0.108145E-10  0.367E-05    2.97     415.0  T
     SCC iter.                  ...        0 min,  0.008 sec
     gradient                   ...        0 min,  0.025 sec
 * total energy  :   -70.2995856 Eh     change       -0.5980922E-09 Eh
   gradient norm :     0.0981651 Eh/α   predicted     0.0000000E+00 (-100.00%)
   displ. norm   :     0.2681481 α      lambda       -0.1203657E-01
   maximum displ.:     0.0956899 α      in ANC's #37, #11, #9, ...

........................................................................
.............................. CYCLE    2 ..............................
........................................................................

 iter      E             dE          RMSdq      gap      omega  full diag
   1    -71.2158549 -0.712159E+02  0.192E-01    2.96       0.0  T
   2    -71.2159431 -0.882025E-04  0.120E-01    3.00       1.0  T
   3    -71.2158768  0.663495E-04  0.580E-02    2.97       1.0  T
   4    -71.2159909 -0.114107E-03  0.139E-02    2.98       1.1  T
   5    -71.2159939 -0.305049E-05  0.645E-03    2.98       2.4  T
   6    -71.2159941 -0.156648E-06  0.251E-03    2.98       6.1  T
   7    -71.2159942 -0.954948E-07  0.126E-03    2.98      12.1  T
   8    -71.2159942 -0.115622E-07  0.658E-04    2.98      23.2  T
   9    -71.2159942 -0.321614E-08  0.240E-04    2.98      63.4  T
     SCC iter.                  ...        0 min,  0.028 sec
     gradient                   ...        0 min,  0.025 sec
 * total energy  :   -70.3079206 Eh     change       -0.8335044E-02 Eh
   gradient norm :     0.0458031 Eh/α   predicted    -0.6455928E-02 ( -22.54%)
   displ. norm   :     0.2500455 α      lambda       -0.3743221E-02
   maximum displ.:     0.1227419 α      in ANC's #11, #6, #9, ...

........................................................................
.............................. CYCLE    3 ..............................
........................................................................

 iter      E             dE          RMSdq      gap      omega  full diag
   1    -71.2350816 -0.712351E+02  0.121E-01    2.97       0.0  T
   2    -71.2351516 -0.700004E-04  0.790E-02    2.99       1.0  T
   3    -71.2351562 -0.463816E-05  0.392E-02    2.98       1.0  T
   4    -71.2351679 -0.116928E-04  0.124E-02    2.98       1.2  T
   5    -71.2351728 -0.487180E-05  0.338E-03    2.98       4.5  T
   6    -71.2351728 -0.596156E-07  0.201E-03    2.98       7.6  T
   7    -71.2351728 -0.183232E-07  0.687E-04    2.98      22.2  T
   8    -71.2351728 -0.914022E-08  0.367E-04    2.98      41.6  T
     SCC iter.                  ...        0 min,  0.019 sec
     gradient                   ...        0 min,  0.025 sec
 * total energy  :   -70.3101002 Eh     change       -0.2179543E-02 Eh
   gradient norm :     0.0129353 Eh/α   predicted    -0.1989286E-02 (  -8.73%)
   displ. norm   :     0.1814852 α      lambda       -0.5761725E-03
   maximum displ.:     0.1021680 α      in ANC's #11, #6, #9, ...

........................................................................
.............................. CYCLE    4 ..............................
........................................................................

 iter      E             dE          RMSdq      gap      omega  full diag
   1    -71.2367364 -0.712367E+02  0.503E-02    2.98       0.0  T
   2    -71.2367458 -0.934714E-05  0.307E-02    2.98       1.0  T
   3    -71.2367461 -0.332385E-06  0.136E-02    2.97       1.1  T
   4    -71.2367467 -0.568407E-06  0.445E-03    2.97       3.4  T
   5    -71.2367470 -0.351852E-06  0.176E-03    2.97       8.7  T
   6    -71.2367471 -0.253778E-07  0.778E-04    2.97      19.6  T
   7    -71.2367471 -0.100405E-07  0.243E-04    2.97      62.6  T
     SCC iter.                  ...        0 min,  0.016 sec
     gradient                   ...        0 min,  0.025 sec
 * total energy  :   -70.3105386 Eh     change       -0.4384518E-03 Eh
   gradient norm :     0.0073569 Eh/α   predicted    -0.2975930E-03 ( -32.13%)
   displ. norm   :     0.2808736 α      lambda       -0.5439101E-03
   maximum displ.:     0.1663289 α      in ANC's #6, #11, #9, ...

........................................................................
.............................. CYCLE    5 ..............................
........................................................................

 iter      E             dE          RMSdq      gap      omega  full diag
   1    -71.2361572 -0.712362E+02  0.654E-02    2.98       0.0  T
   2    -71.2361656 -0.835945E-05  0.386E-02    2.97       1.0  T
   3    -71.2361643  0.121695E-05  0.137E-02    2.97       1.1  T
   4    -71.2361665 -0.213995E-05  0.540E-03    2.96       2.8  T
   5    -71.2361671 -0.631593E-06  0.200E-03    2.97       7.6  T
   6    -71.2361672 -0.308454E-07  0.728E-04    2.97      21.0  T
   7    -71.2361672 -0.868596E-08  0.271E-04    2.97      56.3  T
     SCC iter.                  ...        0 min,  0.016 sec
     gradient                   ...        0 min,  0.026 sec
 * total energy  :   -70.3108949 Eh     change       -0.3562999E-03 Eh
   gradient norm :     0.0077280 Eh/α   predicted    -0.2934121E-03 ( -17.65%)
   displ. norm   :     0.1847851 α      lambda       -0.2082033E-03
   maximum displ.:     0.1169143 α      in ANC's #6, #11, #15, ...

........................................................................
.............................. CYCLE    6 ..............................
........................................................................

 iter      E             dE          RMSdq      gap      omega  full diag
   1    -71.2360449 -0.712360E+02  0.386E-02    2.97       0.0  T
   2    -71.2360459 -0.982103E-06  0.217E-02    2.97       1.0  T
   3    -71.2360452  0.701816E-06  0.591E-03    2.97       2.6  T
   4    -71.2360462 -0.938879E-06  0.252E-03    2.96       6.1  T
   5    -71.2360463 -0.104060E-06  0.658E-04    2.97      23.2  T
   6    -71.2360463 -0.534956E-08  0.273E-04    2.97      55.8  T
     SCC iter.                  ...        0 min,  0.014 sec
     gradient                   ...        0 min,  0.025 sec
 * total energy  :   -70.3110540 Eh     change       -0.1590639E-03 Eh
   gradient norm :     0.0077469 Eh/α   predicted    -0.1076565E-03 ( -32.32%)
   displ. norm   :     0.2229335 α      lambda       -0.2316608E-03
   maximum displ.:     0.1390412 α      in ANC's #6, #11, #15, ...

........................................................................
.............................. CYCLE    7 ..............................
........................................................................

 iter      E             dE          RMSdq      gap      omega  full diag
   1    -71.2363391 -0.712363E+02  0.489E-02    2.97       0.0  T
   2    -71.2363425 -0.336872E-05  0.271E-02    2.97       1.0  T
   3    -71.2363420  0.492257E-06  0.979E-03    2.97       1.6  T
   4    -71.2363427 -0.775052E-06  0.369E-03    2.97       4.1  T
   5    -71.2363431 -0.306703E-06  0.130E-03    2.97      11.7  T
   6    -71.2363431 -0.235354E-07  0.501E-04    2.97      30.4  T
   7    -71.2363431 -0.213709E-08  0.209E-04    2.97      72.9  T
     SCC iter.                  ...        0 min,  0.016 sec
     gradient                   ...        0 min,  0.026 sec
 * total energy  :   -70.3112230 Eh     change       -0.1689918E-03 Eh
   gradient norm :     0.0059134 Eh/α   predicted    -0.1215886E-03 ( -28.05%)
   displ. norm   :     0.2129693 α      lambda       -0.1705214E-03
   maximum displ.:     0.1261204 α      in ANC's #6, #11, #15, ...

........................................................................
.............................. CYCLE    8 ..............................
........................................................................

 iter      E             dE          RMSdq      gap      omega  full diag
   1    -71.2367536 -0.712368E+02  0.493E-02    2.97       0.0  T
   2    -71.2367574 -0.379981E-05  0.278E-02    2.97       1.0  T
   3    -71.2367569  0.535024E-06  0.105E-02    2.97       1.4  T
   4    -71.2367576 -0.766079E-06  0.380E-03    2.97       4.0  T
   5    -71.2367580 -0.366539E-06  0.126E-03    2.97      12.1  T
   6    -71.2367580 -0.175768E-07  0.533E-04    2.97      28.6  T
   7    -71.2367580 -0.219956E-08  0.217E-04    2.97      70.3  T
     SCC iter.                  ...        0 min,  0.016 sec
     gradient                   ...        0 min,  0.025 sec
 * total energy  :   -70.3113450 Eh     change       -0.1219915E-03 Eh
   gradient norm :     0.0047406 Eh/α   predicted    -0.8912850E-04 ( -26.94%)
   displ. norm   :     0.1855361 α      lambda       -0.1261261E-03
   maximum displ.:     0.0944627 α      in ANC's #6, #11, #5, ...

........................................................................
.............................. CYCLE    9 ..............................
........................................................................

 iter      E             dE          RMSdq      gap      omega  full diag
   1    -71.2374114 -0.712374E+02  0.460E-02    2.97       0.0  T
   2    -71.2374134 -0.194745E-05  0.266E-02    2.97       1.0  T
   3    -71.2374127  0.659837E-06  0.775E-03    2.97       2.0  T
   4    -71.2374135 -0.788917E-06  0.272E-03    2.97       5.6  T
   5    -71.2374137 -0.203439E-06  0.888E-04    2.97      17.2  T
   6    -71.2374137 -0.617337E-08  0.380E-04    2.97      40.2  T
     SCC iter.                  ...        0 min,  0.014 sec
     gradient                   ...        0 min,  0.025 sec
 * total energy  :   -70.3114375 Eh     change       -0.9255044E-04 Eh
   gradient norm :     0.0040656 Eh/α   predicted    -0.6523610E-04 ( -29.51%)
   displ. norm   :     0.2163406 α      lambda       -0.1131767E-03
   maximum displ.:     0.0876574 α      in ANC's #6, #5, #7, ...

........................................................................
.............................. CYCLE   10 ..............................
........................................................................

 iter      E             dE          RMSdq      gap      omega  full diag
   1    -71.2370599 -0.712371E+02  0.541E-02    2.98       0.0  T
   2    -71.2370606 -0.662369E-06  0.317E-02    2.98       1.0  T
   3    -71.2370602  0.451090E-06  0.473E-03    2.98       3.2  T
   4    -71.2370608 -0.616083E-06  0.189E-03    2.98       8.1  T
   5    -71.2370608 -0.597142E-07  0.655E-04    2.98      23.3  T
   6    -71.2370608 -0.260367E-08  0.224E-04    2.98      68.0  T
     SCC iter.                  ...        0 min,  0.014 sec
     gradient                   ...        0 min,  0.025 sec
 * total energy  :   -70.3115169 Eh     change       -0.7940102E-04 Eh
   gradient norm :     0.0043221 Eh/α   predicted    -0.5924010E-04 ( -25.39%)
   displ. norm   :     0.2082204 α      lambda       -0.1288392E-03
   maximum displ.:     0.1020382 α      in ANC's #7, #5, #3, ...

........................................................................
.............................. CYCLE   11 ..............................
........................................................................

 iter      E             dE          RMSdq      gap      omega  full diag
   1    -71.2386879 -0.712387E+02  0.593E-02    2.98       0.0  T
   2    -71.2386894 -0.149525E-05  0.345E-02    2.98       1.0  T
   3    -71.2386893  0.731437E-07  0.449E-03    2.98       3.4  T
   4    -71.2386896 -0.302299E-06  0.190E-03    2.98       8.0  T
   5    -71.2386897 -0.452193E-07  0.889E-04    2.98      17.2  T
   6    -71.2386897 -0.120285E-07  0.305E-04    2.98      50.0  T
     SCC iter.                  ...        0 min,  0.014 sec
     gradient                   ...        0 min,  0.025 sec
 * total energy  :   -70.3115692 Eh     change       -0.5223842E-04 Eh
   gradient norm :     0.0059109 Eh/α   predicted    -0.6723255E-04 (  28.70%)
   displ. norm   :     0.2050883 α      lambda       -0.1011734E-03
   maximum displ.:     0.0774660 α      in ANC's #7, #11, #16, ...

........................................................................
.............................. CYCLE   12 ..............................
........................................................................

 iter      E             dE          RMSdq      gap      omega  full diag
   1    -71.2363590 -0.712364E+02  0.524E-02    2.98       0.0  T
   2    -71.2363604 -0.142108E-05  0.307E-02    2.98       1.0  T
   3    -71.2363603  0.110572E-06  0.479E-03    2.98       3.2  T
   4    -71.2363606 -0.331860E-06  0.201E-03    2.98       7.6  T
   5    -71.2363607 -0.514531E-07  0.945E-04    2.98      16.1  T
   6    -71.2363607 -0.863216E-08  0.318E-04    2.98      47.9  T
     SCC iter.                  ...        0 min,  0.015 sec
     gradient                   ...        0 min,  0.025 sec
 * total energy  :   -70.3116198 Eh     change       -0.5059906E-04 Eh
   gradient norm :     0.0046387 Eh/α   predicted    -0.5271519E-04 (   4.18%)
   displ. norm   :     0.0571542 α      lambda       -0.5928179E-04
   maximum displ.:     0.0320630 α      in ANC's #6, #9, #15, ...

........................................................................
.............................. CYCLE   13 ..............................
........................................................................

 iter      E             dE          RMSdq      gap      omega  full diag
   1    -71.2377229 -0.712377E+02  0.166E-02    2.98       0.0  T
   2    -71.2377235 -0.656669E-06  0.970E-03    2.98       1.6  T
   3    -71.2377235  0.274967E-07  0.389E-03    2.98       3.9  T
   4    -71.2377236 -0.785013E-07  0.132E-03    2.98      11.5  T
   5    -71.2377236 -0.421290E-07  0.510E-04    2.98      29.9  T
   6    -71.2377236 -0.214528E-08  0.257E-04    2.98      59.2  T
     SCC iter.                  ...        0 min,  0.015 sec
     gradient                   ...        0 min,  0.026 sec
 * total energy  :   -70.3116643 Eh     change       -0.4453557E-04 Eh
   gradient norm :     0.0025274 Eh/α   predicted    -0.2974127E-04 ( -33.22%)
   displ. norm   :     0.1812152 α      lambda       -0.8029951E-04
   maximum displ.:     0.0862470 α      in ANC's #7, #3, #5, ...

........................................................................
.............................. CYCLE   14 ..............................
........................................................................

 iter      E             dE          RMSdq      gap      omega  full diag
   1    -71.2375404 -0.712375E+02  0.473E-02    2.98       0.0  T
   2    -71.2375417 -0.129886E-05  0.279E-02    2.97       1.0  T
   3    -71.2375413  0.424242E-06  0.608E-03    2.97       2.5  T
   4    -71.2375419 -0.660979E-06  0.218E-03    2.97       7.0  T
   5    -71.2375420 -0.791862E-07  0.101E-03    2.97      15.1  T
   6    -71.2375420 -0.102953E-07  0.408E-04    2.97      37.4  T
   7    -71.2375420 -0.197592E-08  0.158E-04    2.97      96.5  T
     SCC iter.                  ...        0 min,  0.030 sec
     gradient                   ...        0 min,  0.025 sec
 * total energy  :   -70.3117155 Eh     change       -0.5124381E-04 Eh
   gradient norm :     0.0028458 Eh/α   predicted    -0.4147094E-04 ( -19.07%)
   displ. norm   :     0.1454847 α      lambda       -0.3545886E-04
   maximum displ.:     0.0702609 α      in ANC's #3, #7, #5, ...

........................................................................
.............................. CYCLE   15 ..............................
........................................................................

 iter      E             dE          RMSdq      gap      omega  full diag
   1    -71.2374850 -0.712375E+02  0.377E-02    2.97       0.0  T
   2    -71.2374853 -0.360448E-06  0.223E-02    2.97       1.0  T
   3    -71.2374851  0.183754E-06  0.316E-03    2.97       4.8  T
   4    -71.2374854 -0.315076E-06  0.122E-03    2.97      12.5  T
   5    -71.2374855 -0.999485E-08  0.526E-04    2.97      29.0  T
   6    -71.2374855 -0.518158E-08  0.176E-04    2.97      86.6  T
     SCC iter.                  ...        0 min,  0.014 sec
     gradient                   ...        0 min,  0.025 sec
 * total energy  :   -70.3117427 Eh     change       -0.2715201E-04 Eh
   gradient norm :     0.0027861 Eh/α   predicted    -0.1811069E-04 ( -33.30%)
   displ. norm   :     0.1748011 α      lambda       -0.4011639E-04
   maximum displ.:     0.0889131 α      in ANC's #3, #5, #7, ...

........................................................................
.............................. CYCLE   16 ..............................
........................................................................

 iter      E             dE          RMSdq      gap      omega  full diag
   1    -71.2375951 -0.712376E+02  0.448E-02    2.97       0.0  T
   2    -71.2375958 -0.725559E-06  0.266E-02    2.97       1.0  T
   3    -71.2375951  0.662949E-06  0.526E-03    2.97       2.9  T
   4    -71.2375960 -0.859213E-06  0.160E-03    2.97       9.5  T
   5    -71.2375960 -0.492188E-07  0.769E-04    2.97      19.8  T
   6    -71.2375960 -0.330186E-08  0.281E-04    2.97      54.4  T
     SCC iter.                  ...        0 min,  0.017 sec
     gradient                   ...        0 min,  0.025 sec
 * total energy  :   -70.3117725 Eh     change       -0.2978852E-04 Eh
   gradient norm :     0.0021820 Eh/α   predicted    -0.2067588E-04 ( -30.59%)
   displ. norm   :     0.1466840 α      lambda       -0.2976794E-04
   maximum displ.:     0.0823213 α      in ANC's #3, #5, #2, ...

........................................................................
.............................. CYCLE   17 ..............................
........................................................................

 iter      E             dE          RMSdq      gap      omega  full diag
   1    -71.2379634 -0.712380E+02  0.370E-02    2.97       0.0  T
   2    -71.2379641 -0.729507E-06  0.219E-02    2.97       1.0  T
   3    -71.2379635  0.615955E-06  0.533E-03    2.97       2.9  T
   4    -71.2379643 -0.766664E-06  0.161E-03    2.97       9.5  T
   5    -71.2379643 -0.672700E-07  0.710E-04    2.97      21.5  T
   6    -71.2379643 -0.273356E-08  0.275E-04    2.97      55.4  T
     SCC iter.                  ...        0 min,  0.014 sec
     gradient                   ...        0 min,  0.025 sec
 * total energy  :   -70.3117942 Eh     change       -0.2176967E-04 Eh
   gradient norm :     0.0017654 Eh/α   predicted    -0.1520804E-04 ( -30.14%)
   displ. norm   :     0.1751905 α      lambda       -0.2042218E-04
   maximum displ.:     0.1073488 α      in ANC's #3, #5, #2, ...

........................................................................
.............................. CYCLE   18 ..............................
........................................................................

 iter      E             dE          RMSdq      gap      omega  full diag
   1    -71.2381888 -0.712382E+02  0.424E-02    2.98       0.0  T
   2    -71.2381896 -0.753991E-06  0.249E-02    2.98       1.0  T
   3    -71.2381891  0.442838E-06  0.490E-03    2.98       3.1  T
   4    -71.2381897 -0.606708E-06  0.176E-03    2.98       8.6  T
   5    -71.2381898 -0.706909E-07  0.782E-04    2.98      19.5  T
   6    -71.2381898 -0.551768E-08  0.288E-04    2.98      53.0  T
     SCC iter.                  ...        0 min,  0.014 sec
     gradient                   ...        0 min,  0.025 sec
 * total energy  :   -70.3118144 Eh     change       -0.2017243E-04 Eh
   gradient norm :     0.0019326 Eh/α   predicted    -0.1035118E-04 ( -48.69%)
   displ. norm   :     0.0813010 α      lambda       -0.1321652E-04
   maximum displ.:     0.0558251 α      in ANC's #3, #4, #5, ...

........................................................................
.............................. CYCLE   19 ..............................
........................................................................

 iter      E             dE          RMSdq      gap      omega  full diag
   1    -71.2388790 -0.712389E+02  0.179E-02    2.98       0.0  T
   2    -71.2388792 -0.188263E-06  0.102E-02    2.98       1.5  T
   3    -71.2388792  0.620625E-07  0.219E-03    2.98       7.0  T
   4    -71.2388793 -0.100720E-06  0.934E-04    2.98      16.3  T
   5    -71.2388793 -0.132590E-07  0.294E-04    2.98      51.8  T
     SCC iter.                  ...        0 min,  0.011 sec
     gradient                   ...        0 min,  0.025 sec
 * total energy  :   -70.3118280 Eh     change       -0.1356848E-04 Eh
   gradient norm :     0.0016406 Eh/α   predicted    -0.6628462E-05 ( -51.15%)
   displ. norm   :     0.1306343 α      lambda       -0.1798083E-04
   maximum displ.:     0.0880750 α      in ANC's #3, #5, #2, ...

........................................................................
.............................. CYCLE   20 ..............................
........................................................................

 iter      E             dE          RMSdq      gap      omega  full diag
   1    -71.2373999 -0.712374E+02  0.320E-02    2.98       0.0  T
   2    -71.2374006 -0.678337E-06  0.188E-02    2.98       1.0  T
   3    -71.2373998  0.743934E-06  0.574E-03    2.98       2.7  T
   4    -71.2374008 -0.955962E-06  0.139E-03    2.98      11.0  T
   5    -71.2374008 -0.304720E-07  0.586E-04    2.98      26.0  T
   6    -71.2374008 -0.189145E-08  0.240E-04    2.98      63.5  T
     SCC iter.                  ...        0 min,  0.014 sec
     gradient                   ...        0 min,  0.025 sec
 * total energy  :   -70.3118404 Eh     change       -0.1240126E-04 Eh
   gradient norm :     0.0020741 Eh/α   predicted    -0.9059633E-05 ( -26.95%)
   displ. norm   :     0.0403972 α      lambda       -0.9910795E-05
   maximum displ.:     0.0211537 α      in ANC's #3, #4, #7, ...
 * RMSD in coord.:     0.3799575 α      energy gain  -0.1225481E-01 Eh

generating ANC from exact Hessian ...
Using Lindh-Hessian (1995)
 Shifting diagonal of input Hessian by    9.8427454298492915E-003
 Lowest  eigenvalues of input Hessian
    0.000000    0.000000    0.000000    0.000000    0.000000    0.000000
    0.010000    0.010087    0.010464    0.010722    0.011565    0.011852
    0.012660    0.013108    0.014682    0.014913    0.015887    0.015923
 Highest eigenvalues
    2.055119    2.082960    2.142571    2.150053    2.250307    2.446057


........................................................................
.............................. CYCLE   21 ..............................
........................................................................

 iter      E             dE          RMSdq      gap      omega  full diag
   1    -71.2379124 -0.712379E+02  0.810E-03    2.98       0.0  T
   2    -71.2379125 -0.416943E-07  0.460E-03    2.98       3.3  T
   3    -71.2379125  0.121671E-07  0.982E-04    2.98      15.5  T
   4    -71.2379125 -0.190170E-07  0.407E-04    2.98      37.4  T
     SCC iter.                  ...        0 min,  0.009 sec
     gradient                   ...        0 min,  0.044 sec
 * total energy  :   -70.3118482 Eh     change       -0.7760534E-05 Eh
   gradient norm :     0.0015831 Eh/α   predicted     0.0000000E+00 (-100.00%)
   displ. norm   :     0.0220033 α      lambda       -0.5966778E-05
   maximum displ.:     0.0135822 α      in ANC's #3, #9, #8, ...

........................................................................
.............................. CYCLE   22 ..............................
........................................................................

 iter      E             dE          RMSdq      gap      omega  full diag
   1    -71.2380998 -0.712381E+02  0.798E-03    2.98       0.0  T
   2    -71.2380999 -0.726773E-07  0.467E-03    2.98       3.3  T
   3    -71.2380998  0.537241E-07  0.165E-03    2.98       9.3  T
   4    -71.2380999 -0.699466E-07  0.459E-04    2.98      33.2  T
   5    -71.2380999 -0.412450E-08  0.175E-04    2.98      86.9  T
     SCC iter.                  ...        0 min,  0.012 sec
     gradient                   ...        0 min,  0.025 sec
 * total energy  :   -70.3118551 Eh     change       -0.6948158E-05 Eh
   gradient norm :     0.0005856 Eh/α   predicted    -0.3199554E-05 ( -53.95%)
   displ. norm   :     0.0468798 α      lambda       -0.6613519E-05
   maximum displ.:     0.0310765 α      in ANC's #3, #9, #8, ...

........................................................................
.............................. CYCLE   23 ..............................
........................................................................

 iter      E             dE          RMSdq      gap      omega  full diag
   1    -71.2380453 -0.712380E+02  0.145E-02    2.98       0.0  T
   2    -71.2380454 -0.926548E-07  0.842E-03    2.98       1.8  T
   3    -71.2380453  0.103097E-06  0.212E-03    2.98       7.2  T
   4    -71.2380454 -0.132791E-06  0.608E-04    2.97      25.1  T
   5    -71.2380454 -0.311742E-08  0.238E-04    2.97      64.0  T
     SCC iter.                  ...        0 min,  0.012 sec
     gradient                   ...        0 min,  0.029 sec
 * total energy  :   -70.3118624 Eh     change       -0.7268650E-05 Eh
   gradient norm :     0.0008685 Eh/α   predicted    -0.3310971E-05 ( -54.45%)
   displ. norm   :     0.0606644 α      lambda       -0.5572847E-05
   maximum displ.:     0.0410448 α      in ANC's #3, #8, #9, ...

........................................................................
.............................. CYCLE   24 ..............................
........................................................................

 iter      E             dE          RMSdq      gap      omega  full diag
   1    -71.2379650 -0.712380E+02  0.174E-02    2.97       0.0  T
   2    -71.2379650 -0.668921E-07  0.102E-02    2.97       1.5  T
   3    -71.2379650  0.242134E-07  0.140E-03    2.97      10.9  T
   4    -71.2379651 -0.447901E-07  0.595E-04    2.97      25.6  T
   5    -71.2379651 -0.378674E-08  0.188E-04    2.97      81.0  T
     SCC iter.                  ...        0 min,  0.012 sec
     gradient                   ...        0 min,  0.025 sec
 * total energy  :   -70.3118690 Eh     change       -0.6658731E-05 Eh
   gradient norm :     0.0012012 Eh/α   predicted    -0.2792964E-05 ( -58.06%)
   displ. norm   :     0.0737877 α      lambda       -0.5937611E-05
   maximum displ.:     0.0501345 α      in ANC's #3, #8, #6, ...

........................................................................
.............................. CYCLE   25 ..............................
........................................................................

 iter      E             dE          RMSdq      gap      omega  full diag
   1    -71.2379107 -0.712379E+02  0.201E-02    2.97       0.0  T
   2    -71.2379108 -0.106347E-06  0.117E-02    2.97       1.3  T
   3    -71.2379108  0.256294E-07  0.155E-03    2.97       9.9  T
   4    -71.2379108 -0.494896E-07  0.665E-04    2.97      22.9  T
   5    -71.2379108 -0.728615E-08  0.283E-04    2.97      53.9  T
     SCC iter.                  ...        0 min,  0.012 sec
     gradient                   ...        0 min,  0.040 sec
 * total energy  :   -70.3118762 Eh     change       -0.7214037E-05 Eh
   gradient norm :     0.0010019 Eh/α   predicted    -0.2980738E-05 ( -58.68%)
   displ. norm   :     0.0775049 α      lambda       -0.5571864E-05
   maximum displ.:     0.0535753 α      in ANC's #3, #8, #6, ...

........................................................................
.............................. CYCLE   26 ..............................
........................................................................

 iter      E             dE          RMSdq      gap      omega  full diag
   1    -71.2379359 -0.712379E+02  0.203E-02    2.97       0.0  T
   2    -71.2379361 -0.125588E-06  0.119E-02    2.97       1.3  T
   3    -71.2379360  0.411725E-07  0.172E-03    2.97       8.8  T
   4    -71.2379361 -0.662799E-07  0.647E-04    2.97      23.6  T
   5    -71.2379361 -0.787199E-08  0.299E-04    2.97      51.1  T
     SCC iter.                  ...        0 min,  0.012 sec
     gradient                   ...        0 min,  0.025 sec
 * total energy  :   -70.3118828 Eh     change       -0.6573604E-05 Eh
   gradient norm :     0.0005049 Eh/α   predicted    -0.2798900E-05 ( -57.42%)
   displ. norm   :     0.0676187 α      lambda       -0.4099302E-05
   maximum displ.:     0.0477766 α      in ANC's #3, #8, #2, ...

........................................................................
.............................. CYCLE   27 ..............................
........................................................................

 iter      E             dE          RMSdq      gap      omega  full diag
   1    -71.2380164 -0.712380E+02  0.169E-02    2.97       0.0  T
   2    -71.2380165 -0.670639E-07  0.993E-03    2.98       1.5  T
   3    -71.2380164  0.140529E-07  0.113E-03    2.98      13.4  T
   4    -71.2380165 -0.316106E-07  0.481E-04    2.98      31.7  T
   5    -71.2380165 -0.356118E-08  0.221E-04    2.98      68.9  T
     SCC iter.                  ...        0 min,  0.012 sec
     gradient                   ...        0 min,  0.040 sec
 * total energy  :   -70.3118877 Eh     change       -0.4935237E-05 Eh
   gradient norm :     0.0004716 Eh/α   predicted    -0.2059059E-05 ( -58.28%)
   displ. norm   :     0.0566162 α      lambda       -0.3117278E-05
   maximum displ.:     0.0404382 α      in ANC's #3, #2, #8, ...

   *** GEOMETRY OPTIMIZATION CONVERGED AFTER 27 ITERATIONS ***

------------------------------------------------------------------------
 total energy gain   :        -0.0123022 Eh       -7.7197 kcal/mol
 total RMSD          :         0.3942902 a0        0.2086 Å
 total power (kW/mol):        -1.1962715 (step)  -22.8926 (real)
------------------------------------------------------------------------

 ANCopt (total)                0 d,  0 h,  0 min,  1.411 sec
 optimizer setup                ...        0 min,  0.000 sec (  0.005%)
 model hessian                  ...        0 min,  0.019 sec (  1.365%)
 ANC generation                 ...        0 min,  0.003 sec (  0.218%)
 coordinate transformation      ...        0 min,  0.000 sec (  0.015%)
 single point calculation       ...        0 min,  1.378 sec ( 97.702%)
 optimization log               ...        0 min,  0.005 sec (  0.358%)
 hessian update                 ...        0 min,  0.000 sec (  0.024%)
 rational function              ...        0 min,  0.002 sec (  0.174%)

================
 final structure:
================
43
 xtb: 6.7.1 (edcfbbe)
C           -6.35267799698947       -0.98874590512174        1.30177464187162
C           -4.89696185741484       -0.89027291342330        0.96902945727595
C           -4.45260920426160       -0.35139999532717       -0.24189675910909
O           -5.36774422326037        0.10022492540083       -1.17678268493462
C           -5.76428948955551        1.44239316740514       -0.98147453290352
C           -3.08630020860846       -0.29663399733475       -0.52831975267888
C           -2.59576748200785        0.25494758962695       -1.83071646999828
C           -3.92055940659767       -1.33548953107517        1.85061510572418
N           -2.62726967594593       -1.26851737821565        1.61017690569598
C           -2.21042440111409       -0.77369050687271        0.45226726702820
C           -0.73124151890622       -0.70250576614909        0.29375766077798
S           -0.15015607263360        0.93140007919668        0.98282377563468
C            1.57798235971137        0.59765367485849        0.59568367045630
N            2.29858497208409       -0.39869437271002        1.01690955233374
C            3.54557900125726       -0.19055679904974        0.47908780470457
C            3.53509956789914        1.00201394280134       -0.29005401098074
N            2.25304380665478        1.48107853717860       -0.18678937173532
C            4.66866350823805        1.44544399335918       -0.94470617862358
C            5.81666528402090        0.68613404571527       -0.82406982680447
C            5.83989291356391       -0.49647207939834       -0.06914593124119
O            6.94613348258294       -1.28236247729504        0.07747762925682
C            8.14655866286702       -0.89725813006949       -0.54448034462110
C            4.70212202812641       -0.94581060297161        0.58934863828587
O           -0.49610876596239        1.97157789962888       -0.00013419324672
H           -6.66265374068581       -0.13759266423694        1.90956941690154
H           -6.94696835835520       -1.00047775121104        0.39097277369299
H           -6.54889066190244       -1.89496236698486        1.87042683701604
H           -6.26089339773363        1.57896163075661       -0.01545186774435
H           -4.90734851628666        2.12218634062225       -1.03676850366278
H           -6.46364563553783        1.67013330467258       -1.78422602105469
H           -3.43724268209296        0.51326459534592       -2.46744535837267
H           -1.98894213636352        1.14178403292837       -1.65581150649727
H           -1.98719171958111       -0.48373628743855       -2.35195901023455
H           -4.19591940371182       -1.76443675071632        2.80527607354533
H           -0.23667031079449       -1.44258297723743        0.91728322666461
H           -0.40425919953451       -0.76643932308945       -0.74004279483189
H            1.83964906684896        2.30054031000962       -0.60260943059442
H            4.66572708818063        2.35287388449474       -1.52901858066462
H            6.70815436202869        1.02301518562824       -1.32804805688013
H            8.04399962875660       -0.85592611620756       -1.63406240294599
H            8.50205407547643        0.07030956958041       -0.17465493909094
H            8.87077581966997       -1.66754673975436       -0.28324641585444
H            4.73225043787150       -1.85392527732039        1.16613450844125

 Bond Distances (Angstroems)
 ---------------------------
C1-C2=1.4965         C1-H25=1.0909        C1-H26=1.0876        C1-H27=1.0877        C2-C1=1.4965         C2-C3=1.3979         
C2-C8=1.3888         C3-C2=1.3979         C3-O4=1.3840         C3-C6=1.3971         O4-C3=1.3840         O4-C5=1.4131         
C5-O4=1.4131         C5-H28=1.0947        C5-H29=1.0952        C5-H30=1.0887        C6-C3=1.3971         C6-C7=1.4970         
C6-C10=1.3987        C7-C6=1.4970         C7-H31=1.0864        C7-H32=1.0887        C7-H33=1.0898        C8-C2=1.3888         
C8-N9=1.3172         C8-H34=1.0822        N9-C8=1.3172         N9-C10=1.3264        C10-C6=1.3987        C10-N9=1.3264        
C10-C11=1.4894       C11-C10=1.4894       C11-S12=1.8660       C11-H35=1.0868       C11-H36=1.0862       S12-C11=1.8660       
S12-C13=1.8021       S12-O24=1.4724       C13-S12=1.8021       C13-N14=1.2998       C13-N17=1.3596       N14-C13=1.2998       
N14-C15=1.3739       C15-N14=1.3739       C15-C16=1.4191       C15-C23=1.3857       C16-C15=1.4191       C16-N17=1.3725       
C16-C18=1.3821       N17-C13=1.3596       N17-C16=1.3725       N17-H37=1.0076       C18-C16=1.3821       C18-C19=1.3817       
C18-H38=1.0793       C19-C18=1.3817       C19-C20=1.4032       C19-H39=1.0781       C20-C19=1.4032       C20-O21=1.3649       
C20-C23=1.3893       O21-C20=1.3649       O21-C22=1.4058       C22-O21=1.4058       C22-H40=1.0952       C22-H41=1.0951       
C22-H42=1.0891       C23-C15=1.3857       C23-C20=1.3893       C23-H43=1.0762       O24-S12=1.4724       H25-C1=1.0909        
H26-C1=1.0876        H27-C1=1.0877        H28-C5=1.0947        H29-C5=1.0952        H30-C5=1.0887        H31-C7=1.0864        
H32-C7=1.0887        H33-C7=1.0898        H34-C8=1.0822        H35-C11=1.0868       H36-C11=1.0862       H37-N17=1.0076       
H38-C18=1.0793       H39-C19=1.0781       H40-C22=1.0952       H41-C22=1.0951       H42-C22=1.0891       H43-C23=1.0762       
 C  H  Rav=1.0877 sigma=0.0056  Rmin=1.0762  Rmax=1.0952    18
 C  C  Rav=1.4174 sigma=0.0432  Rmin=1.3817  Rmax=1.4970    13
 N  H  Rav=1.0076 sigma=0.0000  Rmin=1.0076  Rmax=1.0076     1
 N  C  Rav=1.3416 sigma=0.0286  Rmin=1.2998  Rmax=1.3739     6
 O  C  Rav=1.3919 sigma=0.0189  Rmin=1.3649  Rmax=1.4131     4
 S  C  Rav=1.8341 sigma=0.0319  Rmin=1.8021  Rmax=1.8660     2
 S  O  Rav=1.4724 sigma=0.0000  Rmin=1.4724  Rmax=1.4724     1

 selected bond angles (degree)
 --------------------
H25-C1-C2=110.42               H26-C1-C2=110.25               H26-C1-H25=108.65              H27-C1-C2=110.28               
H27-C1-H25=107.91              H27-C1-H26=109.28              C3-C2-C1=121.81                C8-C2-C1=121.44                
C8-C2-C3=116.74                O4-C3-C2=120.05                C6-C3-C2=120.24                C6-C3-O4=119.69                
C5-O4-C3=113.71                H28-C5-O4=111.58               H29-C5-O4=111.28               H29-C5-H28=108.79              
H30-C5-O4=106.08               H30-C5-H28=109.46              H30-C5-H29=109.61              C7-C6-C3=120.88                
C10-C6-C3=117.09               C10-C6-C7=122.03               H31-C7-C6=110.10               H32-C7-C6=110.06               
H32-C7-H31=109.40              H33-C7-C6=110.45               H33-C7-H31=108.26              H33-C7-H32=108.52              
N9-C8-C2=123.93                H34-C8-C2=120.54               H34-C8-N9=115.53               C10-N9-C8=119.14               
N9-C10-C6=122.85               C11-C10-C6=122.07              C11-C10-N9=115.02              

 selected dihedral angles (degree)
 ---------------------------------
C3-C2-C1-H25=263.64           C3-C2-C1-H26= 23.70           C3-C2-C1-H27=144.47           C8-C2-C1-H25= 83.84           
C8-C2-C1-H26=203.91           C8-C2-C1-H27=324.67           O4-C3-C2-C1=359.51            O4-C3-C2-C8=179.32            
C6-C3-C2-C1=181.11            C6-C3-C2-C8=  0.92            C5-O4-C3-C2= 86.81            C5-O4-C3-C6=265.22            
H28-C5-O4-C3=298.27           H29-C5-O4-C3= 59.99           H30-C5-O4-C3=179.14           C7-C6-C3-C2=178.90            
C7-C6-C3-O4=  0.49            C10-C6-C3-C2=358.73           C10-C6-C3-O4=180.32           H31-C7-C6-C3=356.48           
H31-C7-C6-C10=176.66          H32-C7-C6-C3=117.16           H32-C7-C6-C10=297.34          H33-C7-C6-C3=236.97           
H33-C7-C6-C10= 57.15          N9-C8-C2-C1=180.24            N9-C8-C2-C3=  0.43            H34-C8-C2-C1=359.87           
H34-C8-C2-C3=180.06           C10-N9-C8-C2=358.63           C10-N9-C8-H34=178.98          N9-C10-C6-C3=  0.34           
N9-C10-C6-C7=180.16           C11-C10-C6-C3=183.26          C11-C10-C6-C7=  3.09          C6-C10-N9-C8=  0.96           
C11-C10-N9-C8=178.23          
           -------------------------------------------------
          |                Final Singlepoint                |
           -------------------------------------------------

          ...................................................
          :                      SETUP                      :
          :.................................................:
          :  # basis functions                 121          :
          :  # atomic orbitals                 120          :
          :  # shells                           68          :
          :  # electrons                       126          :
          :  max. iterations                   250          :
          :  Hamiltonian                  GFN2-xTB          :
          :  restarted?                      false          :
          :  GBSA solvation                  false          :
          :  PC potential                    false          :
          :  electronic temp.          300.0000000     K    :
          :  accuracy                    1.0000000          :
          :  -> integral cutoff          0.2500000E+02      :
          :  -> integral neglect         0.1000000E-07      :
          :  -> SCF convergence          0.1000000E-05 Eh   :
          :  -> wf. convergence          0.1000000E-03 e    :
          :  Broyden damping             0.4000000          :
          :  net charge                          0          :
          :  unpaired electrons                  0          :
          ...................................................

 iter      E             dE          RMSdq      gap      omega  full diag
   1    -71.2380165 -0.712380E+02  0.715E-05    2.98       0.0  T
   2    -71.2380165 -0.670468E-10  0.438E-05    2.98     348.3  T
   3    -71.2380165 -0.435989E-10  0.247E-05    2.98     616.2  T

   *** convergence criteria satisfied after 3 iterations ***

         #    Occupation            Energy/Eh            Energy/eV
      -------------------------------------------------------------
         1        2.0000           -0.7613763             -20.7181
       ...           ...                  ...                  ...
        57        2.0000           -0.4064764             -11.0608
        58        2.0000           -0.4039378             -10.9917
        59        2.0000           -0.3980655             -10.8319
        60        2.0000           -0.3904878             -10.6257
        61        2.0000           -0.3838174             -10.4442
        62        2.0000           -0.3755839             -10.2202
        63        2.0000           -0.3697004             -10.0601 (HOMO)
        64                         -0.2603590              -7.0847 (LUMO)
        65                         -0.2427541              -6.6057
        66                         -0.2336369              -6.3576
        67                         -0.2094379              -5.6991
        68                         -0.2043757              -5.5613
       ...                                ...                  ...
       120                          0.8859839              24.1088
      -------------------------------------------------------------
                  HL-Gap            0.1093414 Eh            2.9753 eV
             Fermi-level           -0.3150297 Eh           -8.5724 eV

 SCC (total)                   0 d,  0 h,  0 min,  0.041 sec
 SCC setup                      ...        0 min,  0.000 sec (  0.789%)
 Dispersion                     ...        0 min,  0.000 sec (  0.745%)
 classical contributions        ...        0 min,  0.000 sec (  0.353%)
 integral evaluation            ...        0 min,  0.008 sec ( 19.008%)
 iterations                     ...        0 min,  0.007 sec ( 17.017%)
 molecular gradient             ...        0 min,  0.025 sec ( 61.697%)
 printout                       ...        0 min,  0.000 sec (  0.371%)

         :::::::::::::::::::::::::::::::::::::::::::::::::::::
         ::                     SUMMARY                     ::
         :::::::::::::::::::::::::::::::::::::::::::::::::::::
         :: total energy             -70.311887749807 Eh    ::
         :: gradient norm              0.000472026837 Eh/a0 ::
         :: HOMO-LUMO gap              2.975330788366 eV    ::
         ::.................................................::
         :: SCC energy               -71.238219474219 Eh    ::
         :: -> isotropic ES            0.092149035794 Eh    ::
         :: -> anisotropic ES          0.006586716741 Eh    ::
         :: -> anisotropic XC          0.029279519233 Eh    ::
         :: -> dispersion             -0.047337240967 Eh    ::
         :: repulsion energy           0.926331724412 Eh    ::
         :: add. restraining           0.000000000000 Eh    ::
         :: total charge              -0.000000000000 e     ::
         :::::::::::::::::::::::::::::::::::::::::::::::::::::

           -------------------------------------------------
          |                Property Printout                |
           -------------------------------------------------

    * Orbital Energies and Occupations

         #    Occupation            Energy/Eh            Energy/eV
      -------------------------------------------------------------
         1        2.0000           -0.7613763             -20.7181
       ...           ...                  ...                  ...
        51        2.0000           -0.4547927             -12.3755
        52        2.0000           -0.4461342             -12.1399
        53        2.0000           -0.4426985             -12.0464
        54        2.0000           -0.4360781             -11.8663
        55        2.0000           -0.4247093             -11.5569
        56        2.0000           -0.4140173             -11.2660
        57        2.0000           -0.4064764             -11.0608
        58        2.0000           -0.4039378             -10.9917
        59        2.0000           -0.3980655             -10.8319
        60        2.0000           -0.3904878             -10.6257
        61        2.0000           -0.3838174             -10.4442
        62        2.0000           -0.3755839             -10.2202
        63        2.0000           -0.3697004             -10.0601 (HOMO)
        64                         -0.2603590              -7.0847 (LUMO)
        65                         -0.2427541              -6.6057
        66                         -0.2336369              -6.3576
        67                         -0.2094379              -5.6991
        68                         -0.2043757              -5.5613
        69                         -0.1825693              -4.9680
        70                         -0.1676461              -4.5619
        71                         -0.1143846              -3.1126
        72                         -0.0847121              -2.3051
        73                         -0.0457864              -1.2459
        74                         -0.0041065              -0.1117
       ...                                ...                  ...
       120                          0.8859839              24.1088
      -------------------------------------------------------------
                  HL-Gap            0.1093414 Eh            2.9753 eV
             Fermi-level           -0.3150297 Eh           -8.5724 eV

     #   Z          covCN         q      C6AA      α(0)
     1   6 C        3.757    -0.104    22.537     6.769
     2   6 C        2.957    -0.016    28.403     8.741
     3   6 C        2.896     0.135    25.043     8.205
     4   8 O        1.703    -0.308    19.135     5.906
     5   6 C        3.656     0.046    20.096     6.435
     6   6 C        2.959    -0.015    28.377     8.738
     7   6 C        3.757    -0.109    22.628     6.782
     8   6 C        2.910     0.041    27.076     8.532
     9   7 N        1.843    -0.244    27.220     7.732
    10   6 C        3.007     0.079    26.227     8.401
    11   6 C        3.802    -0.088    22.173     6.704
    12  16 S        2.879     0.427   124.866    18.807
    13   6 C        3.202     0.106    25.132     8.168
    14   7 N        1.893    -0.285    28.242     7.878
    15   6 C        3.219     0.069    25.780     8.257
    16   6 C        3.097     0.034    27.135     8.537
    17   7 N        2.798    -0.111    23.422     7.188
    18   6 C        2.907    -0.053    29.307     8.877
    19   6 C        2.924    -0.069    29.712     8.939
    20   6 C        2.865     0.137    25.003     8.196
    21   8 O        1.706    -0.268    18.443     5.798
    22   6 C        3.642     0.037    20.296     6.477
    23   6 C        2.911    -0.067    29.675     8.933
    24   8 O        0.859    -0.502    23.832     6.545
    25   1 H        0.924     0.047     2.353     2.399
    26   1 H        0.925     0.059     2.212     2.326
    27   1 H        0.925     0.046     2.364     2.404
    28   1 H        0.924     0.033     2.547     2.496
    29   1 H        0.924     0.036     2.498     2.472
    30   1 H        0.925     0.057     2.237     2.339
    31   1 H        0.925     0.057     2.237     2.339
    32   1 H        0.925     0.073     2.058     2.243
    33   1 H        0.925     0.043     2.413     2.429
    34   1 H        0.925     0.044     2.395     2.420
    35   1 H        0.925     0.088     1.897     2.154
    36   1 H        0.925     0.068     2.108     2.270
    37   1 H        0.860     0.188     1.168     1.693
    38   1 H        0.926     0.037     2.485     2.465
    39   1 H        0.926     0.042     2.419     2.432
    40   1 H        0.924     0.039     2.456     2.451
    41   1 H        0.924     0.040     2.453     2.449
    42   1 H        0.925     0.063     2.160     2.299
    43   1 H        0.926     0.066     2.126     2.280

 Mol. C6AA /au·bohr⁶  :      23690.093913
 Mol. C8AA /au·bohr⁸  :     592305.428677
 Mol. α(0) /au        :        239.905649


Wiberg/Mayer (AO) data.
largest (>0.10) Wiberg bond orders for each atom

 ---------------------------------------------------------------------------
     #   Z sym  total        # sym  WBO       # sym  WBO       # sym  WBO
 ---------------------------------------------------------------------------
     1   6 C    3.995 --     2 C    1.027    26 H    0.980    27 H    0.979
                            25 H    0.966
     2   6 C    3.984 --     8 C    1.396     3 C    1.365     1 C    1.027
     3   6 C    3.944 --     6 C    1.377     2 C    1.365     4 O    1.002
     4   8 O    2.105 --     3 C    1.002     5 C    0.969
     5   6 C    3.947 --    30 H    0.980    29 H    0.979    28 H    0.979
                             4 O    0.969
     6   6 C    3.986 --     3 C    1.377    10 C    1.358     7 C    1.029
                             8 C    0.102
     7   6 C    3.993 --     6 C    1.029    31 H    0.982    33 H    0.968
                            32 H    0.963
     8   6 C    3.982 --     9 N    1.442     2 C    1.396    34 H    0.961
                             6 C    0.102
     9   7 N    3.060 --     8 C    1.442    10 C    1.400
    10   6 C    3.982 --     9 N    1.400     6 C    1.358    11 C    1.026
    11   6 C    3.978 --    10 C    1.026    36 H    0.964    35 H    0.963
                            12 S    0.877
    12  16 S    3.756 --    24 O    1.792    13 C    0.931    11 C    0.877
    13   6 C    3.948 --    14 N    1.551    17 N    1.228    12 S    0.931
    14   7 N    3.015 --    13 C    1.551    15 C    1.200    17 N    0.127
    15   6 C    3.977 --    23 C    1.353    16 C    1.236    14 N    1.200
    16   6 C    3.951 --    18 C    1.356    15 C    1.236    17 N    1.148
    17   7 N    3.559 --    13 C    1.228    16 C    1.148    37 H    0.932
                            14 N    0.127
    18   6 C    3.988 --    19 C    1.474    16 C    1.356    38 H    0.968
                            23 C    0.115
    19   6 C    3.981 --    18 C    1.474    20 C    1.327    39 H    0.966
    20   6 C    3.935 --    23 C    1.403    19 C    1.327    21 O    1.058
    21   8 O    2.224 --    20 C    1.058    22 C    0.987
    22   6 C    3.947 --    21 O    0.987    42 H    0.979    41 H    0.976
                            40 H    0.976
    23   6 C    3.982 --    20 C    1.403    15 C    1.353    43 H    0.964
                            18 C    0.115
    24   8 O    1.971 --    12 S    1.792
    25   1 H    0.997 --     1 C    0.966
    26   1 H    0.996 --     1 C    0.980
    27   1 H    0.997 --     1 C    0.979
    28   1 H    0.999 --     5 C    0.979
    29   1 H    0.999 --     5 C    0.979
    30   1 H    0.996 --     5 C    0.980
    31   1 H    0.997 --     7 C    0.982
    32   1 H    0.995 --     7 C    0.963
    33   1 H    0.998 --     7 C    0.968
    34   1 H    0.997 --     8 C    0.961
    35   1 H    0.992 --    11 C    0.963
    36   1 H    0.995 --    11 C    0.964
    37   1 H    0.964 --    17 N    0.932
    38   1 H    0.999 --    18 C    0.968
    39   1 H    0.998 --    19 C    0.966
    40   1 H    0.998 --    22 C    0.976
    41   1 H    0.998 --    22 C    0.976
    42   1 H    0.996 --    22 C    0.979
    43   1 H    0.995 --    23 C    0.964
 ---------------------------------------------------------------------------

Topologies differ in total number of bonds
Writing topology from bond orders to xtbtopo.mol

molecular dipole:
                 x           y           z       tot (Debye)
 q only:        0.393       0.317      -0.183
   full:        0.328       0.857      -0.880       3.232
molecular quadrupole (traceless):
                xx          xy          yy          xz          yz          zz
 q only:       21.192       1.638     -12.727     -12.172      -0.514      -8.465
  q+dip:       26.927       5.290     -15.326     -16.656      -2.201     -11.601
   full:       26.171       5.732     -13.942     -16.184       0.983     -12.229

           -------------------------------------------------
          |                Geometry Summary                 |
           -------------------------------------------------

      molecular mass/u    :      345.4164963
   center of mass at/Å    :        0.2276261       0.0332701       0.1297909
  moments of inertia/u·Å² :        0.6712778E+03   0.6574658E+04   0.6866738E+04
rotational constants/cm⁻¹ :        0.2511275E-01   0.2564032E-02   0.2454970E-02

 * 42 selected distances

     #   Z          #   Z                                           value/Å
     2   6 C        3   6 C                                       1.3979184
     3   6 C        4   8 O                                       1.3839976
     4   8 O        5   6 C                                       1.4130851
     3   6 C        6   6 C                                       1.3970820
     2   6 C        8   6 C                                       1.3888028
     8   6 C        9   7 N                                       1.3171539
     6   6 C       10   6 C                                       1.3986753
     9   7 N       10   6 C                                       1.3264120
    10   6 C       11   6 C                                       1.4893539
    12  16 S       13   6 C                                       1.8021452 (max)
    13   6 C       14   7 N                                       1.2997727
    14   7 N       15   6 C                                       1.3738879
    15   6 C       16   6 C                                       1.4191245
    13   6 C       17   7 N                                       1.3595631
    16   6 C       17   7 N                                       1.3725282
    16   6 C       18   6 C                                       1.3820880
    18   6 C       19   6 C                                       1.3816704
    19   6 C       20   6 C                                       1.4032132
    20   6 C       21   8 O                                       1.3648776
    21   8 O       22   6 C                                       1.4057589
    15   6 C       23   6 C                                       1.3856976
    20   6 C       23   6 C                                       1.3892599
    12  16 S       24   8 O                                       1.4723654
     1   6 C       25   1 H                                       1.0908536
     1   6 C       26   1 H                                       1.0876024
     1   6 C       27   1 H                                       1.0877009
     5   6 C       28   1 H                                       1.0947449
     5   6 C       29   1 H                                       1.0952279
     5   6 C       30   1 H                                       1.0887492
     7   6 C       31   1 H                                       1.0863849
     7   6 C       32   1 H                                       1.0887184
     7   6 C       33   1 H                                       1.0898222
     8   6 C       34   1 H                                       1.0822184
    11   6 C       35   1 H                                       1.0867839
    11   6 C       36   1 H                                       1.0861623
    17   7 N       37   1 H                                       1.0076305 (min)
    18   6 C       38   1 H                                       1.0792863
    19   6 C       39   1 H                                       1.0780705
    22   6 C       40   1 H                                       1.0951785
    22   6 C       41   1 H                                       1.0951417
    22   6 C       42   1 H                                       1.0890723
    23   6 C       43   1 H                                       1.0762259

 * 7 distinct bonds (by element types)

   Z      Z             #   av. dist./Å        max./Å        min./Å
   1 H    6 C          18     1.0876636     1.0952279     1.0762259
   6 C    6 C          11     1.4029896     1.4893539     1.3816704
   1 H    7 N           1     1.0076305     1.0076305     1.0076305
   6 C    7 N           6     1.3415530     1.3738879     1.2997727
   6 C    8 O           4     1.3919298     1.4130851     1.3648776
   6 C   16 S           1     1.8021452     1.8021452     1.8021452
   8 O   16 S           1     1.4723654     1.4723654     1.4723654


optimized geometry written to: xtbopt.xyz


           -------------------------------------------------
          | TOTAL ENERGY              -70.311887749807 Eh   |
          | GRADIENT NORM               0.000472026837 Eh/α |
          | HOMO-LUMO GAP               2.975330788366 eV   |
           -------------------------------------------------

------------------------------------------------------------------------
 * finished run on 2025/05/15 at 16:31:07.451     
------------------------------------------------------------------------
 total:
 * wall-time:     0 d,  0 h,  0 min,  1.539 sec
 *  cpu-time:     0 d,  0 h,  0 min,  1.436 sec
 * ratio c/w:     0.933 speedup
 SCF:
 * wall-time:     0 d,  0 h,  0 min,  0.072 sec
 *  cpu-time:     0 d,  0 h,  0 min,  0.066 sec
 * ratio c/w:     0.924 speedup
 ANC optimizer:
 * wall-time:     0 d,  0 h,  0 min,  1.454 sec
 *  cpu-time:     0 d,  0 h,  0 min,  1.357 sec
 * ratio c/w:     0.933 speedup



----- Single-point -----
      -----------------------------------------------------------      
     |                   =====================                   |     
     |                           x T B                           |     
     |                   =====================                   |     
     |                         S. Grimme                         |     
     |          Mulliken Center for Theoretical Chemistry        |     
     |                    University of Bonn                     |     
      -----------------------------------------------------------      

   * xtb version 6.7.1 (edcfbbe) compiled by 'conda@3ef47c1a292c' on 2024-11-25

   xtb is free software: you can redistribute it and/or modify it under
   the terms of the GNU Lesser General Public License as published by
   the Free Software Foundation, either version 3 of the License, or
   (at your option) any later version.
   
   xtb is distributed in the hope that it will be useful,
   but WITHOUT ANY WARRANTY; without even the implied warranty of
   MERCHANTABILITY or FITNESS FOR A PARTICULAR PURPOSE.  See the
   GNU Lesser General Public License for more details.
   
   Cite this work as:
   * C. Bannwarth, E. Caldeweyher, S. Ehlert, A. Hansen, P. Pracht,
     J. Seibert, S. Spicher, S. Grimme, WIREs Comput. Mol. Sci., 2020, 11,
     e01493. DOI: 10.1002/wcms.1493
   
   for GFN2-xTB:
   * C. Bannwarth, S. Ehlert and S. Grimme., J. Chem. Theory Comput., 2019,
     15, 1652-1671. DOI: 10.1021/acs.jctc.8b01176
   for GFN1-xTB:
   * S. Grimme, C. Bannwarth, P. Shushkov, J. Chem. Theory Comput., 2017,
     13, 1989-2009. DOI: 10.1021/acs.jctc.7b00118
   for GFN0-xTB:
   * P. Pracht, E. Caldeweyher, S. Ehlert, S. Grimme, ChemRxiv, 2019, preprint.
     DOI: 10.26434/chemrxiv.8326202.v1
   for GFN-FF:
   * S. Spicher and S. Grimme, Angew. Chem. Int. Ed., 2020, 59, 15665-15673.
     DOI: 10.1002/anie.202004239
   
   for ALPB and GBSA implicit solvation:
   * S. Ehlert, M. Stahn, S. Spicher, S. Grimme, J. Chem. Theory Comput.,
     2021, 17, 4250-4261. DOI: 10.1021/acs.jctc.1c00471
   
   for ddCOSMO and CPCM-X implicit solvation:
   * M. Stahn, S. Ehlert, S. Grimme, J. Phys. Chem. A,
     2023, XX, XXXX-XXXX. DOI: 10.1021/acs.jpca.3c04382
   
   for DFT-D4:
   * E. Caldeweyher, C. Bannwarth and S. Grimme, J. Chem. Phys., 2017,
     147, 034112. DOI: 10.1063/1.4993215
   * E. Caldeweyher, S. Ehlert, A. Hansen, H. Neugebauer, S. Spicher,
     C. Bannwarth and S. Grimme, J. Chem. Phys., 2019, 150, 154122.
     DOI: 10.1063/1.5090222
   * E. Caldeweyher, J.-M. Mewes, S. Ehlert and S. Grimme, Phys. Chem. Chem. Phys.
     2020, 22, 8499-8512. DOI: 10.1039/D0CP00502A
   
   for sTDA-xTB:
   * S. Grimme and C. Bannwarth, J. Chem. Phys., 2016, 145, 054103.
     DOI: 10.1063/1.4959605
   
   in the mass-spec context:
   * V. Asgeirsson, C. Bauer and S. Grimme, Chem. Sci., 2017, 8, 4879.
     DOI: 10.1039/c7sc00601b
   * J. Koopman and S. Grimme, ACS Omega 2019, 4, 12, 15120-15133.
     DOI: 10.1021/acsomega.9b02011
   
   for metadynamics refer to:
   * S. Grimme, J. Chem. Theory Comput., 2019, 155, 2847-2862
     DOI: 10.1021/acs.jctc.9b00143
   
   for SPH calculations refer to:
   * S. Spicher and S. Grimme, J. Chem. Theory Comput., 2021, 17, 1701-1714
     DOI: 10.1021/acs.jctc.0c01306
   
   for ONIOM refer to:
   * C. Plett, A. Katbashev, S. Ehlert, S. Grimme, M. Bursch,
     Phys. Chem. Chem. Phys., 2023, 25, 17860-17868. DOI: 10.1039/D3CP02178E
   
   for DIPRO refer to:
   * J. Kohn, N. Gildemeister, S. Grimme, D. Fazzi, A. Hansen,
     J. Chem. Phys., 2023, just accepted.
   
   for PTB refer to:
   * S. Grimme, M. Mueller, A. Hansen, J. Chem. Phys., 2023, 158, 124111.
     DOI: 10.1063/5.0137838
   
   with help from (in alphabetical order)
   P. Atkinson, C. Bannwarth, F. Bohle, G. Brandenburg, E. Caldeweyher
   M. Checinski, S. Dohm, S. Ehlert, S. Ehrlich, I. Gerasimov, C. Hölzer
   A. Katbashev, J. Kohn, J. Koopman, C. Lavigne, S. Lehtola, F. März, M. Müller,
   F. Musil, H. Neugebauer, J. Pisarek, C. Plett, P. Pracht, F. Pultar,
   J. Seibert, P. Shushkov, S. Spicher, M. Stahn, M. Steiner, T. Strunk,
   J. Stückrath, T. Rose, and J. Unsleber
   
 * started run on 2025/05/15 at 16:31:07.474     
   ID    Z sym.   atoms
    1    6 C      1-3, 5-8, 10, 11, 13, 15, 16, 18-20, 22, 23
    2    8 O      4, 21, 24
    3    7 N      9, 14, 17
    4   16 S      12
    5    1 H      25-43

           -------------------------------------------------
          |                Calculation Setup                |
           -------------------------------------------------

          program call               : xtb /rds/general/user/hgt20/home/callum/QDESCP/Omeprazole_rdkit_conf_4/Omeprazole_rdkit_conf_4.xyz --acc 1 --gfn 2 --chrg 0 --uhf 0 --etemp 300 --input /rds/general/user/hgt20/home/callum/QDESCP/Omeprazole_rdkit_conf_4/Omeprazole_rdkit_conf_4_xtb.inp -P 1
          hostname                   : login-c
          coordinate file            : /rds/general/user/hgt20/home/callum/QDESCP/Omeprazole_rdkit_conf_4/Omeprazole_rdkit_conf_4.xyz
          omp threads                :                     1


           -------------------------------------------------
          |                 G F N 2 - x T B                 |
           -------------------------------------------------

        Reference                      10.1021/acs.jctc.8b01176
      * Hamiltonian:
        H0-scaling (s, p, d)           1.850000    2.230000    2.230000
        zeta-weighting                 0.500000
      * Dispersion:
        s8                             2.700000
        a1                             0.520000
        a2                             5.000000
        s9                             5.000000
      * Repulsion:
        kExp                           1.500000    1.000000
        rExp                           1.000000
      * Coulomb:
        alpha                          2.000000
        third order                    shell-resolved
        anisotropic                    true
        a3                             3.000000
        a5                             4.000000
        cn-shift                       1.200000
        cn-exp                         4.000000
        max-rad                        5.000000

q/qsh data taken from xtbrestart
CAMM data taken from xtbrestart

          ...................................................
          :                      SETUP                      :
          :.................................................:
          :  # basis functions                 121          :
          :  # atomic orbitals                 120          :
          :  # shells                           68          :
          :  # electrons                       126          :
          :  max. iterations                   250          :
          :  Hamiltonian                  GFN2-xTB          :
          :  restarted?                       true          :
          :  GBSA solvation                  false          :
          :  PC potential                    false          :
          :  electronic temp.          300.0000000     K    :
          :  accuracy                    1.0000000          :
          :  -> integral cutoff          0.2500000E+02      :
          :  -> integral neglect         0.1000000E-07      :
[...]
   * M. Stahn, S. Ehlert, S. Grimme, J. Phys. Chem. A,
     2023, XX, XXXX-XXXX. DOI: 10.1021/acs.jpca.3c04382
   
   for DFT-D4:
   * E. Caldeweyher, C. Bannwarth and S. Grimme, J. Chem. Phys., 2017,
     147, 034112. DOI: 10.1063/1.4993215
   * E. Caldeweyher, S. Ehlert, A. Hansen, H. Neugebauer, S. Spicher,
     C. Bannwarth and S. Grimme, J. Chem. Phys., 2019, 150, 154122.
     DOI: 10.1063/1.5090222
   * E. Caldeweyher, J.-M. Mewes, S. Ehlert and S. Grimme, Phys. Chem. Chem. Phys.
     2020, 22, 8499-8512. DOI: 10.1039/D0CP00502A
   
   for sTDA-xTB:
   * S. Grimme and C. Bannwarth, J. Chem. Phys., 2016, 145, 054103.
     DOI: 10.1063/1.4959605
   
   in the mass-spec context:
   * V. Asgeirsson, C. Bauer and S. Grimme, Chem. Sci., 2017, 8, 4879.
     DOI: 10.1039/c7sc00601b
   * J. Koopman and S. Grimme, ACS Omega 2019, 4, 12, 15120-15133.
     DOI: 10.1021/acsomega.9b02011
   
   for metadynamics refer to:
   * S. Grimme, J. Chem. Theory Comput., 2019, 155, 2847-2862
     DOI: 10.1021/acs.jctc.9b00143
   
   for SPH calculations refer to:
   * S. Spicher and S. Grimme, J. Chem. Theory Comput., 2021, 17, 1701-1714
     DOI: 10.1021/acs.jctc.0c01306
   
   for ONIOM refer to:
   * C. Plett, A. Katbashev, S. Ehlert, S. Grimme, M. Bursch,
     Phys. Chem. Chem. Phys., 2023, 25, 17860-17868. DOI: 10.1039/D3CP02178E
   
   for DIPRO refer to:
   * J. Kohn, N. Gildemeister, S. Grimme, D. Fazzi, A. Hansen,
     J. Chem. Phys., 2023, just accepted.
   
   for PTB refer to:
   * S. Grimme, M. Mueller, A. Hansen, J. Chem. Phys., 2023, 158, 124111.
     DOI: 10.1063/5.0137838
   
   with help from (in alphabetical order)
   P. Atkinson, C. Bannwarth, F. Bohle, G. Brandenburg, E. Caldeweyher
   M. Checinski, S. Dohm, S. Ehlert, S. Ehrlich, I. Gerasimov, C. Hölzer
   A. Katbashev, J. Kohn, J. Koopman, C. Lavigne, S. Lehtola, F. März, M. Müller,
   F. Musil, H. Neugebauer, J. Pisarek, C. Plett, P. Pracht, F. Pultar,
   J. Seibert, P. Shushkov, S. Spicher, M. Stahn, M. Steiner, T. Strunk,
   J. Stückrath, T. Rose, and J. Unsleber
   
 * started run on 2025/05/15 at 16:31:09.550     
   ID    Z sym.   atoms
    1    6 C      1-3, 5-8, 10, 11, 13, 15, 16, 18-20, 22, 23
    2    8 O      4, 21, 24
    3    7 N      9, 14, 17
    4   16 S      12
    5    1 H      25-43

           -------------------------------------------------
          |                Calculation Setup                |
           -------------------------------------------------

          program call               : xtb /rds/general/user/hgt20/home/callum/QDESCP/Omeprazole_rdkit_conf_4/Omeprazole_rdkit_conf_4.xyz --acc 1 --gfn 2 --chrg 0 --uhf 2 --etemp 300 --input /rds/general/user/hgt20/home/callum/QDESCP/Omeprazole_rdkit_conf_4/Omeprazole_rdkit_conf_4_xtb.inp -P 1
          hostname                   : login-c
          coordinate file            : /rds/general/user/hgt20/home/callum/QDESCP/Omeprazole_rdkit_conf_4/Omeprazole_rdkit_conf_4.xyz
          omp threads                :                     1


           -------------------------------------------------
          |                 G F N 2 - x T B                 |
           -------------------------------------------------

        Reference                      10.1021/acs.jctc.8b01176
      * Hamiltonian:
        H0-scaling (s, p, d)           1.850000    2.230000    2.230000
        zeta-weighting                 0.500000
      * Dispersion:
        s8                             2.700000
        a1                             0.520000
        a2                             5.000000
        s9                             5.000000
      * Repulsion:
        kExp                           1.500000    1.000000
        rExp                           1.000000
      * Coulomb:
        alpha                          2.000000
        third order                    shell-resolved
        anisotropic                    true
        a3                             3.000000
        a5                             4.000000
        cn-shift                       1.200000
        cn-exp                         4.000000
        max-rad                        5.000000


          ...................................................
          :                      SETUP                      :
          :.................................................:
          :  # basis functions                 121          :
          :  # atomic orbitals                 120          :
          :  # shells                           68          :
          :  # electrons                       126          :
          :  max. iterations                   250          :
          :  Hamiltonian                  GFN2-xTB          :
          :  restarted?                      false          :
          :  GBSA solvation                  false          :
          :  PC potential                    false          :
          :  electronic temp.          300.0000000     K    :
          :  accuracy                    1.0000000          :
          :  -> integral cutoff          0.2500000E+02      :
          :  -> integral neglect         0.1000000E-07      :
          :  -> SCF convergence          0.1000000E-05 Eh   :
          :  -> wf. convergence          0.1000000E-03 e    :
          :  Broyden damping             0.4000000          :
          :  net charge                          0          :
          :  unpaired electrons                  2          :
          ...................................................

 iter      E             dE          RMSdq      gap      omega  full diag
   1    -70.9623560 -0.709624E+02  0.435E+00    0.44       0.0  T
   2    -70.9924337 -0.300777E-01  0.277E+00    0.28       1.0  T
   3    -70.7562334  0.236200E+00  0.232E+00    1.13       1.0  T
   4    -70.8707915 -0.114558E+00  0.171E+00    0.38       1.0  T
   5    -70.9937553 -0.122964E+00  0.129E+00    0.81       1.0  T
   6    -71.0959897 -0.102234E+00  0.690E-01    0.35       1.0  T
   7    -71.0141316  0.818582E-01  0.896E-01    0.56       1.0  T
   8    -71.1022532 -0.881217E-01  0.611E-01    0.29       1.0  T
   9    -71.1092107 -0.695743E-02  0.482E-01    0.39       1.0  T
  10    -71.1103907 -0.118006E-02  0.312E-01    0.31       1.0  T
  11    -71.1124346 -0.204386E-02  0.205E-01    0.34       1.0  T
  12    -71.1166424 -0.420778E-02  0.147E-01    0.31       1.0  T
  13    -71.1178159 -0.117355E-02  0.759E-02    0.31       1.0  T
  14    -71.1163604  0.145553E-02  0.118E-01    0.29       1.0  T
  15    -71.1180311 -0.167073E-02  0.168E-02    0.30       1.0  T
  16    -71.1180469 -0.157464E-04  0.100E-02    0.30       1.5  T
  17    -71.1180505 -0.364306E-05  0.486E-03    0.30       3.1  T
  18    -71.1180506 -0.112212E-06  0.400E-03    0.30       3.8  T
  19    -71.1180522 -0.154052E-05  0.122E-03    0.30      12.5  T
  20    -71.1180514  0.801249E-06  0.270E-03    0.30       5.6  T
  21    -71.1180517 -0.373106E-06  0.196E-03    0.30       7.8  T
  22    -71.1180522 -0.485884E-06  0.252E-04    0.30      60.4  T
  23    -71.1180522  0.229561E-07  0.474E-04    0.30      32.1  T

   *** convergence criteria satisfied after 23 iterations ***

         #    Occupation            Energy/Eh            Energy/eV
      -------------------------------------------------------------
         1        2.0000           -0.7516448             -20.4533
       ...           ...                  ...                  ...
        58        2.0000           -0.3987288             -10.8500
        59        2.0000           -0.3926970             -10.6858
        60        1.9781           -0.3811261             -10.3710
        61        1.8972           -0.3795740             -10.3287
        62        1.7443           -0.3785303             -10.3003
        63        1.3804           -0.3770519             -10.2601
        64        0.9971           -0.2515153              -6.8441 (HOMO)
        65        0.0029           -0.2404173              -6.5421 (LUMO)
        66        0.0000           -0.2310521              -6.2872
        67                         -0.2075125              -5.6467
        68                         -0.1997894              -5.4365
        69                         -0.1709015              -4.6505
       ...                                ...                  ...
       120                          0.8930472              24.3011
      -------------------------------------------------------------
                  HL-Gap            0.0110980 Eh            0.3020 eV
             Fermi-level           -0.3117409 Eh           -8.4829 eV

 transition dipole moment (au) for excitation:          63          64
     X       Y       Z   
  -1.5492  -0.6506   0.5805  total (au/Debye):    1.778   4.519
 dE (eV)             :    3.416
 oscillator strength :  0.37404E+00

 SCC (total)                   0 d,  0 h,  0 min,  0.157 sec
 SCC setup                      ...        0 min,  0.001 sec (  0.360%)
 Dispersion                     ...        0 min,  0.000 sec (  0.306%)
 classical contributions        ...        0 min,  0.000 sec (  0.097%)
 integral evaluation            ...        0 min,  0.027 sec ( 17.387%)
 iterations                     ...        0 min,  0.055 sec ( 35.229%)
 molecular gradient             ...        0 min,  0.065 sec ( 41.537%)
 printout                       ...        0 min,  0.008 sec (  5.079%)

         :::::::::::::::::::::::::::::::::::::::::::::::::::::
         ::                     SUMMARY                     ::
         :::::::::::::::::::::::::::::::::::::::::::::::::::::
         :: total energy             -70.191923464646 Eh    ::
         :: gradient norm              0.099754905213 Eh/a0 ::
         :: HOMO-LUMO gap              0.301990712166 eV    ::
         ::.................................................::
         :: SCC energy               -71.118255189058 Eh    ::
         :: -> isotropic ES            0.087192484298 Eh    ::
         :: -> anisotropic ES          0.005830740676 Eh    ::
         :: -> anisotropic XC          0.025018572087 Eh    ::
         :: -> dispersion             -0.047325104338 Eh    ::
         :: repulsion energy           0.926331724412 Eh    ::
         :: add. restraining           0.000000000000 Eh    ::
         :: total charge               0.000000000005 e     ::
         :::::::::::::::::::::::::::::::::::::::::::::::::::::

           -------------------------------------------------
          |                Property Printout                |
           -------------------------------------------------

    * Orbital Energies and Occupations

         #    Occupation            Energy/Eh            Energy/eV
      -------------------------------------------------------------
         1        2.0000           -0.7516448             -20.4533
       ...           ...                  ...                  ...
        52        2.0000           -0.4439754             -12.0812
        53        2.0000           -0.4423894             -12.0380
        54        2.0000           -0.4356678             -11.8551
        55        2.0000           -0.4213920             -11.4667
        56        2.0000           -0.4111567             -11.1881
        57        2.0000           -0.4022946             -10.9470
        58        2.0000           -0.3987288             -10.8500
        59        2.0000           -0.3926970             -10.6858
        60        1.9781           -0.3811261             -10.3710
        61        1.8972           -0.3795740             -10.3287
        62        1.7443           -0.3785303             -10.3003
        63        1.3804           -0.3770519             -10.2601
        64        0.9971           -0.2515153              -6.8441 (HOMO)
        65        0.0029           -0.2404173              -6.5421 (LUMO)
        66        0.0000           -0.2310521              -6.2872
        67                         -0.2075125              -5.6467
        68                         -0.1997894              -5.4365
        69                         -0.1709015              -4.6505
        70                         -0.1610431              -4.3822
        71                         -0.1120080              -3.0479
        72                         -0.0830536              -2.2600
        73                         -0.0376837              -1.0254
        74                          0.0030953               0.0842
        75                          0.0190676               0.5189
       ...                                ...                  ...
       120                          0.8930472              24.3011
      -------------------------------------------------------------
                  HL-Gap            0.0110980 Eh            0.3020 eV
             Fermi-level           -0.3117409 Eh           -8.4829 eV

     #   Z          covCN         q      C6AA      α(0)
     1   6 C        3.757    -0.102    22.510     6.765
     2   6 C        2.957    -0.022    28.547     8.764
     3   6 C        2.896     0.125    25.266     8.241
     4   8 O        1.703    -0.308    19.139     5.907
     5   6 C        3.656     0.045    20.106     6.437
     6   6 C        2.959    -0.008    28.227     8.714
     7   6 C        3.757    -0.108    22.614     6.780
     8   6 C        2.910     0.040    27.093     8.535
     9   7 N        1.843    -0.209    26.385     7.613
    10   6 C        3.007     0.063    26.568     8.455
    11   6 C        3.802    -0.084    22.104     6.693
    12  16 S        2.879     0.388   126.219    18.909
    13   6 C        3.202     0.081    25.658     8.253
    14   7 N        1.893    -0.296    28.526     7.918
    15   6 C        3.219     0.072    25.714     8.246
    16   6 C        3.097     0.053    26.695     8.468
    17   7 N        2.798    -0.113    23.462     7.194
    18   6 C        2.907    -0.065    29.617     8.924
    19   6 C        2.924    -0.079    29.974     8.978
    20   6 C        2.865     0.148    24.778     8.159
    21   8 O        1.706    -0.238    17.936     5.718
    22   6 C        3.642     0.032    20.385     6.491
    23   6 C        2.911    -0.077    29.932     8.971
    24   8 O        0.859    -0.485    23.454     6.493
    25   1 H        0.924     0.046     2.369     2.407
    26   1 H        0.925     0.061     2.188     2.313
    27   1 H        0.925     0.045     2.385     2.415
    28   1 H        0.924     0.033     2.551     2.498
    29   1 H        0.924     0.036     2.508     2.476
    30   1 H        0.925     0.056     2.250     2.346
    31   1 H        0.925     0.060     2.200     2.319
    32   1 H        0.925     0.076     2.021     2.223
    33   1 H        0.925     0.046     2.374     2.409
    34   1 H        0.925     0.049     2.329     2.386
    35   1 H        0.925     0.084     1.940     2.178
    36   1 H        0.925     0.069     2.100     2.266
    37   1 H        0.860     0.185     1.185     1.705
    38   1 H        0.926     0.033     2.539     2.492
    39   1 H        0.926     0.036     2.500     2.472
    40   1 H        0.924     0.051     2.310     2.377
    41   1 H        0.924     0.051     2.307     2.375
    42   1 H        0.925     0.069     2.096     2.264
    43   1 H        0.926     0.063     2.169     2.303

 Mol. C6AA /au·bohr⁶  :      23671.661568
 Mol. C8AA /au·bohr⁸  :     592395.533090
 Mol. α(0) /au        :        239.851669


Wiberg/Mayer (AO) data.
largest (>0.10) Wiberg bond orders for each atom

 ---------------------------------------------------------------------------
     #   Z sym  total        # sym  WBO       # sym  WBO       # sym  WBO
 ---------------------------------------------------------------------------
     1   6 C    3.988 --     2 C    1.026    27 H    0.979    26 H    0.977
                            25 H    0.965
     2   6 C    3.874 --     8 C    1.386     3 C    1.297     1 C    1.026
     3   6 C    3.880 --     6 C    1.399     2 C    1.297     4 O    0.998
     4   8 O    2.095 --     3 C    0.998     5 C    0.970
     5   6 C    3.944 --    30 H    0.980    29 H    0.979    28 H    0.978
                             4 O    0.970
     6   6 C    3.937 --     3 C    1.399    10 C    1.301     7 C    1.029
     7   6 C    3.982 --     6 C    1.029    31 H    0.979    33 H    0.966
                            32 H    0.958
     8   6 C    3.943 --     9 N    1.429     2 C    1.386    34 H    0.955
     9   7 N    2.968 --     8 C    1.429    10 C    1.310
    10   6 C    3.885 --     9 N    1.310     6 C    1.301    11 C    1.064
    11   6 C    3.922 --    10 C    1.064    36 H    0.963    35 H    0.963
                            12 S    0.782
    12  16 S    3.774 --    24 O    1.760    13 C    0.999    11 C    0.782
    13   6 C    3.840 --    14 N    1.438    17 N    1.129    12 S    0.999
    14   7 N    2.938 --    13 C    1.438    15 C    1.233
    15   6 C    3.938 --    23 C    1.333    14 N    1.233    16 C    1.192
    16   6 C    3.881 --    18 C    1.303    17 N    1.203    15 C    1.192
    17   7 N    3.485 --    16 C    1.203    13 C    1.129    37 H    0.933
    18   6 C    3.853 --    19 C    1.408    16 C    1.303    38 H    0.968
    19   6 C    3.881 --    18 C    1.408    20 C    1.319    39 H    0.966
    20   6 C    3.819 --    19 C    1.319    23 C    1.283    21 O    1.093
    21   8 O    2.216 --    20 C    1.093    22 C    0.986
    22   6 C    3.939 --    21 O    0.986    42 H    0.978    41 H    0.971
                            40 H    0.971
    23   6 C    3.803 --    15 C    1.333    20 C    1.283    43 H    0.964
    24   8 O    1.937 --    12 S    1.760
    25   1 H    0.992 --     1 C    0.965
    26   1 H    0.992 --     1 C    0.977
    27   1 H    0.995 --     1 C    0.979
    28   1 H    0.999 --     5 C    0.978
    29   1 H    0.999 --     5 C    0.979
    30   1 H    0.995 --     5 C    0.980
    31   1 H    0.994 --     7 C    0.979
    32   1 H    0.991 --     7 C    0.958
    33   1 H    0.995 --     7 C    0.966
    34   1 H    0.989 --     8 C    0.955
    35   1 H    0.991 --    11 C    0.963
    36   1 H    0.993 --    11 C    0.963
    37   1 H    0.965 --    17 N    0.933
    38   1 H    0.998 --    18 C    0.968
    39   1 H    0.998 --    19 C    0.966
    40   1 H    0.991 --    22 C    0.971
    41   1 H    0.991 --    22 C    0.971
    42   1 H    0.995 --    22 C    0.978
    43   1 H    0.995 --    23 C    0.964
 ---------------------------------------------------------------------------

Topologies differ in total number of bonds
Writing topology from bond orders to xtbtopo.mol

molecular dipole:
                 x           y           z       tot (Debye)
 q only:        0.772       0.098      -0.238
   full:        0.772       0.563      -0.848       3.248
molecular quadrupole (traceless):
                xx          xy          yy          xz          yz          zz
 q only:       29.196      -0.623     -16.787     -13.086      -0.759     -12.409
  q+dip:       34.779       2.339     -19.429     -17.823      -2.736     -15.349
   full:       33.900       2.844     -18.078     -17.333       0.155     -15.823


           -------------------------------------------------
          | TOTAL ENERGY              -70.191923464646 Eh   |
          | GRADIENT NORM               0.099754905213 Eh/α |
          | HOMO-LUMO GAP               0.301990712166 eV   |
           -------------------------------------------------

------------------------------------------------------------------------
 * finished run on 2025/05/15 at 16:31:09.722     
------------------------------------------------------------------------
 total:
 * wall-time:     0 d,  0 h,  0 min,  0.171 sec
 *  cpu-time:     0 d,  0 h,  0 min,  0.112 sec
 * ratio c/w:     0.657 speedup
 SCF:
 * wall-time:     0 d,  0 h,  0 min,  0.157 sec
 *  cpu-time:     0 d,  0 h,  0 min,  0.100 sec
 * ratio c/w:     0.633 speedup


