57
 energy: -87.642049913256 gnorm: 0.000546262499 xtb: 6.7.1 (edcfbbe)
O            3.33431175520719       -0.21704995791389        2.14451273359964
C            3.73686059786839       -0.44078438902442        1.01620363377138
C            2.94725915365813       -0.93413946599234       -0.08873079055462
C            1.49859541864709       -1.19105563906586        0.19420123645911
C            0.69765123053662        0.11760088628502        0.10701805709073
N           -0.72125695621003       -0.12947251446971        0.27170987952285
C           -1.36399646793386       -0.51474415050380       -0.96774669269160
C           -2.78425203851120       -0.99907557764488       -0.70098843708783
C           -3.59699916193279        0.11421653237780       -0.03412228790506
C           -2.85592663641052        0.54537842362114        1.23552871912605
C           -1.43208845062132        0.97023367911842        0.89166343779970
C           -4.97387592497743       -0.35152856346021        0.28857954263143
N           -5.20118890871166       -1.37735690452107        1.05204608051836
O           -6.55128359903436       -1.56572506494666        1.17110082660424
C           -7.17689456443140       -0.61991445471255        0.45308191692260
C           -6.21686088968936        0.21338827342396       -0.15467762149023
C           -6.61821224992239        1.27765566314478       -0.95963820025814
C           -7.96658788693532        1.48093415513297       -1.13606470003497
C           -8.89145144944091        0.63457895134223       -0.51748573937167
F          -10.19922066220282        0.87902389393649       -0.72442958259967
C           -8.54140225196155       -0.42846505459933        0.28588899631439
C            3.52234341518188       -1.08595470880842       -1.31825152465998
N            4.83693835272625       -0.81585422390226       -1.54330029917734
C            5.56017906089554       -0.40528363595812       -0.55618847125516
N            5.08403913315464       -0.21972471477606        0.69482309421956
C            5.98093070685075        0.32298107939295        1.69157401029248
C            6.64755766886677        1.57337388089954        1.12310587245147
C            7.40004706578140        1.25500734005051       -0.18012266539523
C            7.01422694964233       -0.12210284848600       -0.74388627601100
C            2.77324082674577       -1.56474859623955       -2.52278359218492
H            1.39784117994986       -1.57322825691432        1.21055702160624
H            1.09670148797249       -1.92709633905718       -0.49982335852180
H            0.91492912646816        0.62697170556320       -0.84935049992892
H            1.03963213926229        0.76755042987796        0.91456552033854
H           -1.39103176925005        0.33117433556337       -1.68468889238278
H           -0.78873337304839       -1.32176669787770       -1.42540440714259
H           -2.75543230803715       -1.85665332903148       -0.02961049815364
H           -3.25325323275671       -1.30295805623892       -1.63902893296769
H           -3.67013149301461        0.96829073767830       -0.71732881585869
H           -3.37970577956300        1.37200694546855        1.71944468211824
H           -2.82478321124591       -0.29991585215670        1.92221775943006
H           -1.46280508577719        1.86033256736693        0.23242984358745
H           -0.90686002249389        1.24514670304583        1.80885196995726
H           -5.89243040574674        1.92204431099774       -1.42985934782170
H           -8.33680408045111        2.28791042210339       -1.74804141399130
H           -9.27820189439860       -1.06226018216526        0.74830282673853
H            5.37609005765194        0.55233523607342        2.57257172884711
H            6.73045957773603       -0.42843637839429        1.96091082830154
H            7.32334932815082        1.99038809807630        1.86917084047987
H            5.86729546512600        2.31224511133822        0.93111407155418
H            8.47724647684260        1.26915436706122       -0.01129000641385
H            7.17568001608482        2.01824770612598       -0.92575044249675
H            7.25151269662756       -0.19221446504769       -1.80426229891768
H            7.57647117994341       -0.89956525281977       -0.21830032303748
H            2.43013013922258       -2.58764415331987       -2.37438086589169
H            1.90453626088268       -0.93792519820519       -2.71309803629848
H            3.43551428702553       -1.53522680883222       -3.38304010977875
