31
 energy: -58.964538966884 gnorm: 0.000714192337 xtb: 6.7.1 (edcfbbe)
N           -4.86436674152658        0.38423004001987       -0.43011610953424
C           -3.53327925099789        0.48895304195176       -0.51776440448139
N           -3.01687566034391        1.46177681181127       -1.27410736272307
C           -1.70724405240757        1.58045006960813       -1.36322050659847
Cl          -1.15143706522500        2.85253348814764       -2.35241598032954
N           -0.76778814620690        0.84902076196100       -0.79388147079920
C           -1.27136015958076       -0.13808143931928       -0.04776641109274
C           -2.64315346440679       -0.38004284888132        0.13984742678664
N           -2.81056433609410       -1.46390859564228        0.96285229471908
C           -1.60846415534218       -1.84781906274603        1.25390762026948
N           -0.62096543064877       -1.09877189362765        0.66961559272284
C            0.80628996674092       -1.28329259761868        0.80635804128254
C            1.48602579346387       -1.63204759720559       -0.52955150702706
C            2.37453828123530       -0.41256706077381       -0.84065628329466
C            2.51700487823675        0.27069952566470        0.52767960061134
O            1.37357683840059       -0.09830722166048        1.28892555223134
C            2.59845431223536        1.79981801009267        0.45355611227344
O            1.71913091763568        2.36563340937353       -0.47137611426719
O            3.65092425999694       -0.76143831137663       -1.31105401486827
H           -5.43839223359234        1.05452543248110       -0.90973252497337
H           -5.26436915730908       -0.33003530862986        0.15080945215628
H           -1.38136698619706       -2.68214098327793        1.88810219073484
H            0.93314129560712       -2.08856810460442        1.54775596069646
H            0.74692621329338       -1.81934571494745       -1.30650201366197
H            2.12026604306261       -2.51136442194637       -0.41554627202638
H            1.86700960365660        0.26960954995395       -1.53319669714866
H            3.42129685021337       -0.11853795041984        1.01834621005369
H            3.60487524715672        2.08741412774040        0.13925674634586
H            2.41375533253887        2.18780204960185        1.46618193954117
H            0.84218285203438        1.95625388156289       -0.37368747431119
H            3.60432815437098       -0.94245108729272       -2.25531959328795
