38
 energy: -65.473810797999 gnorm: 0.000876202631 xtb: 6.7.1 (edcfbbe)
O            0.29475312887049       -2.52263618923260       -3.35078278062137
C            1.29211018052174       -2.60619885304412       -2.36981074996320
C            1.46098898225712       -1.30960109695140       -1.56719618980937
O            0.39187419618197       -1.21945243633064       -0.65112909411424
C            0.40427122720116       -0.03393965254697        0.09958132100311
C            1.68597586815062        0.08819809067866        0.94117634637999
C            2.90026690012519       -0.00574216968548        0.01797610860935
C            2.81082894534032       -1.27669892105210       -0.83509622323058
O            3.84110975432044       -1.31127820420543       -1.78699604367761
O            4.10565017100408       -0.04674323875261        0.74212032551030
O            1.73399086162275        1.31655202263650        1.61647935049273
O           -0.64224022377450       -0.02580874601898        1.00672845255167
C           -1.87845940636084        0.39708559610051        0.58139069977851
C           -2.37541533671819        0.15567329035826       -0.68983069757890
C           -3.63901206834097        0.61185874004521       -1.02626723461904
C           -4.40256828913545        1.30324684922903       -0.10260501176304
C           -3.89988836455888        1.54679083823492        1.16528858627699
C           -2.63749973627245        1.10239990967763        1.52258486868996
C           -2.03551823104470        1.38715305062239        2.87605352165697
O           -0.83105516931446        2.13219030167196        2.79340181296266
H            0.54684885745882       -1.85311591007506       -3.99724248386504
H            0.97677638570244       -3.39822040213715       -1.68810714665618
H            2.26496194113551       -2.85915989646350       -2.81031328862189
H            1.43196557613164       -0.44679254594936       -2.25757636449328
H            0.33673471791414        0.84049054826715       -0.58398850162834
H            1.69933713021188       -0.75301999935933        1.65186491918750
H            2.89788095105363        0.87503815145590       -0.64723043204113
H            2.87637955357057       -2.14791739421713       -0.16450243102025
H            4.66013087461761       -1.10255021544314       -1.31910389556005
H            4.05226296052518        0.63917310081498        1.41882911004822
H            0.89838307403124        1.44034815585880        2.10389572429023
H           -1.78244427341438       -0.40728795274393       -1.39371578160454
H           -4.02695203380117        0.41902094977136       -2.01496731299807
H           -5.38765238383989        1.65574667760645       -0.36765486104493
H           -4.49320052962399        2.09129139758891        1.88613633834852
H           -1.75640529707614        0.45032097796853        3.36449557932892
H           -2.76291672943990        1.91539505304064        3.50638996310406
H           -1.01255416523278        2.95799012258094        2.33002349669129
