----- Optimization -----
      -----------------------------------------------------------      
     |                   =====================                   |     
     |                           x T B                           |     
     |                   =====================                   |     
     |                         S. Grimme                         |     
     |          Mulliken Center for Theoretical Chemistry        |     
     |                    University of Bonn                     |     
      -----------------------------------------------------------      

   * xtb version 6.7.1 (edcfbbe) compiled by 'conda@3ef47c1a292c' on 2024-11-25

   xtb is free software: you can redistribute it and/or modify it under
   the terms of the GNU Lesser General Public License as published by
   the Free Software Foundation, either version 3 of the License, or
   (at your option) any later version.
   
   xtb is distributed in the hope that it will be useful,
   but WITHOUT ANY WARRANTY; without even the implied warranty of
   MERCHANTABILITY or FITNESS FOR A PARTICULAR PURPOSE.  See the
   GNU Lesser General Public License for more details.
   
   Cite this work as:
   * C. Bannwarth, E. Caldeweyher, S. Ehlert, A. Hansen, P. Pracht,
     J. Seibert, S. Spicher, S. Grimme, WIREs Comput. Mol. Sci., 2020, 11,
     e01493. DOI: 10.1002/wcms.1493
   
   for GFN2-xTB:
   * C. Bannwarth, S. Ehlert and S. Grimme., J. Chem. Theory Comput., 2019,
     15, 1652-1671. DOI: 10.1021/acs.jctc.8b01176
   for GFN1-xTB:
   * S. Grimme, C. Bannwarth, P. Shushkov, J. Chem. Theory Comput., 2017,
     13, 1989-2009. DOI: 10.1021/acs.jctc.7b00118
   for GFN0-xTB:
   * P. Pracht, E. Caldeweyher, S. Ehlert, S. Grimme, ChemRxiv, 2019, preprint.
     DOI: 10.26434/chemrxiv.8326202.v1
   for GFN-FF:
   * S. Spicher and S. Grimme, Angew. Chem. Int. Ed., 2020, 59, 15665-15673.
     DOI: 10.1002/anie.202004239
   
   for ALPB and GBSA implicit solvation:
   * S. Ehlert, M. Stahn, S. Spicher, S. Grimme, J. Chem. Theory Comput.,
     2021, 17, 4250-4261. DOI: 10.1021/acs.jctc.1c00471
   
   for ddCOSMO and CPCM-X implicit solvation:
   * M. Stahn, S. Ehlert, S. Grimme, J. Phys. Chem. A,
     2023, XX, XXXX-XXXX. DOI: 10.1021/acs.jpca.3c04382
   
   for DFT-D4:
   * E. Caldeweyher, C. Bannwarth and S. Grimme, J. Chem. Phys., 2017,
     147, 034112. DOI: 10.1063/1.4993215
   * E. Caldeweyher, S. Ehlert, A. Hansen, H. Neugebauer, S. Spicher,
     C. Bannwarth and S. Grimme, J. Chem. Phys., 2019, 150, 154122.
     DOI: 10.1063/1.5090222
   * E. Caldeweyher, J.-M. Mewes, S. Ehlert and S. Grimme, Phys. Chem. Chem. Phys.
     2020, 22, 8499-8512. DOI: 10.1039/D0CP00502A
   
   for sTDA-xTB:
   * S. Grimme and C. Bannwarth, J. Chem. Phys., 2016, 145, 054103.
     DOI: 10.1063/1.4959605
   
   in the mass-spec context:
   * V. Asgeirsson, C. Bauer and S. Grimme, Chem. Sci., 2017, 8, 4879.
     DOI: 10.1039/c7sc00601b
   * J. Koopman and S. Grimme, ACS Omega 2019, 4, 12, 15120-15133.
     DOI: 10.1021/acsomega.9b02011
   
   for metadynamics refer to:
   * S. Grimme, J. Chem. Theory Comput., 2019, 155, 2847-2862
     DOI: 10.1021/acs.jctc.9b00143
   
   for SPH calculations refer to:
   * S. Spicher and S. Grimme, J. Chem. Theory Comput., 2021, 17, 1701-1714
     DOI: 10.1021/acs.jctc.0c01306
   
   for ONIOM refer to:
   * C. Plett, A. Katbashev, S. Ehlert, S. Grimme, M. Bursch,
     Phys. Chem. Chem. Phys., 2023, 25, 17860-17868. DOI: 10.1039/D3CP02178E
   
   for DIPRO refer to:
   * J. Kohn, N. Gildemeister, S. Grimme, D. Fazzi, A. Hansen,
     J. Chem. Phys., 2023, just accepted.
   
   for PTB refer to:
   * S. Grimme, M. Mueller, A. Hansen, J. Chem. Phys., 2023, 158, 124111.
     DOI: 10.1063/5.0137838
   
   with help from (in alphabetical order)
   P. Atkinson, C. Bannwarth, F. Bohle, G. Brandenburg, E. Caldeweyher
   M. Checinski, S. Dohm, S. Ehlert, S. Ehrlich, I. Gerasimov, C. Hölzer
   A. Katbashev, J. Kohn, J. Koopman, C. Lavigne, S. Lehtola, F. März, M. Müller,
   F. Musil, H. Neugebauer, J. Pisarek, C. Plett, P. Pracht, F. Pultar,
   J. Seibert, P. Shushkov, S. Spicher, M. Stahn, M. Steiner, T. Strunk,
   J. Stückrath, T. Rose, and J. Unsleber
   
 * started run on 2025/05/15 at 16:09:13.024     
   ID    Z sym.   atoms
    1    8 O      1, 4, 9-12, 20
    2    6 C      2, 3, 5-8, 13-19
    3    1 H      21-38

           -------------------------------------------------
          |                Calculation Setup                |
           -------------------------------------------------

          program call               : xtb /rds/general/user/hgt20/home/callum/QDESCP/Salicin_rdkit_conf_18/Salicin_rdkit_conf_18.xyz --opt normal --acc 1 --gfn 2 --chrg 0 --uhf 0 -P 1
          hostname                   : login-c
          coordinate file            : /rds/general/user/hgt20/home/callum/QDESCP/Salicin_rdkit_conf_18/Salicin_rdkit_conf_18.xyz
          omp threads                :                     1


           -------------------------------------------------
          |                 G F N 2 - x T B                 |
           -------------------------------------------------

        Reference                      10.1021/acs.jctc.8b01176
      * Hamiltonian:
        H0-scaling (s, p, d)           1.850000    2.230000    2.230000
        zeta-weighting                 0.500000
      * Dispersion:
        s8                             2.700000
        a1                             0.520000
        a2                             5.000000
        s9                             5.000000
      * Repulsion:
        kExp                           1.500000    1.000000
        rExp                           1.000000
      * Coulomb:
        alpha                          2.000000
        third order                    shell-resolved
        anisotropic                    true
        a3                             3.000000
        a5                             4.000000
        cn-shift                       1.200000
        cn-exp                         4.000000
        max-rad                        5.000000


          ...................................................
          :                      SETUP                      :
          :.................................................:
          :  # basis functions                  98          :
          :  # atomic orbitals                  98          :
          :  # shells                           58          :
          :  # electrons                       112          :
          :  max. iterations                   250          :
          :  Hamiltonian                  GFN2-xTB          :
          :  restarted?                      false          :
          :  GBSA solvation                  false          :
          :  PC potential                    false          :
          :  electronic temp.          300.0000000     K    :
          :  accuracy                    1.0000000          :
          :  -> integral cutoff          0.2500000E+02      :
          :  -> integral neglect         0.1000000E-07      :
          :  -> SCF convergence          0.1000000E-05 Eh   :
          :  -> wf. convergence          0.1000000E-03 e    :
          :  Broyden damping             0.4000000          :
          :  net charge                          0          :
          :  unpaired electrons                  0          :
          ...................................................

 iter      E             dE          RMSdq      gap      omega  full diag
   1    -66.0067999 -0.660068E+02  0.447E+00    4.23       0.0  T
   2    -66.0708112 -0.640113E-01  0.245E+00    4.25       1.0  T
   3    -66.0693225  0.148866E-02  0.871E-01    4.08       1.0  T
   4    -66.0739453 -0.462281E-02  0.277E-01    4.23       1.0  T
   5    -66.0754260 -0.148071E-02  0.914E-02    4.23       1.0  T
   6    -66.0754753 -0.492194E-04  0.401E-02    4.22       1.0  T
   7    -66.0754822 -0.692955E-05  0.147E-02    4.23       1.1  T
   8    -66.0754843 -0.208844E-05  0.503E-03    4.23       3.2  T
   9    -66.0754846 -0.291243E-06  0.189E-03    4.23       8.6  T
  10    -66.0754846 -0.320494E-07  0.834E-04    4.23      19.5  T
  11    -66.0754846 -0.609607E-08  0.368E-04    4.23      44.1  T

   *** convergence criteria satisfied after 11 iterations ***

         #    Occupation            Energy/Eh            Energy/eV
      -------------------------------------------------------------
         1        2.0000           -0.7284344             -19.8217
       ...           ...                  ...                  ...
        50        2.0000           -0.4267666             -11.6129
        51        2.0000           -0.4249244             -11.5628
        52        2.0000           -0.4230406             -11.5115
        53        2.0000           -0.4180799             -11.3765
        54        2.0000           -0.4165560             -11.3351
        55        2.0000           -0.4133367             -11.2475
        56        2.0000           -0.4000782             -10.8867 (HOMO)
        57                         -0.2447288              -6.6594 (LUMO)
        58                         -0.2387342              -6.4963
        59                         -0.1208484              -3.2885
        60                         -0.0562720              -1.5312
        61                         -0.0212327              -0.5778
       ...                                ...                  ...
        98                          0.6151977              16.7404
      -------------------------------------------------------------
                  HL-Gap            0.1553494 Eh            4.2273 eV
             Fermi-level           -0.3224035 Eh           -8.7730 eV

 SCC (total)                   0 d,  0 h,  0 min,  0.081 sec
 SCC setup                      ...        0 min,  0.000 sec (  0.377%)
 Dispersion                     ...        0 min,  0.000 sec (  0.452%)
 classical contributions        ...        0 min,  0.000 sec (  0.159%)
 integral evaluation            ...        0 min,  0.006 sec (  7.962%)
 iterations                     ...        0 min,  0.053 sec ( 66.305%)
 molecular gradient             ...        0 min,  0.020 sec ( 24.564%)
 printout                       ...        0 min,  0.000 sec (  0.172%)

         :::::::::::::::::::::::::::::::::::::::::::::::::::::
         ::                     SUMMARY                     ::
         :::::::::::::::::::::::::::::::::::::::::::::::::::::
         :: total energy             -65.461550648690 Eh    ::
         :: gradient norm              0.076264468198 Eh/a0 ::
         :: HOMO-LUMO gap              4.227273111279 eV    ::
         ::.................................................::
         :: SCC energy               -66.075197223086 Eh    ::
         :: -> isotropic ES            0.157079835016 Eh    ::
         :: -> anisotropic ES         -0.004154705470 Eh    ::
         :: -> anisotropic XC          0.000346122827 Eh    ::
         :: -> dispersion             -0.036551548982 Eh    ::
         :: repulsion energy           0.613646574396 Eh    ::
         :: add. restraining           0.000000000000 Eh    ::
         :: total charge              -0.000000000000 e     ::
         :::::::::::::::::::::::::::::::::::::::::::::::::::::

      ----------------------------------------------------------- 
     |                   =====================                   |
     |                        A N C O P T                        |
     |                   =====================                   |
     |               Approximate Normal Coordinate               |
     |                Rational Function Optimizer                |
      ----------------------------------------------------------- 
      ----------------------------------------------------------- 
     |                   =====================                   |
     |                        A N C O P T                        |
     |                   =====================                   |
     |               Approximate Normal Coordinate               |
     |                Rational Function Optimizer                |
      ----------------------------------------------------------- 

          ...................................................
          :                      SETUP                      :
          :.................................................:
          :   optimization level            normal          :
          :   max. optcycles                   200          :
          :   ANC micro-cycles                  20          :
          :   degrees of freedom               108          :
          :.................................................:
          :   RF solver                   davidson          :
          :   write xtbopt.log                true          :
          :   linear?                        false          :
          :   energy convergence         0.5000000E-05 Eh   :
          :   grad. convergence          0.1000000E-02 Eh/α :
          :   maxmium RF displ.          1.0000000          :
          :   Hlow (freq-cutoff)         0.1000000E-01      :
          :   Hmax (freq-cutoff)         5.0000000          :
          :   S6 in model hess.         20.0000000          :
          ...................................................

generating ANC from exact Hessian ...
Using Lindh-Hessian (1995)
 Shifting diagonal of input Hessian by    9.5611571321768223E-003
 Lowest  eigenvalues of input Hessian
    0.000000    0.000000    0.000000    0.000000    0.000000    0.000000
    0.010000    0.010519    0.011396    0.012381    0.013480    0.013665
    0.015012    0.015974    0.016265    0.017608    0.018935    0.020342
 Highest eigenvalues
    1.522741    1.577979    1.705889    1.838639    1.953172    2.024920


........................................................................
.............................. CYCLE    1 ..............................
........................................................................

 iter      E             dE          RMSdq      gap      omega  full diag
   1    -66.0754846 -0.660755E+02  0.106E-04    4.23       0.0  T
   2    -66.0754846 -0.624425E-10  0.599E-05    4.23     270.6  T
   3    -66.0754846  0.980549E-12  0.352E-05    4.23     461.4  T
     SCC iter.                  ...        0 min,  0.050 sec
     gradient                   ...        0 min,  0.020 sec
 * total energy  :   -65.4615507 Eh     change       -0.3955293E-08 Eh
   gradient norm :     0.0762640 Eh/α   predicted     0.0000000E+00 (-100.00%)
   displ. norm   :     0.2870924 α      lambda       -0.1104077E-01
   maximum displ.:     0.0920111 α      in ANC's #29, #22, #3, ...

........................................................................
.............................. CYCLE    2 ..............................
........................................................................

 iter      E             dE          RMSdq      gap      omega  full diag
   1    -66.1054616 -0.661055E+02  0.192E-01    4.27       0.0  T
   2    -66.1054943 -0.327156E-04  0.114E-01    4.27       1.0  T
   3    -66.1054831  0.111700E-04  0.228E-02    4.27       1.0  T
   4    -66.1054996 -0.164551E-04  0.745E-03    4.27       2.2  T
   5    -66.1055008 -0.128575E-05  0.350E-03    4.27       4.6  T
   6    -66.1055009 -0.845381E-07  0.133E-03    4.27      12.2  T
   7    -66.1055009 -0.868953E-08  0.561E-04    4.27      28.9  T
   8    -66.1055009 -0.399564E-08  0.210E-04    4.27      77.1  T
     SCC iter.                  ...        0 min,  0.013 sec
     gradient                   ...        0 min,  0.063 sec
 * total energy  :   -65.4693465 Eh     change       -0.7795817E-02 Eh
   gradient norm :     0.0393682 Eh/α   predicted    -0.5976258E-02 ( -23.34%)
   displ. norm   :     0.2856829 α      lambda       -0.4318401E-02
   maximum displ.:     0.1221249 α      in ANC's #3, #25, #22, ...

........................................................................
.............................. CYCLE    3 ..............................
........................................................................

 iter      E             dE          RMSdq      gap      omega  full diag
   1    -66.1202185 -0.661202E+02  0.147E-01    4.27       0.0  T
   2    -66.1202402 -0.216920E-04  0.872E-02    4.27       1.0  T
   3    -66.1202392  0.102299E-05  0.151E-02    4.28       1.1  T
   4    -66.1202435 -0.432346E-05  0.509E-03    4.27       3.2  T
   5    -66.1202438 -0.270586E-06  0.273E-03    4.28       5.9  T
   6    -66.1202439 -0.135984E-06  0.109E-03    4.27      14.9  T
   7    -66.1202439 -0.348990E-08  0.412E-04    4.27      39.4  T
   8    -66.1202439 -0.223187E-08  0.134E-04    4.27     121.4  T
     SCC iter.                  ...        0 min,  0.013 sec
     gradient                   ...        0 min,  0.020 sec
 * total energy  :   -65.4718767 Eh     change       -0.2530243E-02 Eh
   gradient norm :     0.0105243 Eh/α   predicted    -0.2336460E-02 (  -7.66%)
   displ. norm   :     0.1925704 α      lambda       -0.6296380E-03
   maximum displ.:     0.1310408 α      in ANC's #3, #5, #6, ...

........................................................................
.............................. CYCLE    4 ..............................
........................................................................

 iter      E             dE          RMSdq      gap      omega  full diag
   1    -66.1201263 -0.661201E+02  0.654E-02    4.26       0.0  T
   2    -66.1201297 -0.344634E-05  0.395E-02    4.27       1.0  T
   3    -66.1201269  0.278837E-05  0.975E-03    4.27       1.7  T
   4    -66.1201305 -0.351843E-05  0.250E-03    4.27       6.5  T
   5    -66.1201306 -0.126677E-06  0.983E-04    4.27      16.5  T
   6    -66.1201306 -0.628789E-08  0.461E-04    4.27      35.2  T
     SCC iter.                  ...        0 min,  0.010 sec
     gradient                   ...        0 min,  0.020 sec
 * total energy  :   -65.4723554 Eh     change       -0.4786517E-03 Eh
   gradient norm :     0.0055520 Eh/α   predicted    -0.3265018E-03 ( -31.79%)
   displ. norm   :     0.2984341 α      lambda       -0.5839656E-03
   maximum displ.:     0.2124667 α      in ANC's #3, #5, #6, ...

........................................................................
.............................. CYCLE    5 ..............................
........................................................................

 iter      E             dE          RMSdq      gap      omega  full diag
   1    -66.1181139 -0.661181E+02  0.964E-02    4.26       0.0  T
   2    -66.1181198 -0.586520E-05  0.581E-02    4.27       1.0  T
   3    -66.1181121  0.762557E-05  0.153E-02    4.27       1.1  T
   4    -66.1181215 -0.933838E-05  0.308E-03    4.27       5.3  T
   5    -66.1181216 -0.155236E-06  0.135E-03    4.27      12.0  T
   6    -66.1181216 -0.760737E-08  0.651E-04    4.27      24.9  T
   7    -66.1181216 -0.220032E-08  0.227E-04    4.27      71.4  T
     SCC iter.                  ...        0 min,  0.012 sec
     gradient                   ...        0 min,  0.065 sec
 * total energy  :   -65.4727758 Eh     change       -0.4204659E-03 Eh
   gradient norm :     0.0067593 Eh/α   predicted    -0.3179895E-03 ( -24.37%)
   displ. norm   :     0.2666855 α      lambda       -0.3381346E-03
   maximum displ.:     0.1884854 α      in ANC's #3, #6, #5, ...

........................................................................
.............................. CYCLE    6 ..............................
........................................................................

 iter      E             dE          RMSdq      gap      omega  full diag
   1    -66.1172909 -0.661173E+02  0.852E-02    4.27       0.0  T
   2    -66.1172940 -0.308701E-05  0.509E-02    4.28       1.0  T
   3    -66.1172891  0.486861E-05  0.123E-02    4.28       1.3  T
   4    -66.1172951 -0.597808E-05  0.230E-03    4.28       7.0  T
   5    -66.1172951 -0.616381E-07  0.112E-03    4.28      14.5  T
   6    -66.1172951 -0.427836E-08  0.525E-04    4.28      30.9  T
   7    -66.1172951 -0.203175E-08  0.151E-04    4.28     107.6  T
     SCC iter.                  ...        0 min,  0.011 sec
     gradient                   ...        0 min,  0.020 sec
 * total energy  :   -65.4730482 Eh     change       -0.2723476E-03 Eh
   gradient norm :     0.0073062 Eh/α   predicted    -0.1810919E-03 ( -33.51%)
   displ. norm   :     0.3174134 α      lambda       -0.3603114E-03
   maximum displ.:     0.2181526 α      in ANC's #3, #6, #5, ...

........................................................................
.............................. CYCLE    7 ..............................
........................................................................

 iter      E             dE          RMSdq      gap      omega  full diag
   1    -66.1176815 -0.661177E+02  0.102E-01    4.28       0.0  T
   2    -66.1176848 -0.328127E-05  0.606E-02    4.29       1.0  T
   3    -66.1176790  0.575864E-05  0.135E-02    4.29       1.2  T
   4    -66.1176862 -0.712653E-05  0.248E-03    4.29       6.5  T
   5    -66.1176862 -0.521025E-07  0.125E-03    4.29      13.0  T
   6    -66.1176862 -0.565558E-08  0.568E-04    4.29      28.6  T
   7    -66.1176862 -0.279063E-08  0.149E-04    4.29     108.9  T
     SCC iter.                  ...        0 min,  0.011 sec
     gradient                   ...        0 min,  0.020 sec
 * total energy  :   -65.4733316 Eh     change       -0.2834262E-03 Eh
   gradient norm :     0.0056156 Eh/α   predicted    -0.1983487E-03 ( -30.02%)
   displ. norm   :     0.3364000 α      lambda       -0.2989783E-03
   maximum displ.:     0.2308640 α      in ANC's #3, #6, #5, ...

........................................................................
.............................. CYCLE    8 ..............................
........................................................................

 iter      E             dE          RMSdq      gap      omega  full diag
   1    -66.1188376 -0.661188E+02  0.110E-01    4.30       0.0  T
   2    -66.1188408 -0.321247E-05  0.649E-02    4.30       1.0  T
   3    -66.1188345  0.635976E-05  0.140E-02    4.30       1.2  T
   4    -66.1188423 -0.784420E-05  0.246E-03    4.30       6.6  T
   5    -66.1188424 -0.418469E-07  0.124E-03    4.30      13.1  T
   6    -66.1188424 -0.677700E-08  0.557E-04    4.30      29.1  T
   7    -66.1188424 -0.269557E-08  0.149E-04    4.30     108.7  T
     SCC iter.                  ...        0 min,  0.056 sec
     gradient                   ...        0 min,  0.020 sec
 * total energy  :   -65.4735477 Eh     change       -0.2160626E-03 Eh
   gradient norm :     0.0042652 Eh/α   predicted    -0.1664068E-03 ( -22.98%)
   displ. norm   :     0.2557292 α      lambda       -0.1590378E-03
   maximum displ.:     0.1767135 α      in ANC's #3, #6, #5, ...

........................................................................
.............................. CYCLE    9 ..............................
........................................................................

 iter      E             dE          RMSdq      gap      omega  full diag
   1    -66.1202877 -0.661203E+02  0.851E-02    4.30       0.0  T
   2    -66.1202896 -0.193116E-05  0.504E-02    4.31       1.0  T
   3    -66.1202854  0.419555E-05  0.113E-02    4.31       1.4  T
   4    -66.1202905 -0.511474E-05  0.179E-03    4.31       9.0  T
   5    -66.1202905 -0.220316E-07  0.910E-04    4.31      17.8  T
   6    -66.1202906 -0.487726E-08  0.408E-04    4.31      39.7  T
     SCC iter.                  ...        0 min,  0.010 sec
     gradient                   ...        0 min,  0.065 sec
 * total energy  :   -65.4736611 Eh     change       -0.1134821E-03 Eh
   gradient norm :     0.0036746 Eh/α   predicted    -0.8472002E-04 ( -25.35%)
   displ. norm   :     0.1962003 α      lambda       -0.8780263E-04
   maximum displ.:     0.1319840 α      in ANC's #3, #6, #5, ...

........................................................................
.............................. CYCLE   10 ..............................
........................................................................

 iter      E             dE          RMSdq      gap      omega  full diag
   1    -66.1212237 -0.661212E+02  0.671E-02    4.31       0.0  T
   2    -66.1212249 -0.121366E-05  0.398E-02    4.31       1.0  T
   3    -66.1212223  0.259905E-05  0.892E-03    4.31       1.8  T
   4    -66.1212254 -0.314703E-05  0.136E-03    4.31      11.9  T
   5    -66.1212254 -0.149114E-07  0.682E-04    4.31      23.8  T
   6    -66.1212254 -0.308076E-08  0.303E-04    4.31      53.6  T
     SCC iter.                  ...        0 min,  0.010 sec
     gradient                   ...        0 min,  0.020 sec
 * total energy  :   -65.4737235 Eh     change       -0.6236738E-04 Eh
   gradient norm :     0.0027358 Eh/α   predicted    -0.4559277E-04 ( -26.90%)
   displ. norm   :     0.1504889 α      lambda       -0.4650929E-04
   maximum displ.:     0.0941979 α      in ANC's #3, #2, #6, ...

........................................................................
.............................. CYCLE   11 ..............................
........................................................................

 iter      E             dE          RMSdq      gap      omega  full diag
   1    -66.1214719 -0.661215E+02  0.524E-02    4.31       0.0  T
   2    -66.1214725 -0.657003E-06  0.311E-02    4.32       1.0  T
   3    -66.1214714  0.115096E-05  0.609E-03    4.31       2.7  T
   4    -66.1214728 -0.141325E-05  0.106E-03    4.32      15.3  T
   5    -66.1214728 -0.998348E-08  0.530E-04    4.32      30.6  T
   6    -66.1214728 -0.163972E-08  0.224E-04    4.32      72.5  T
     SCC iter.                  ...        0 min,  0.055 sec
     gradient                   ...        0 min,  0.020 sec
 * total energy  :   -65.4737556 Eh     change       -0.3206625E-04 Eh
   gradient norm :     0.0017955 Eh/α   predicted    -0.2378322E-04 ( -25.83%)
   displ. norm   :     0.1259513 α      lambda       -0.2182917E-04
   maximum displ.:     0.0746880 α      in ANC's #2, #3, #6, ...

........................................................................
.............................. CYCLE   12 ..............................
........................................................................

 iter      E             dE          RMSdq      gap      omega  full diag
   1    -66.1217762 -0.661218E+02  0.432E-02    4.31       0.0  T
   2    -66.1217765 -0.332089E-06  0.256E-02    4.32       1.0  T
   3    -66.1217763  0.267241E-06  0.345E-03    4.32       4.7  T
   4    -66.1217766 -0.379569E-06  0.901E-04    4.32      18.0  T
   5    -66.1217766 -0.607091E-08  0.473E-04    4.32      34.3  T
     SCC iter.                  ...        0 min,  0.008 sec
     gradient                   ...        0 min,  0.065 sec
 * total energy  :   -65.4737757 Eh     change       -0.2015490E-04 Eh
   gradient norm :     0.0014376 Eh/α   predicted    -0.1099219E-04 ( -45.46%)
   displ. norm   :     0.0600687 α      lambda       -0.1158459E-04
   maximum displ.:     0.0473350 α      in ANC's #2, #6, #9, ...

........................................................................
.............................. CYCLE   13 ..............................
........................................................................

 iter      E             dE          RMSdq      gap      omega  full diag
   1    -66.1213043 -0.661213E+02  0.175E-02    4.31       0.0  T
   2    -66.1213043 -0.655594E-07  0.104E-02    4.31       1.6  T
   3    -66.1213043  0.431692E-07  0.130E-03    4.31      12.5  T
   4    -66.1213044 -0.643141E-07  0.415E-04    4.31      39.1  T
   5    -66.1213044 -0.204537E-08  0.217E-04    4.31      74.9  T
     SCC iter.                  ...        0 min,  0.008 sec
     gradient                   ...        0 min,  0.020 sec
 * total energy  :   -65.4737893 Eh     change       -0.1352819E-04 Eh
   gradient norm :     0.0010989 Eh/α   predicted    -0.5802505E-05 ( -57.11%)
   displ. norm   :     0.1149868 α      lambda       -0.1799376E-04
   maximum displ.:     0.0580328 α      in ANC's #2, #3, #9, ...

........................................................................
.............................. CYCLE   14 ..............................
........................................................................

 iter      E             dE          RMSdq      gap      omega  full diag
   1    -66.1223798 -0.661224E+02  0.254E-02    4.32       0.0  T
   2    -66.1223803 -0.526955E-06  0.154E-02    4.31       1.1  T
   3    -66.1223796  0.746700E-06  0.485E-03    4.32       3.3  T
   4    -66.1223805 -0.933160E-06  0.903E-04    4.31      18.0  T
   5    -66.1223805 -0.120147E-07  0.398E-04    4.31      40.8  T
     SCC iter.                  ...        0 min,  0.008 sec
     gradient                   ...        0 min,  0.065 sec
 * total energy  :   -65.4737984 Eh     change       -0.9154715E-05 Eh
   gradient norm :     0.0019836 Eh/α   predicted    -0.9053901E-05 (  -1.10%)
   displ. norm   :     0.0497516 α      lambda       -0.1004600E-04
   maximum displ.:     0.0356957 α      in ANC's #2, #6, #3, ...

........................................................................
.............................. CYCLE   15 ..............................
........................................................................

 iter      E             dE          RMSdq      gap      omega  full diag
   1    -66.1212519 -0.661213E+02  0.169E-02    4.31       0.0  T
   2    -66.1212520 -0.745815E-07  0.101E-02    4.31       1.6  T
   3    -66.1212519  0.838886E-07  0.179E-03    4.31       9.1  T
   4    -66.1212520 -0.114625E-06  0.432E-04    4.31      37.6  T
   5    -66.1212520 -0.107866E-08  0.226E-04    4.31      71.8  T
     SCC iter.                  ...        0 min,  0.008 sec
     gradient                   ...        0 min,  0.020 sec
 * total energy  :   -65.4738071 Eh     change       -0.8633899E-05 Eh
   gradient norm :     0.0010284 Eh/α   predicted    -0.5030164E-05 ( -41.74%)
   displ. norm   :     0.0214757 α      lambda       -0.3122440E-05
   maximum displ.:     0.0172815 α      in ANC's #2, #6, #8, ...

........................................................................
.............................. CYCLE   16 ..............................
........................................................................

 iter      E             dE          RMSdq      gap      omega  full diag
   1    -66.1211768 -0.661212E+02  0.678E-03    4.31       0.0  T
   2    -66.1211768 -0.259186E-07  0.408E-03    4.31       4.0  T
   3    -66.1211768  0.423057E-07  0.124E-03    4.31      13.1  T
   4    -66.1211768 -0.526186E-07  0.205E-04    4.31      79.2  T
   5    -66.1211769 -0.424606E-09  0.973E-05    4.31     166.7  T
     SCC iter.                  ...        0 min,  0.047 sec
     gradient                   ...        0 min,  0.023 sec
 * total energy  :   -65.4738108 Eh     change       -0.3744000E-05 Eh
   gradient norm :     0.0008760 Eh/α   predicted    -0.1562328E-05 ( -58.27%)
   displ. norm   :     0.0515130 α      lambda       -0.6048122E-05
   maximum displ.:     0.0432804 α      in ANC's #2, #8, #6, ...

   *** GEOMETRY OPTIMIZATION CONVERGED AFTER 16 ITERATIONS ***

------------------------------------------------------------------------
 total energy gain   :        -0.0122601 Eh       -7.6934 kcal/mol
 total RMSD          :         0.3825357 a0        0.2024 Å
 total power (kW/mol):        -2.0118136 (step)  -29.2483 (real)
------------------------------------------------------------------------

 ANCopt (total)                0 d,  0 h,  0 min,  1.101 sec
 optimizer setup                ...        0 min,  0.000 sec (  0.007%)
 model hessian                  ...        0 min,  0.016 sec (  1.496%)
 ANC generation                 ...        0 min,  0.001 sec (  0.114%)
 coordinate transformation      ...        0 min,  0.000 sec (  0.009%)
 single point calculation       ...        0 min,  1.033 sec ( 93.837%)
 optimization log               ...        0 min,  0.048 sec (  4.385%)
 hessian update                 ...        0 min,  0.000 sec (  0.016%)
 rational function              ...        0 min,  0.001 sec (  0.090%)

================
 final structure:
================
38
 xtb: 6.7.1 (edcfbbe)
O            0.29475312887049       -2.52263618923260       -3.35078278062137
C            1.29211018052174       -2.60619885304412       -2.36981074996320
C            1.46098898225712       -1.30960109695140       -1.56719618980937
O            0.39187419618197       -1.21945243633064       -0.65112909411424
C            0.40427122720116       -0.03393965254697        0.09958132100311
C            1.68597586815062        0.08819809067866        0.94117634637999
C            2.90026690012519       -0.00574216968548        0.01797610860935
C            2.81082894534032       -1.27669892105210       -0.83509622323058
O            3.84110975432044       -1.31127820420543       -1.78699604367761
O            4.10565017100408       -0.04674323875261        0.74212032551030
O            1.73399086162275        1.31655202263650        1.61647935049273
O           -0.64224022377450       -0.02580874601898        1.00672845255167
C           -1.87845940636084        0.39708559610051        0.58139069977851
C           -2.37541533671819        0.15567329035826       -0.68983069757890
C           -3.63901206834097        0.61185874004521       -1.02626723461904
C           -4.40256828913545        1.30324684922903       -0.10260501176304
C           -3.89988836455888        1.54679083823492        1.16528858627699
C           -2.63749973627245        1.10239990967763        1.52258486868996
C           -2.03551823104470        1.38715305062239        2.87605352165697
O           -0.83105516931446        2.13219030167196        2.79340181296266
H            0.54684885745882       -1.85311591007506       -3.99724248386504
H            0.97677638570244       -3.39822040213715       -1.68810714665618
H            2.26496194113551       -2.85915989646350       -2.81031328862189
H            1.43196557613164       -0.44679254594936       -2.25757636449328
H            0.33673471791414        0.84049054826715       -0.58398850162834
H            1.69933713021188       -0.75301999935933        1.65186491918750
H            2.89788095105363        0.87503815145590       -0.64723043204113
H            2.87637955357057       -2.14791739421713       -0.16450243102025
H            4.66013087461761       -1.10255021544314       -1.31910389556005
H            4.05226296052518        0.63917310081498        1.41882911004822
H            0.89838307403124        1.44034815585880        2.10389572429023
H           -1.78244427341438       -0.40728795274393       -1.39371578160454
H           -4.02695203380117        0.41902094977136       -2.01496731299807
H           -5.38765238383989        1.65574667760645       -0.36765486104493
H           -4.49320052962399        2.09129139758891        1.88613633834852
H           -1.75640529707614        0.45032097796853        3.36449557932892
H           -2.76291672943990        1.91539505304064        3.50638996310406
H           -1.01255416523278        2.95799012258094        2.33002349669129

 Bond Distances (Angstroems)
 ---------------------------
O1-C2=1.4014         O1-H21=0.9642        C2-O1=1.4014         C2-C3=1.5342         C2-H22=1.0915        C2-H23=1.0975        
C3-C2=1.5342         C3-O4=1.4108         C3-C8=1.5359         C3-H24=1.1054        O4-C3=1.4108         O4-C5=1.4033         
C5-O4=1.4033         C5-C6=1.5382         C5-O12=1.3850        C5-H25=1.1120        C6-C5=1.5382         C6-C7=1.5283         
C6-O11=1.4026        C6-H26=1.1013        C7-C6=1.5283         C7-C8=1.5333         C7-O10=1.4068        C7-H27=1.1038        
C8-C3=1.5359         C8-C7=1.5333         C8-O9=1.4031         C8-H28=1.1014        O9-C8=1.4031         O9-H29=0.9661        
O10-C7=1.4068        O10-H30=0.9650       O11-C6=1.4026        O11-H31=0.9753       O12-C5=1.3850        O12-C13=1.3740       
C13-O12=1.3740       C13-C14=1.3861       C13-C18=1.3998       C14-C13=1.3861       C14-C15=1.3849       C14-H32=1.0789       
C15-C14=1.3849       C15-C16=1.3835       C15-H33=1.0794       C16-C15=1.3835       C16-C17=1.3855       C16-H34=1.0793       
C17-C16=1.3855       C17-C18=1.3852       C17-H35=1.0808       C18-C13=1.3998       C18-C17=1.3852       C18-C19=1.5084       
C19-C18=1.5084       C19-O20=1.4187       C19-H36=1.0928       C19-H37=1.0979       O20-C19=1.4187       O20-H38=0.9642       
H21-O1=0.9642        H22-C2=1.0915        H23-C2=1.0975        H24-C3=1.1054        H25-C5=1.1120        H26-C6=1.1013        
H27-C7=1.1038        H28-C8=1.1014        H29-O9=0.9661        H30-O10=0.9650       H31-O11=0.9753       H32-C14=1.0789       
H33-C15=1.0794       H34-C16=1.0793       H35-C17=1.0808       H36-C19=1.0928       H37-C19=1.0979       H38-O20=0.9642       
 C  H  Rav=1.0940 sigma=0.0108  Rmin=1.0789  Rmax=1.1120    13
 C  C  Rav=1.4586 sigma=0.0716  Rmin=1.3835  Rmax=1.5382    12
 O  H  Rav=0.9669 sigma=0.0042  Rmin=0.9642  Rmax=0.9753     5
 O  C  Rav=1.4006 sigma=0.0126  Rmin=1.3740  Rmax=1.4187     9

 selected bond angles (degree)
 --------------------
H21-O1-C2=108.94               C3-C2-O1=113.21                H22-C2-O1=105.95               H22-C2-C3=108.56               
H23-C2-O1=111.32               H23-C2-C3=107.89               H23-C2-H22=109.85              O4-C3-C2=108.08                
C8-C3-C2=111.36                C8-C3-O4=110.80                H24-C3-C2=109.27               H24-C3-O4=109.62               
H24-C3-C8=107.70               C5-O4-C3=113.25                C6-C5-O4=111.54                O12-C5-O4=110.41               
O12-C5-C6=105.71               H25-C5-O4=109.57               H25-C5-C6=108.94               H25-C5-O12=110.62              
C7-C6-C5=109.07                O11-C6-C5=111.19               O11-C6-C7=108.51               H26-C6-C5=107.61               
H26-C6-C7=109.46               H26-C6-O11=110.97              C8-C7-C6=109.92                O10-C7-C6=111.82               
O10-C7-C8=108.19               H27-C7-C6=108.26               H27-C7-C8=109.03               H27-C7-O10=109.59              
C7-C8-C3=109.52                O9-C8-C3=108.75                O9-C8-C7=110.80                H28-C8-C3=109.00               
H28-C8-C7=108.27               H28-C8-O9=110.48               H29-O9-C8=106.77               H30-O10-C7=107.03              

 selected dihedral angles (degree)
 ---------------------------------
C3-C2-O1-H21= 63.14           H22-C2-O1-H21=182.00          H23-C2-O1-H21=301.39          O4-C3-C2-O1= 76.03            
O4-C3-C2-H22=318.68           O4-C3-C2-H23=199.69           C8-C3-C2-O1=197.95            C8-C3-C2-H22= 80.60           
C8-C3-C2-H23=321.61           H24-C3-C2-O1=316.80           H24-C3-C2-H22=199.45          H24-C3-C2-H23= 80.46          
C5-O4-C3-C2=182.91            C5-O4-C3-C8= 60.65            C5-O4-C3-H24=301.92           C6-C5-O4-C3=299.13            
O12-C5-O4-C3=181.90           H25-C5-O4-C3= 59.83           C7-C6-C5-O4= 56.28            C7-C6-C5-O12=176.31           
C7-C6-C5-H25=295.21           O11-C6-C5-O4=175.90           O11-C6-C5-O12=295.93          O11-C6-C5-H25= 54.83          
H26-C6-C5-O4=297.62           H26-C6-C5-O12= 57.65          H26-C6-C5-H25=176.55          C8-C7-C6-C5=306.63            
C8-C7-C6-O11=185.36           C8-C7-C6-H26= 64.12           O10-C7-C6-C5=186.44           O10-C7-C6-O11= 65.17          
O10-C7-C6-H26=303.94          H27-C7-C6-C5= 65.62           H27-C7-C6-O11=304.35          H27-C7-C6-H26=183.11          
C7-C8-C3-C2=183.36            C7-C8-C3-O4=303.69            C7-C8-C3-H24= 63.57           O9-C8-C3-C2= 62.15            
O9-C8-C3-O4=182.48            O9-C8-C3-H24=302.37           H28-C8-C3-C2=301.65           H28-C8-C3-O4= 61.97           
H28-C8-C3-H24=181.86          C3-C8-C7-C6= 53.84            C3-C8-C7-O10=176.19           C3-C8-C7-H27=295.32           
O9-C8-C7-C6=173.80            O9-C8-C7-O10=296.16           O9-C8-C7-H27= 55.28           H28-C8-C7-C6=295.10           
H28-C8-C7-O10= 57.45          H28-C8-C7-H27=176.58          H29-O9-C8-C3=168.29           H29-O9-C8-C7= 47.87           
H29-O9-C8-H28=287.88          H30-O10-C7-C6=314.31          H30-O10-C7-C8=193.12          H30-O10-C7-H27= 74.36         
           -------------------------------------------------
          |                Final Singlepoint                |
           -------------------------------------------------

          ...................................................
          :                      SETUP                      :
          :.................................................:
          :  # basis functions                  98          :
          :  # atomic orbitals                  98          :
          :  # shells                           58          :
          :  # electrons                       112          :
          :  max. iterations                   250          :
          :  Hamiltonian                  GFN2-xTB          :
          :  restarted?                      false          :
          :  GBSA solvation                  false          :
          :  PC potential                    false          :
          :  electronic temp.          300.0000000     K    :
          :  accuracy                    1.0000000          :
          :  -> integral cutoff          0.2500000E+02      :
          :  -> integral neglect         0.1000000E-07      :
          :  -> SCF convergence          0.1000000E-05 Eh   :
          :  -> wf. convergence          0.1000000E-03 e    :
          :  Broyden damping             0.4000000          :
          :  net charge                          0          :
          :  unpaired electrons                  0          :
          ...................................................

 iter      E             dE          RMSdq      gap      omega  full diag
   1    -66.1211769 -0.661212E+02  0.415E-05    4.31       0.0  T
   2    -66.1211769 -0.881073E-11  0.257E-05    4.31     630.6  T
   3    -66.1211769 -0.153477E-11  0.162E-05    4.31    1001.9  T

   *** convergence criteria satisfied after 3 iterations ***

         #    Occupation            Energy/Eh            Energy/eV
      -------------------------------------------------------------
         1        2.0000           -0.7328627             -19.9422
       ...           ...                  ...                  ...
        50        2.0000           -0.4247088             -11.5569
        51        2.0000           -0.4232601             -11.5175
        52        2.0000           -0.4214030             -11.4670
        53        2.0000           -0.4146676             -11.2837
        54        2.0000           -0.4145680             -11.2810
        55        2.0000           -0.4088356             -11.1250
        56        2.0000           -0.3960796             -10.7779 (HOMO)
        57                         -0.2376608              -6.4671 (LUMO)
        58                         -0.2302527              -6.2655
        59                         -0.1082871              -2.9466
        60                         -0.0220160              -0.5991
        61                         -0.0016666              -0.0454
       ...                                ...                  ...
        98                          0.6514679              17.7273
      -------------------------------------------------------------
                  HL-Gap            0.1584188 Eh            4.3108 eV
             Fermi-level           -0.3168702 Eh           -8.6225 eV

 SCC (total)                   0 d,  0 h,  0 min,  0.073 sec
 SCC setup                      ...        0 min,  0.000 sec (  0.331%)
 Dispersion                     ...        0 min,  0.000 sec (  0.326%)
 classical contributions        ...        0 min,  0.000 sec (  0.163%)
 integral evaluation            ...        0 min,  0.006 sec (  8.503%)
 iterations                     ...        0 min,  0.005 sec (  6.778%)
 molecular gradient             ...        0 min,  0.061 sec ( 83.716%)
 printout                       ...        0 min,  0.000 sec (  0.174%)

         :::::::::::::::::::::::::::::::::::::::::::::::::::::
         ::                     SUMMARY                     ::
         :::::::::::::::::::::::::::::::::::::::::::::::::::::
         :: total energy             -65.473810797999 Eh    ::
         :: gradient norm              0.000876202631 Eh/a0 ::
         :: HOMO-LUMO gap              4.310794665670 eV    ::
         ::.................................................::
         :: SCC energy               -66.120921824388 Eh    ::
         :: -> isotropic ES            0.151388717592 Eh    ::
         :: -> anisotropic ES         -0.005771691952 Eh    ::
         :: -> anisotropic XC         -0.002631951047 Eh    ::
         :: -> dispersion             -0.036925959719 Eh    ::
         :: repulsion energy           0.647111026389 Eh    ::
         :: add. restraining           0.000000000000 Eh    ::
         :: total charge               0.000000000000 e     ::
         :::::::::::::::::::::::::::::::::::::::::::::::::::::

           -------------------------------------------------
          |                Property Printout                |
           -------------------------------------------------

    * Orbital Energies and Occupations

         #    Occupation            Energy/Eh            Energy/eV
      -------------------------------------------------------------
         1        2.0000           -0.7328627             -19.9422
       ...           ...                  ...                  ...
        44        2.0000           -0.4656659             -12.6714
        45        2.0000           -0.4626887             -12.5904
        46        2.0000           -0.4500330             -12.2460
        47        2.0000           -0.4454660             -12.1217
        48        2.0000           -0.4432387             -12.0611
        49        2.0000           -0.4414772             -12.0132
        50        2.0000           -0.4247088             -11.5569
        51        2.0000           -0.4232601             -11.5175
        52        2.0000           -0.4214030             -11.4670
        53        2.0000           -0.4146676             -11.2837
        54        2.0000           -0.4145680             -11.2810
        55        2.0000           -0.4088356             -11.1250
        56        2.0000           -0.3960796             -10.7779 (HOMO)
        57                         -0.2376608              -6.4671 (LUMO)
        58                         -0.2302527              -6.2655
        59                         -0.1082871              -2.9466
        60                         -0.0220160              -0.5991
        61                         -0.0016666              -0.0454
        62                          0.0119437               0.3250
        63                          0.0335654               0.9134
        64                          0.0392793               1.0688
        65                          0.0575291               1.5654
        66                          0.0650864               1.7711
        67                          0.0762862               2.0759
       ...                                ...                  ...
        98                          0.6514679              17.7273
      -------------------------------------------------------------
                  HL-Gap            0.1584188 Eh            4.3108 eV
             Fermi-level           -0.3168702 Eh           -8.6225 eV

     #   Z          covCN         q      C6AA      α(0)
     1   8 O        1.656    -0.423    21.299     6.230
     2   6 C        3.676     0.070    19.626     6.347
     3   6 C        3.756     0.099    19.004     6.216
     4   8 O        1.702    -0.327    19.465     5.957
     5   6 C        3.657     0.246    17.059     5.929
     6   6 C        3.728     0.088    19.212     6.257
     7   6 C        3.731     0.099    19.033     6.228
     8   6 C        3.729     0.093    19.138     6.245
     9   8 O        1.656    -0.443    21.702     6.289
    10   8 O        1.656    -0.446    21.766     6.298
    11   8 O        1.655    -0.460    22.039     6.337
    12   8 O        1.708    -0.275    18.564     5.817
    13   6 C        2.876     0.142    24.900     8.180
    14   6 C        2.915    -0.058    29.433     8.896
    15   6 C        2.922    -0.030    28.739     8.791
    16   6 C        2.917    -0.038    28.957     8.824
    17   6 C        2.923    -0.040    28.986     8.829
    18   6 C        2.966    -0.027    28.667     8.782
    19   6 C        3.679     0.078    19.490     6.324
    20   8 O        1.654    -0.443    21.700     6.288
    21   1 H        0.805     0.292     0.747     1.357
    22   1 H        0.924     0.075     2.034     2.230
    23   1 H        0.924     0.051     2.310     2.377
    24   1 H        0.922     0.025     2.652     2.547
    25   1 H        0.921     0.000     3.054     2.733
    26   1 H        0.923     0.040     2.448     2.447
    27   1 H        0.923     0.030     2.591     2.517
    28   1 H        0.923     0.036     2.496     2.471
    29   1 H        0.805     0.321     0.661     1.277
    30   1 H        0.805     0.317     0.673     1.288
    31   1 H        0.804     0.331     0.635     1.252
    32   1 H        0.926     0.063     2.165     2.301
    33   1 H        0.926     0.045     2.381     2.413
    34   1 H        0.926     0.042     2.427     2.436
    35   1 H        0.926     0.040     2.450     2.448
    36   1 H        0.924     0.065     2.138     2.286
    37   1 H        0.923     0.029     2.594     2.519
    38   1 H        0.805     0.292     0.746     1.357

 Mol. C6AA /au·bohr⁶  :      14030.037093
 Mol. C8AA /au·bohr⁸  :     316419.868718
 Mol. α(0) /au        :        177.321777


Wiberg/Mayer (AO) data.
largest (>0.10) Wiberg bond orders for each atom

 ---------------------------------------------------------------------------
     #   Z sym  total        # sym  WBO       # sym  WBO       # sym  WBO
 ---------------------------------------------------------------------------
     1   8 O    1.974 --     2 C    1.013    21 H    0.900
     2   6 C    3.957 --     1 O    1.013     3 C    0.976    22 H    0.967
                            23 H    0.964
     3   6 C    3.944 --     2 C    0.976     4 O    0.968     8 C    0.967
                            24 H    0.953
     4   8 O    2.085 --     3 C    0.968     5 C    0.965
     5   6 C    3.930 --    12 O    0.989     4 O    0.965     6 C    0.947
                            25 H    0.943
     6   6 C    3.964 --    11 O    1.008     7 C    0.972    26 H    0.955
                             5 C    0.947
     7   6 C    3.963 --    10 O    0.997     6 C    0.972     8 C    0.970
                            27 H    0.955
     8   6 C    3.964 --     9 O    1.004     7 C    0.970     3 C    0.967
                            28 H    0.956
     9   8 O    1.955 --     8 C    1.004    29 H    0.878
    10   8 O    1.955 --     7 C    0.997    30 H    0.881
    11   8 O    1.947 --     6 C    1.008    31 H    0.848
    12   8 O    2.213 --    13 C    1.015     5 C    0.989
    13   6 C    3.925 --    14 C    1.396    18 C    1.342    12 O    1.015
    14   6 C    3.988 --    15 C    1.436    13 C    1.396    32 H    0.963
                            17 C    0.105
    15   6 C    3.991 --    16 C    1.443    14 C    1.436    33 H    0.970
                            18 C    0.107
    16   6 C    3.990 --    15 C    1.443    17 C    1.429    34 H    0.970
    17   6 C    3.990 --    18 C    1.434    16 C    1.429    35 H    0.968
                            14 C    0.105
    18   6 C    3.984 --    17 C    1.434    13 C    1.342    19 C    0.999
                            15 C    0.107
    19   6 C    3.951 --    18 C    0.999    20 O    0.982    37 H    0.970
                            36 H    0.962
    20   8 O    1.979 --    19 C    0.982    38 H    0.901
    21   1 H    0.915 --     1 O    0.900
    22   1 H    0.994 --     2 C    0.967
    23   1 H    0.997 --     2 C    0.964
    24   1 H    0.999 --     3 C    0.953
    25   1 H    1.000 --     5 C    0.943
    26   1 H    0.998 --     6 C    0.955
    27   1 H    0.999 --     7 C    0.955
    28   1 H    0.999 --     8 C    0.956
    29   1 H    0.897 --     9 O    0.878
    30   1 H    0.899 --    10 O    0.881
    31   1 H    0.890 --    11 O    0.848
    32   1 H    0.996 --    14 C    0.963
    33   1 H    0.997 --    15 C    0.970
    34   1 H    0.998 --    16 C    0.970
    35   1 H    0.998 --    17 C    0.968
    36   1 H    0.996 --    19 C    0.962
    37   1 H    0.999 --    19 C    0.970
    38   1 H    0.915 --    20 O    0.901
 ---------------------------------------------------------------------------

Topologies differ in total number of bonds
Writing topology from bond orders to xtbtopo.mol

molecular dipole:
                 x           y           z       tot (Debye)
 q only:       -0.497       0.901      -0.012
   full:       -0.561       1.394       0.075       3.824
molecular quadrupole (traceless):
                xx          xy          yy          xz          yz          zz
 q only:        4.069      -6.858      -3.214      -3.715      -1.634      -0.855
  q+dip:        1.651      -9.788      -2.563      -4.248      -5.560       0.911
   full:        2.485      -8.185      -2.276      -4.612      -5.404      -0.209

           -------------------------------------------------
          |                Geometry Summary                 |
           -------------------------------------------------

      molecular mass/u    :      286.2783346
   center of mass at/Å    :        0.0693489      -0.0355502       0.0429369
  moments of inertia/u·Å² :        0.9803865E+03   0.2215345E+04   0.3073961E+04
rotational constants/cm⁻¹ :        0.1719488E-01   0.7609485E-02   0.5484010E-02

 * 38 selected distances

     #   Z          #   Z                                           value/Å
     1   8 O        2   6 C                                       1.4014315
     2   6 C        3   6 C                                       1.5342348
     3   6 C        4   8 O                                       1.4107844
     4   8 O        5   6 C                                       1.4032679
     5   6 C        6   6 C                                       1.5381700 (max)
     6   6 C        7   6 C                                       1.5282757
     3   6 C        8   6 C                                       1.5359431
     7   6 C        8   6 C                                       1.5333177
     8   6 C        9   8 O                                       1.4031350
     7   6 C       10   8 O                                       1.4067747
     6   6 C       11   8 O                                       1.4025667
     5   6 C       12   8 O                                       1.3849796
    12   8 O       13   6 C                                       1.3740415
    13   6 C       14   6 C                                       1.3860914
    14   6 C       15   6 C                                       1.3849086
    15   6 C       16   6 C                                       1.3835418
    16   6 C       17   6 C                                       1.3854802
    13   6 C       18   6 C                                       1.3998062
    17   6 C       18   6 C                                       1.3851965
    19   6 C       20   8 O                                       1.4186767
     1   8 O       21   1 H                                       0.9642199
     2   6 C       22   1 H                                       1.0915372
     2   6 C       23   1 H                                       1.0974846
     3   6 C       24   1 H                                       1.1053986
     5   6 C       25   1 H                                       1.1119610
     6   6 C       26   1 H                                       1.1013196
     7   6 C       27   1 H                                       1.1037571
     8   6 C       28   1 H                                       1.1013695
     9   8 O       29   1 H                                       0.9660674
    10   8 O       30   1 H                                       0.9650214
    11   8 O       31   1 H                                       0.9752645
    14   6 C       32   1 H                                       1.0788858
    15   6 C       33   1 H                                       1.0794498
    16   6 C       34   1 H                                       1.0793046
    17   6 C       35   1 H                                       1.0807969
    19   6 C       36   1 H                                       1.0927645
    19   6 C       37   1 H                                       1.0979401
    20   8 O       38   1 H                                       0.9641612 (min)

 * 4 distinct bonds (by element types)

   Z      Z             #   av. dist./Å        max./Å        min./Å
   1 H    6 C          13     1.0939976     1.1119610     1.0788858
   6 C    6 C          11     1.4540878     1.5381700     1.3835418
   1 H    8 O           5     0.9669469     0.9752645     0.9641612
   6 C    8 O           9     1.4006287     1.4186767     1.3740415


optimized geometry written to: xtbopt.xyz


           -------------------------------------------------
          | TOTAL ENERGY              -65.473810797999 Eh   |
          | GRADIENT NORM               0.000876202631 Eh/α |
          | HOMO-LUMO GAP               4.310794665670 eV   |
           -------------------------------------------------

------------------------------------------------------------------------
 * finished run on 2025/05/15 at 16:09:14.294     
------------------------------------------------------------------------
 total:
 * wall-time:     0 d,  0 h,  0 min,  1.269 sec
 *  cpu-time:     0 d,  0 h,  0 min,  0.699 sec
 * ratio c/w:     0.551 speedup
 SCF:
 * wall-time:     0 d,  0 h,  0 min,  0.081 sec
 *  cpu-time:     0 d,  0 h,  0 min,  0.047 sec
 * ratio c/w:     0.576 speedup
 ANC optimizer:
 * wall-time:     0 d,  0 h,  0 min,  1.176 sec
 *  cpu-time:     0 d,  0 h,  0 min,  0.642 sec
 * ratio c/w:     0.545 speedup



----- Single-point -----
      -----------------------------------------------------------      
     |                   =====================                   |     
     |                           x T B                           |     
     |                   =====================                   |     
     |                         S. Grimme                         |     
     |          Mulliken Center for Theoretical Chemistry        |     
     |                    University of Bonn                     |     
      -----------------------------------------------------------      

   * xtb version 6.7.1 (edcfbbe) compiled by 'conda@3ef47c1a292c' on 2024-11-25

   xtb is free software: you can redistribute it and/or modify it under
   the terms of the GNU Lesser General Public License as published by
   the Free Software Foundation, either version 3 of the License, or
   (at your option) any later version.
   
   xtb is distributed in the hope that it will be useful,
   but WITHOUT ANY WARRANTY; without even the implied warranty of
   MERCHANTABILITY or FITNESS FOR A PARTICULAR PURPOSE.  See the
   GNU Lesser General Public License for more details.
   
   Cite this work as:
   * C. Bannwarth, E. Caldeweyher, S. Ehlert, A. Hansen, P. Pracht,
     J. Seibert, S. Spicher, S. Grimme, WIREs Comput. Mol. Sci., 2020, 11,
     e01493. DOI: 10.1002/wcms.1493
   
   for GFN2-xTB:
   * C. Bannwarth, S. Ehlert and S. Grimme., J. Chem. Theory Comput., 2019,
     15, 1652-1671. DOI: 10.1021/acs.jctc.8b01176
   for GFN1-xTB:
   * S. Grimme, C. Bannwarth, P. Shushkov, J. Chem. Theory Comput., 2017,
     13, 1989-2009. DOI: 10.1021/acs.jctc.7b00118
   for GFN0-xTB:
   * P. Pracht, E. Caldeweyher, S. Ehlert, S. Grimme, ChemRxiv, 2019, preprint.
     DOI: 10.26434/chemrxiv.8326202.v1
   for GFN-FF:
   * S. Spicher and S. Grimme, Angew. Chem. Int. Ed., 2020, 59, 15665-15673.
     DOI: 10.1002/anie.202004239
   
   for ALPB and GBSA implicit solvation:
   * S. Ehlert, M. Stahn, S. Spicher, S. Grimme, J. Chem. Theory Comput.,
     2021, 17, 4250-4261. DOI: 10.1021/acs.jctc.1c00471
   
   for ddCOSMO and CPCM-X implicit solvation:
   * M. Stahn, S. Ehlert, S. Grimme, J. Phys. Chem. A,
     2023, XX, XXXX-XXXX. DOI: 10.1021/acs.jpca.3c04382
   
   for DFT-D4:
   * E. Caldeweyher, C. Bannwarth and S. Grimme, J. Chem. Phys., 2017,
     147, 034112. DOI: 10.1063/1.4993215
   * E. Caldeweyher, S. Ehlert, A. Hansen, H. Neugebauer, S. Spicher,
     C. Bannwarth and S. Grimme, J. Chem. Phys., 2019, 150, 154122.
     DOI: 10.1063/1.5090222
   * E. Caldeweyher, J.-M. Mewes, S. Ehlert and S. Grimme, Phys. Chem. Chem. Phys.
     2020, 22, 8499-8512. DOI: 10.1039/D0CP00502A
   
   for sTDA-xTB:
   * S. Grimme and C. Bannwarth, J. Chem. Phys., 2016, 145, 054103.
     DOI: 10.1063/1.4959605
   
   in the mass-spec context:
   * V. Asgeirsson, C. Bauer and S. Grimme, Chem. Sci., 2017, 8, 4879.
     DOI: 10.1039/c7sc00601b
   * J. Koopman and S. Grimme, ACS Omega 2019, 4, 12, 15120-15133.
     DOI: 10.1021/acsomega.9b02011
   
   for metadynamics refer to:
   * S. Grimme, J. Chem. Theory Comput., 2019, 155, 2847-2862
     DOI: 10.1021/acs.jctc.9b00143
   
   for SPH calculations refer to:
   * S. Spicher and S. Grimme, J. Chem. Theory Comput., 2021, 17, 1701-1714
     DOI: 10.1021/acs.jctc.0c01306
   
   for ONIOM refer to:
   * C. Plett, A. Katbashev, S. Ehlert, S. Grimme, M. Bursch,
     Phys. Chem. Chem. Phys., 2023, 25, 17860-17868. DOI: 10.1039/D3CP02178E
   
   for DIPRO refer to:
   * J. Kohn, N. Gildemeister, S. Grimme, D. Fazzi, A. Hansen,
     J. Chem. Phys., 2023, just accepted.
   
   for PTB refer to:
   * S. Grimme, M. Mueller, A. Hansen, J. Chem. Phys., 2023, 158, 124111.
     DOI: 10.1063/5.0137838
   
   with help from (in alphabetical order)
   P. Atkinson, C. Bannwarth, F. Bohle, G. Brandenburg, E. Caldeweyher
   M. Checinski, S. Dohm, S. Ehlert, S. Ehrlich, I. Gerasimov, C. Hölzer
   A. Katbashev, J. Kohn, J. Koopman, C. Lavigne, S. Lehtola, F. März, M. Müller,
   F. Musil, H. Neugebauer, J. Pisarek, C. Plett, P. Pracht, F. Pultar,
   J. Seibert, P. Shushkov, S. Spicher, M. Stahn, M. Steiner, T. Strunk,
   J. Stückrath, T. Rose, and J. Unsleber
   
 * started run on 2025/05/15 at 16:09:14.305     
   ID    Z sym.   atoms
    1    8 O      1, 4, 9-12, 20
    2    6 C      2, 3, 5-8, 13-19
    3    1 H      21-38

           -------------------------------------------------
          |                Calculation Setup                |
           -------------------------------------------------

          program call               : xtb /rds/general/user/hgt20/home/callum/QDESCP/Salicin_rdkit_conf_18/Salicin_rdkit_conf_18.xyz --acc 1 --gfn 2 --chrg 0 --uhf 0 --etemp 300 --input /rds/general/user/hgt20/home/callum/QDESCP/Salicin_rdkit_conf_18/Salicin_rdkit_conf_18_xtb.inp -P 1
          hostname                   : login-c
          coordinate file            : /rds/general/user/hgt20/home/callum/QDESCP/Salicin_rdkit_conf_18/Salicin_rdkit_conf_18.xyz
          omp threads                :                     1


           -------------------------------------------------
          |                 G F N 2 - x T B                 |
           -------------------------------------------------

        Reference                      10.1021/acs.jctc.8b01176
      * Hamiltonian:
        H0-scaling (s, p, d)           1.850000    2.230000    2.230000
        zeta-weighting                 0.500000
      * Dispersion:
        s8                             2.700000
        a1                             0.520000
        a2                             5.000000
        s9                             5.000000
      * Repulsion:
        kExp                           1.500000    1.000000
        rExp                           1.000000
      * Coulomb:
        alpha                          2.000000
        third order                    shell-resolved
        anisotropic                    true
        a3                             3.000000
        a5                             4.000000
        cn-shift                       1.200000
        cn-exp                         4.000000
        max-rad                        5.000000

q/qsh data taken from xtbrestart
CAMM data taken from xtbrestart

          ...................................................
          :                      SETUP                      :
          :.................................................:
          :  # basis functions                  98          :
          :  # atomic orbitals                  98          :
          :  # shells                           58          :
          :  # electrons                       112          :
          :  max. iterations                   250          :
          :  Hamiltonian                  GFN2-xTB          :
          :  restarted?                       true          :
          :  GBSA solvation                  false          :
          :  PC potential                    false          :
          :  electronic temp.          300.0000000     K    :
          :  accuracy                    1.0000000          :
          :  -> integral cutoff          0.2500000E+02      :
          :  -> integral neglect         0.1000000E-07      :
          :  -> SCF convergence          0.1000000E-05 Eh   :
          :  -> wf. convergence          0.1000000E-03 e    :
          :  Broyden damping             0.4000000          :
          :  net charge                          0          :
          :  unpaired electrons                  0          :
          ...................................................

 iter      E             dE          RMSdq      gap      omega  full diag
   1    -66.1211769 -0.661212E+02  0.295E-06    4.31       0.0  T
   2    -66.1211769 -0.142109E-13  0.185E-06    4.31    8765.8  T
   3    -66.1211769 -0.113687E-12  0.105E-06    4.31   15425.2  T

   *** convergence criteria satisfied after 3 iterations ***

         #    Occupation            Energy/Eh            Energy/eV
      -------------------------------------------------------------
         1        2.0000           -0.7328627             -19.9422
       ...           ...                  ...                  ...
        50        2.0000           -0.4247088             -11.5569
        51        2.0000           -0.4232601             -11.5175
        52        2.0000           -0.4214030             -11.4670
        53        2.0000           -0.4146677             -11.2837
        54        2.0000           -0.4145680             -11.2810
        55        2.0000           -0.4088356             -11.1250
        56        2.0000           -0.3960796             -10.7779 (HOMO)
        57                         -0.2376608              -6.4671 (LUMO)
        58                         -0.2302528              -6.2655
        59                         -0.1082872              -2.9466
        60                         -0.0220160              -0.5991
        61                         -0.0016666              -0.0454
       ...                                ...                  ...
        98                          0.6514679              17.7273
      -------------------------------------------------------------
                  HL-Gap            0.1584189 Eh            4.3108 eV
             Fermi-level           -0.3168702 Eh           -8.6225 eV

 SCC (total)                   0 d,  0 h,  0 min,  0.073 sec
 SCC setup                      ...        0 min,  0.000 sec (  0.407%)
 Dispersion                     ...        0 min,  0.000 sec (  0.514%)
 classical contributions        ...        0 min,  0.000 sec (  0.171%)
 integral evaluation            ...        0 min,  0.006 sec (  8.913%)
 iterations                     ...        0 min,  0.007 sec (  9.043%)
 molecular gradient             ...        0 min,  0.059 sec ( 80.670%)
 printout                       ...        0 min,  0.000 sec (  0.273%)

         :::::::::::::::::::::::::::::::::::::::::::::::::::::
         ::                     SUMMARY                     ::
         :::::::::::::::::::::::::::::::::::::::::::::::::::::
         :: total energy             -65.473810798002 Eh    ::
         :: gradient norm              0.000876169886 Eh/a0 ::
         :: HOMO-LUMO gap              4.310796381994 eV    ::
         ::.................................................::
         :: SCC energy               -66.120921824391 Eh    ::
         :: -> isotropic ES            0.151388786412 Eh    ::
         :: -> anisotropic ES         -0.005771718057 Eh    ::
         :: -> anisotropic XC         -0.002631960317 Eh    ::
         :: -> dispersion             -0.036925959422 Eh    ::
         :: repulsion energy           0.647111026389 Eh    ::
         :: add. restraining           0.000000000000 Eh    ::
         :: total charge              -0.000000000000 e     ::
         :::::::::::::::::::::::::::::::::::::::::::::::::::::

           -------------------------------------------------
          |                Property Printout                |
           -------------------------------------------------

    * Orbital Energies and Occupations

         #    Occupation            Energy/Eh            Energy/eV
      -------------------------------------------------------------
         1        2.0000           -0.7328627             -19.9422
       ...           ...                  ...                  ...
        44        2.0000           -0.4656659             -12.6714
        45        2.0000           -0.4626887             -12.5904
        46        2.0000           -0.4500330             -12.2460
        47        2.0000           -0.4454661             -12.1217
        48        2.0000           -0.4432387             -12.0611
        49        2.0000           -0.4414773             -12.0132
        50        2.0000           -0.4247088             -11.5569
        51        2.0000           -0.4232601             -11.5175
        52        2.0000           -0.4214030             -11.4670
        53        2.0000           -0.4146677             -11.2837
        54        2.0000           -0.4145680             -11.2810
        55        2.0000           -0.4088356             -11.1250
        56        2.0000           -0.3960796             -10.7779 (HOMO)
        57                         -0.2376608              -6.4671 (LUMO)
        58                         -0.2302528              -6.2655
        59                         -0.1082872              -2.9466
        60                         -0.0220160              -0.5991
        61                         -0.0016666              -0.0454
        62                          0.0119437               0.3250
        63                          0.0335654               0.9134
        64                          0.0392793               1.0688
        65                          0.0575291               1.5654
        66                          0.0650864               1.7711
        67                          0.0762862               2.0759
       ...                                ...                  ...
        98                          0.6514679              17.7273
      -------------------------------------------------------------
                  HL-Gap            0.1584189 Eh            4.3108 eV
             Fermi-level           -0.3168702 Eh           -8.6225 eV

     #   Z          covCN         q      C6AA      α(0)
     1   8 O        1.656    -0.423    21.299     6.230
     2   6 C        3.676     0.070    19.626     6.347
     3   6 C        3.756     0.099    19.004     6.216
     4   8 O        1.702    -0.327    19.465     5.957
     5   6 C        3.657     0.246    17.059     5.929
     6   6 C        3.728     0.088    19.212     6.257
     7   6 C        3.731     0.099    19.033     6.228
     8   6 C        3.729     0.093    19.138     6.245
     9   8 O        1.656    -0.443    21.702     6.289
    10   8 O        1.656    -0.446    21.766     6.298
    11   8 O        1.655    -0.460    22.039     6.337
    12   8 O        1.708    -0.275    18.564     5.817
    13   6 C        2.876     0.142    24.900     8.180
    14   6 C        2.915    -0.058    29.433     8.896
    15   6 C        2.922    -0.030    28.739     8.791
    16   6 C        2.917    -0.038    28.957     8.824
    17   6 C        2.923    -0.040    28.986     8.829
    18   6 C        2.966    -0.027    28.667     8.782
    19   6 C        3.679     0.078    19.490     6.324
    20   8 O        1.654    -0.443    21.700     6.288
    21   1 H        0.805     0.292     0.747     1.357
    22   1 H        0.924     0.075     2.034     2.230
    23   1 H        0.924     0.051     2.310     2.377
    24   1 H        0.922     0.025     2.652     2.547
    25   1 H        0.921     0.000     3.054     2.733
    26   1 H        0.923     0.040     2.448     2.447
    27   1 H        0.923     0.030     2.591     2.517
    28   1 H        0.923     0.036     2.496     2.471
    29   1 H        0.805     0.321     0.661     1.277
    30   1 H        0.805     0.317     0.673     1.288
    31   1 H        0.804     0.331     0.635     1.252
    32   1 H        0.926     0.063     2.165     2.301
    33   1 H        0.926     0.045     2.381     2.413
    34   1 H        0.926     0.042     2.427     2.436
    35   1 H        0.926     0.040     2.450     2.448
    36   1 H        0.924     0.065     2.138     2.286
    37   1 H        0.923     0.029     2.594     2.519
    38   1 H        0.805     0.292     0.746     1.357

 Mol. C6AA /au·bohr⁶  :      14030.037099
 Mol. C8AA /au·bohr⁸  :     316419.870050
 Mol. α(0) /au        :        177.321777


Wiberg/Mayer (AO) data.
largest (>0.10) Wiberg bond orders for each atom

 ---------------------------------------------------------------------------
     #   Z sym  total        # sym  WBO       # sym  WBO       # sym  WBO
 ---------------------------------------------------------------------------
     1   8 O    1.974 --     2 C    1.013    21 H    0.900
     2   6 C    3.957 --     1 O    1.013     3 C    0.976    22 H    0.967
                            23 H    0.964
     3   6 C    3.944 --     2 C    0.976     4 O    0.968     8 C    0.967
                            24 H    0.953
     4   8 O    2.085 --     3 C    0.968     5 C    0.965
     5   6 C    3.930 --    12 O    0.989     4 O    0.965     6 C    0.947
                            25 H    0.943
     6   6 C    3.964 --    11 O    1.008     7 C    0.972    26 H    0.955
                             5 C    0.947
     7   6 C    3.963 --    10 O    0.997     6 C    0.972     8 C    0.970
                            27 H    0.955
     8   6 C    3.964 --     9 O    1.004     7 C    0.970     3 C    0.967
                            28 H    0.956
     9   8 O    1.955 --     8 C    1.004    29 H    0.878
    10   8 O    1.955 --     7 C    0.997    30 H    0.881
    11   8 O    1.947 --     6 C    1.008    31 H    0.848
    12   8 O    2.213 --    13 C    1.015     5 C    0.989
    13   6 C    3.925 --    14 C    1.396    18 C    1.342    12 O    1.015
    14   6 C    3.988 --    15 C    1.436    13 C    1.396    32 H    0.963
                            17 C    0.105
    15   6 C    3.991 --    16 C    1.443    14 C    1.436    33 H    0.970
                            18 C    0.107
    16   6 C    3.990 --    15 C    1.443    17 C    1.429    34 H    0.970
    17   6 C    3.990 --    18 C    1.434    16 C    1.429    35 H    0.968
                            14 C    0.105
    18   6 C    3.984 --    17 C    1.434    13 C    1.342    19 C    0.999
                            15 C    0.107
    19   6 C    3.951 --    18 C    0.999    20 O    0.982    37 H    0.970
                            36 H    0.962
    20   8 O    1.979 --    19 C    0.982    38 H    0.901
    21   1 H    0.915 --     1 O    0.900
    22   1 H    0.994 --     2 C    0.967
    23   1 H    0.997 --     2 C    0.964
    24   1 H    0.999 --     3 C    0.953
    25   1 H    1.000 --     5 C    0.943
    26   1 H    0.998 --     6 C    0.955
    27   1 H    0.999 --     7 C    0.955
    28   1 H    0.999 --     8 C    0.956
    29   1 H    0.897 --     9 O    0.878
    30   1 H    0.899 --    10 O    0.881
    31   1 H    0.890 --    11 O    0.848
    32   1 H    0.996 --    14 C    0.963
    33   1 H    0.997 --    15 C    0.970
    34   1 H    0.998 --    16 C    0.970
    35   1 H    0.998 --    17 C    0.968
    36   1 H    0.996 --    19 C    0.962
    37   1 H    0.999 --    19 C    0.970
    38   1 H    0.915 --    20 O    0.901
 ---------------------------------------------------------------------------

Topologies differ in total number of bonds
Writing topology from bond orders to xtbtopo.mol

molecular dipole:
                 x           y           z       tot (Debye)
 q only:       -0.497       0.901      -0.012
   full:       -0.561       1.394       0.075       3.824
molecular quadrupole (traceless):
                xx          xy          yy          xz          yz          zz
 q only:        4.069      -6.858      -3.214      -3.715      -1.634      -0.855
  q+dip:        1.651      -9.788      -2.563      -4.248      -5.560       0.911
   full:        2.485      -8.185      -2.276      -4.612      -5.404      -0.209


           -------------------------------------------------
          | TOTAL ENERGY              -65.473810798002 Eh   |
          | GRADIENT NORM               0.000876169886 Eh/α |
          | HOMO-LUMO GAP               4.310796381994 eV   |
           -------------------------------------------------

------------------------------------------------------------------------
 * finished run on 2025/05/15 at 16:09:14.391     
------------------------------------------------------------------------
 total:
 * wall-time:     0 d,  0 h,  0 min,  0.085 sec
 *  cpu-time:     0 d,  0 h,  0 min,  0.044 sec
 * ratio c/w:     0.516 speedup
 SCF:
 * wall-time:     0 d,  0 h,  0 min,  0.073 sec
 *  cpu-time:     0 d,  0 h,  0 min,  0.033 sec
 * ratio c/w:     0.450 speedup



----- FOD -----
      -----------------------------------------------------------      
     |                   =====================                   |     
     |                           x T B                           |     
     |                   =====================                   |     
     |                         S. Grimme                         |     
     |          Mulliken Center for Theoretical Chemistry        |     
     |                    University of Bonn                     |     
      -----------------------------------------------------------      

   * xtb version 6.7.1 (edcfbbe) compiled by 'conda@3ef47c1a292c' on 2024-11-25

   xtb is free software: you can redistribute it and/or modify it under
   the terms of the GNU Lesser General Public License as published by
   the Free Software Foundation, either version 3 of the License, or
   (at your option) any later version.
   
   xtb is distributed in the hope that it will be useful,
[...]
   
   Cite this work as:
   * C. Bannwarth, E. Caldeweyher, S. Ehlert, A. Hansen, P. Pracht,
     J. Seibert, S. Spicher, S. Grimme, WIREs Comput. Mol. Sci., 2020, 11,
     e01493. DOI: 10.1002/wcms.1493
   
   for GFN2-xTB:
   * C. Bannwarth, S. Ehlert and S. Grimme., J. Chem. Theory Comput., 2019,
     15, 1652-1671. DOI: 10.1021/acs.jctc.8b01176
   for GFN1-xTB:
   * S. Grimme, C. Bannwarth, P. Shushkov, J. Chem. Theory Comput., 2017,
     13, 1989-2009. DOI: 10.1021/acs.jctc.7b00118
   for GFN0-xTB:
   * P. Pracht, E. Caldeweyher, S. Ehlert, S. Grimme, ChemRxiv, 2019, preprint.
     DOI: 10.26434/chemrxiv.8326202.v1
   for GFN-FF:
   * S. Spicher and S. Grimme, Angew. Chem. Int. Ed., 2020, 59, 15665-15673.
     DOI: 10.1002/anie.202004239
   
   for ALPB and GBSA implicit solvation:
   * S. Ehlert, M. Stahn, S. Spicher, S. Grimme, J. Chem. Theory Comput.,
     2021, 17, 4250-4261. DOI: 10.1021/acs.jctc.1c00471
   
   for ddCOSMO and CPCM-X implicit solvation:
   * M. Stahn, S. Ehlert, S. Grimme, J. Phys. Chem. A,
     2023, XX, XXXX-XXXX. DOI: 10.1021/acs.jpca.3c04382
   
   for DFT-D4:
   * E. Caldeweyher, C. Bannwarth and S. Grimme, J. Chem. Phys., 2017,
     147, 034112. DOI: 10.1063/1.4993215
   * E. Caldeweyher, S. Ehlert, A. Hansen, H. Neugebauer, S. Spicher,
     C. Bannwarth and S. Grimme, J. Chem. Phys., 2019, 150, 154122.
     DOI: 10.1063/1.5090222
   * E. Caldeweyher, J.-M. Mewes, S. Ehlert and S. Grimme, Phys. Chem. Chem. Phys.
     2020, 22, 8499-8512. DOI: 10.1039/D0CP00502A
   
   for sTDA-xTB:
   * S. Grimme and C. Bannwarth, J. Chem. Phys., 2016, 145, 054103.
     DOI: 10.1063/1.4959605
   
   in the mass-spec context:
   * V. Asgeirsson, C. Bauer and S. Grimme, Chem. Sci., 2017, 8, 4879.
     DOI: 10.1039/c7sc00601b
   * J. Koopman and S. Grimme, ACS Omega 2019, 4, 12, 15120-15133.
     DOI: 10.1021/acsomega.9b02011
   
   for metadynamics refer to:
   * S. Grimme, J. Chem. Theory Comput., 2019, 155, 2847-2862
     DOI: 10.1021/acs.jctc.9b00143
   
   for SPH calculations refer to:
   * S. Spicher and S. Grimme, J. Chem. Theory Comput., 2021, 17, 1701-1714
     DOI: 10.1021/acs.jctc.0c01306
   
   for ONIOM refer to:
   * C. Plett, A. Katbashev, S. Ehlert, S. Grimme, M. Bursch,
     Phys. Chem. Chem. Phys., 2023, 25, 17860-17868. DOI: 10.1039/D3CP02178E
   
   for DIPRO refer to:
   * J. Kohn, N. Gildemeister, S. Grimme, D. Fazzi, A. Hansen,
     J. Chem. Phys., 2023, just accepted.
   
   for PTB refer to:
   * S. Grimme, M. Mueller, A. Hansen, J. Chem. Phys., 2023, 158, 124111.
     DOI: 10.1063/5.0137838
   
   with help from (in alphabetical order)
   P. Atkinson, C. Bannwarth, F. Bohle, G. Brandenburg, E. Caldeweyher
   M. Checinski, S. Dohm, S. Ehlert, S. Ehrlich, I. Gerasimov, C. Hölzer
   A. Katbashev, J. Kohn, J. Koopman, C. Lavigne, S. Lehtola, F. März, M. Müller,
   F. Musil, H. Neugebauer, J. Pisarek, C. Plett, P. Pracht, F. Pultar,
   J. Seibert, P. Shushkov, S. Spicher, M. Stahn, M. Steiner, T. Strunk,
   J. Stückrath, T. Rose, and J. Unsleber
   
 * started run on 2025/05/15 at 16:09:16.249     
   ID    Z sym.   atoms
    1    8 O      1, 4, 9-12, 20
    2    6 C      2, 3, 5-8, 13-19
    3    1 H      21-38

           -------------------------------------------------
          |                Calculation Setup                |
           -------------------------------------------------

          program call               : xtb /rds/general/user/hgt20/home/callum/QDESCP/Salicin_rdkit_conf_18/Salicin_rdkit_conf_18.xyz --acc 1 --gfn 2 --chrg 0 --uhf 2 --etemp 300 --input /rds/general/user/hgt20/home/callum/QDESCP/Salicin_rdkit_conf_18/Salicin_rdkit_conf_18_xtb.inp -P 1
          hostname                   : login-c
          coordinate file            : /rds/general/user/hgt20/home/callum/QDESCP/Salicin_rdkit_conf_18/Salicin_rdkit_conf_18.xyz
          omp threads                :                     1


           -------------------------------------------------
          |                 G F N 2 - x T B                 |
           -------------------------------------------------

        Reference                      10.1021/acs.jctc.8b01176
      * Hamiltonian:
        H0-scaling (s, p, d)           1.850000    2.230000    2.230000
        zeta-weighting                 0.500000
      * Dispersion:
        s8                             2.700000
        a1                             0.520000
        a2                             5.000000
        s9                             5.000000
      * Repulsion:
        kExp                           1.500000    1.000000
        rExp                           1.000000
      * Coulomb:
        alpha                          2.000000
        third order                    shell-resolved
        anisotropic                    true
        a3                             3.000000
        a5                             4.000000
        cn-shift                       1.200000
        cn-exp                         4.000000
        max-rad                        5.000000


          ...................................................
          :                      SETUP                      :
          :.................................................:
          :  # basis functions                  98          :
          :  # atomic orbitals                  98          :
          :  # shells                           58          :
          :  # electrons                       112          :
          :  max. iterations                   250          :
          :  Hamiltonian                  GFN2-xTB          :
          :  restarted?                      false          :
          :  GBSA solvation                  false          :
          :  PC potential                    false          :
          :  electronic temp.          300.0000000     K    :
          :  accuracy                    1.0000000          :
          :  -> integral cutoff          0.2500000E+02      :
          :  -> integral neglect         0.1000000E-07      :
          :  -> SCF convergence          0.1000000E-05 Eh   :
          :  -> wf. convergence          0.1000000E-03 e    :
          :  Broyden damping             0.4000000          :
          :  net charge                          0          :
          :  unpaired electrons                  2          :
          ...................................................

 iter      E             dE          RMSdq      gap      omega  full diag
   1    -65.8587484 -0.658587E+02  0.438E+00    0.31       0.0  T
   2    -65.7806024  0.781460E-01  0.353E+00    0.62       1.0  T
   3    -65.8485675 -0.679651E-01  0.245E+00    0.80       1.0  T
   4    -65.9324489 -0.838815E-01  0.854E-01    0.13       1.0  T
   5    -65.9370800 -0.463109E-02  0.843E-01    0.03       1.0  T
   6    -65.9502031 -0.131231E-01  0.596E-01    0.14       1.0  T
   7    -65.9546218 -0.441867E-02  0.391E-01    0.11       1.0  T
   8    -65.9530109  0.161088E-02  0.357E-01    0.10       1.0  T
   9    -65.9557542 -0.274335E-02  0.117E-01    0.06       1.0  T
  10    -65.9560732 -0.318919E-03  0.447E-02    0.07       1.0  T
  11    -65.9560970 -0.238275E-04  0.316E-02    0.06       1.0  T
  12    -65.9561115 -0.145678E-04  0.581E-03    0.07       2.8  T
  13    -65.9561117 -0.171058E-06  0.270E-03    0.07       6.0  T
  14    -65.9561118 -0.122737E-06  0.502E-04    0.07      32.3  T
  15    -65.9561118 -0.100768E-08  0.461E-04    0.07      35.2  T

   *** convergence criteria satisfied after 15 iterations ***

         #    Occupation            Energy/Eh            Energy/eV
      -------------------------------------------------------------
         1        2.0000           -0.7461486             -20.3037
       ...           ...                  ...                  ...
        51        2.0000           -0.4302321             -11.7072
        52        2.0000           -0.4204327             -11.4406
        53        2.0000           -0.4168416             -11.3428
        54        2.0000           -0.4153889             -11.3033
        55        1.9838           -0.4027341             -10.9590
        56        1.0162           -0.3949279             -10.7465
        57        0.7907           -0.2263574              -6.1595 (HOMO)
        58        0.2093           -0.2238316              -6.0908 (LUMO)
        59                         -0.0991615              -2.6983
        60                         -0.0301447              -0.8203
        61                         -0.0092031              -0.2504
        62                          0.0046019               0.1252
       ...                                ...                  ...
        98                          0.6597872              17.9537
      -------------------------------------------------------------
                  HL-Gap            0.0025258 Eh            0.0687 eV
             Fermi-level           -0.3119628 Eh           -8.4889 eV

 transition dipole moment (au) for excitation:          56          57
     X       Y       Z   
  -0.9230   0.7002   0.7396  total (au/Debye):    1.375   3.494
 dE (eV)             :    4.587
 oscillator strength :  0.30026E+00

 SCC (total)                   0 d,  0 h,  0 min,  0.080 sec
 SCC setup                      ...        0 min,  0.000 sec (  0.365%)
 Dispersion                     ...        0 min,  0.000 sec (  0.435%)
 classical contributions        ...        0 min,  0.000 sec (  0.149%)
 integral evaluation            ...        0 min,  0.029 sec ( 35.655%)
 iterations                     ...        0 min,  0.026 sec ( 32.845%)
 molecular gradient             ...        0 min,  0.019 sec ( 23.321%)
 printout                       ...        0 min,  0.006 sec (  7.222%)

         :::::::::::::::::::::::::::::::::::::::::::::::::::::
         ::                     SUMMARY                     ::
         :::::::::::::::::::::::::::::::::::::::::::::::::::::
         :: total energy             -65.308745792482 Eh    ::
         :: gradient norm              0.136530195605 Eh/a0 ::
         :: HOMO-LUMO gap              0.068729424169 eV    ::
         ::.................................................::
         :: SCC energy               -65.955856818871 Eh    ::
         :: -> isotropic ES            0.147335763653 Eh    ::
         :: -> anisotropic ES         -0.004046084650 Eh    ::
         :: -> anisotropic XC         -0.003113069247 Eh    ::
         :: -> dispersion             -0.036890413838 Eh    ::
         :: repulsion energy           0.647111026389 Eh    ::
         :: add. restraining           0.000000000000 Eh    ::
         :: total charge              -0.000000000000 e     ::
         :::::::::::::::::::::::::::::::::::::::::::::::::::::

           -------------------------------------------------
          |                Property Printout                |
           -------------------------------------------------

    * Orbital Energies and Occupations

         #    Occupation            Energy/Eh            Energy/eV
      -------------------------------------------------------------
         1        2.0000           -0.7461486             -20.3037
       ...           ...                  ...                  ...
        45        2.0000           -0.4628588             -12.5950
        46        2.0000           -0.4553516             -12.3907
        47        2.0000           -0.4505269             -12.2595
        48        2.0000           -0.4400826             -11.9753
        49        2.0000           -0.4359681             -11.8633
        50        2.0000           -0.4305253             -11.7152
        51        2.0000           -0.4302321             -11.7072
        52        2.0000           -0.4204327             -11.4406
        53        2.0000           -0.4168416             -11.3428
        54        2.0000           -0.4153889             -11.3033
        55        1.9838           -0.4027341             -10.9590
        56        1.0162           -0.3949279             -10.7465
        57        0.7907           -0.2263574              -6.1595 (HOMO)
        58        0.2093           -0.2238316              -6.0908 (LUMO)
        59                         -0.0991615              -2.6983
        60                         -0.0301447              -0.8203
        61                         -0.0092031              -0.2504
        62                          0.0046019               0.1252
        63                          0.0271556               0.7389
        64                          0.0353642               0.9623
        65                          0.0546543               1.4872
        66                          0.0565394               1.5385
        67                          0.0725383               1.9739
        68                          0.0755229               2.0551
       ...                                ...                  ...
        98                          0.6597872              17.9537
      -------------------------------------------------------------
                  HL-Gap            0.0025258 Eh            0.0687 eV
             Fermi-level           -0.3119628 Eh           -8.4889 eV

     #   Z          covCN         q      C6AA      α(0)
     1   8 O        1.656    -0.420    21.233     6.220
     2   6 C        3.676     0.070    19.630     6.348
     3   6 C        3.756     0.098    19.013     6.217
     4   8 O        1.702    -0.318    19.303     5.932
     5   6 C        3.657     0.243    17.099     5.935
     6   6 C        3.728     0.089    19.194     6.255
     7   6 C        3.731     0.099    19.039     6.228
     8   6 C        3.729     0.093    19.142     6.246
     9   8 O        1.656    -0.441    21.669     6.284
    10   8 O        1.656    -0.443    21.708     6.290
    11   8 O        1.655    -0.456    21.957     6.326
    12   8 O        1.708    -0.232    17.848     5.704
    13   6 C        2.876     0.139    24.974     8.192
    14   6 C        2.915    -0.066    29.633     8.927
    15   6 C        2.922    -0.056    29.389     8.890
    16   6 C        2.917    -0.020    28.516     8.757
    17   6 C        2.923    -0.055    29.371     8.888
    18   6 C        2.966    -0.041    29.004     8.834
    19   6 C        3.679     0.077    19.506     6.326
    20   8 O        1.654    -0.450    21.837     6.308
    21   1 H        0.805     0.293     0.741     1.352
    22   1 H        0.924     0.077     2.013     2.219
    23   1 H        0.924     0.054     2.273     2.358
    24   1 H        0.922     0.029     2.600     2.522
    25   1 H        0.921     0.011     2.876     2.652
    26   1 H        0.923     0.043     2.404     2.425
    27   1 H        0.923     0.032     2.554     2.499
    28   1 H        0.923     0.038     2.473     2.459
    29   1 H        0.805     0.322     0.657     1.274
    30   1 H        0.805     0.318     0.668     1.284
    31   1 H        0.804     0.333     0.630     1.247
    32   1 H        0.926     0.051     2.302     2.373
    33   1 H        0.926     0.033     2.546     2.495
    34   1 H        0.926     0.038     2.471     2.458
    35   1 H        0.926     0.032     2.565     2.504
    36   1 H        0.924     0.064     2.149     2.292
    37   1 H        0.923     0.029     2.600     2.522
    38   1 H        0.805     0.291     0.748     1.358

 Mol. C6AA /au·bohr⁶  :      14037.160366
 Mol. C8AA /au·bohr⁸  :     316663.412105
 Mol. α(0) /au        :        177.400096


Wiberg/Mayer (AO) data.
largest (>0.10) Wiberg bond orders for each atom

 ---------------------------------------------------------------------------
     #   Z sym  total        # sym  WBO       # sym  WBO       # sym  WBO
 ---------------------------------------------------------------------------
     1   8 O    1.975 --     2 C    1.015    21 H    0.899
     2   6 C    3.955 --     1 O    1.015     3 C    0.973    22 H    0.967
                            23 H    0.963
     3   6 C    3.939 --     2 C    0.973     4 O    0.967     8 C    0.966
                            24 H    0.953
     4   8 O    2.090 --     3 C    0.967     5 C    0.966
     5   6 C    3.924 --    12 O    0.986     4 O    0.966    25 H    0.942
                             6 C    0.938
     6   6 C    3.959 --    11 O    1.011     7 C    0.970    26 H    0.954
                             5 C    0.938
     7   6 C    3.962 --    10 O    0.998     6 C    0.970     8 C    0.970
                            27 H    0.955
     8   6 C    3.963 --     9 O    1.005     7 C    0.970     3 C    0.966
                            28 H    0.956
     9   8 O    1.956 --     8 C    1.005    29 H    0.877
    10   8 O    1.954 --     7 C    0.998    30 H    0.880
    11   8 O    1.952 --     6 C    1.011    31 H    0.845
    12   8 O    2.300 --    13 C    1.097     5 C    0.986
    13   6 C    3.628 --    14 C    1.280    12 O    1.097    18 C    1.034
                            15 C    0.112
    14   6 C    3.861 --    15 C    1.456    13 C    1.280    32 H    0.964
    15   6 C    3.745 --    14 C    1.456    16 C    1.116    33 H    0.970
                            13 C    0.112
    16   6 C    3.693 --    17 C    1.364    15 C    1.116    34 H    0.971
                            18 C    0.133
    17   6 C    3.855 --    18 C    1.396    16 C    1.364    35 H    0.967
    18   6 C    3.705 --    17 C    1.396    13 C    1.034    19 C    1.015
                            16 C    0.133
    19   6 C    3.950 --    18 C    1.015    37 H    0.970    20 O    0.969
                            36 H    0.948
    20   8 O    1.969 --    19 C    0.969    38 H    0.900
    21   1 H    0.914 --     1 O    0.899
    22   1 H    0.994 --     2 C    0.967
    23   1 H    0.995 --     2 C    0.963
    24   1 H    0.999 --     3 C    0.953
    25   1 H    0.999 --     5 C    0.942
    26   1 H    0.998 --     6 C    0.954
    27   1 H    0.999 --     7 C    0.955
    28   1 H    0.999 --     8 C    0.956
    29   1 H    0.896 --     9 O    0.877
    30   1 H    0.898 --    10 O    0.880
    31   1 H    0.888 --    11 O    0.845
    32   1 H    0.997 --    14 C    0.964
    33   1 H    0.998 --    15 C    0.970
    34   1 H    0.998 --    16 C    0.971
    35   1 H    0.998 --    17 C    0.967
    36   1 H    0.991 --    19 C    0.948
    37   1 H    0.999 --    19 C    0.970
    38   1 H    0.915 --    20 O    0.900
 ---------------------------------------------------------------------------

Topologies differ in total number of bonds
Writing topology from bond orders to xtbtopo.mol

molecular dipole:
                 x           y           z       tot (Debye)
 q only:        0.120       0.703      -0.017
   full:        0.070       1.189       0.111       3.040
molecular quadrupole (traceless):
                xx          xy          yy          xz          yz          zz
 q only:        1.777      -5.810      -1.900      -4.023      -1.746       0.123
  q+dip:       -0.666      -8.411      -1.026      -4.054      -6.197       1.692
   full:        0.071      -6.969      -0.812      -4.664      -5.711       0.741


           -------------------------------------------------
          | TOTAL ENERGY              -65.308745792482 Eh   |
          | GRADIENT NORM               0.136530195605 Eh/α |
          | HOMO-LUMO GAP               0.068729424169 eV   |
           -------------------------------------------------

------------------------------------------------------------------------
 * finished run on 2025/05/15 at 16:09:16.340     
------------------------------------------------------------------------
 total:
 * wall-time:     0 d,  0 h,  0 min,  0.091 sec
 *  cpu-time:     0 d,  0 h,  0 min,  0.068 sec
 * ratio c/w:     0.746 speedup
 SCF:
 * wall-time:     0 d,  0 h,  0 min,  0.080 sec
 *  cpu-time:     0 d,  0 h,  0 min,  0.058 sec
 * ratio c/w:     0.722 speedup


