42
 energy: -62.289498140424 gnorm: 0.000736568820 xtb: 6.7.1 (edcfbbe)
C            2.71536954494342       -3.03036006466962       -1.05489029084587
C            2.81587274086881       -2.48565968161320        0.37159832842733
C            2.85072463648306       -0.98298998455478        0.37339697534845
C            4.03066243290607       -0.27404635833964        0.49286870698915
C            4.06474592176254        1.12242172729325        0.46052798357681
C            2.91666746139189        1.86436530210905        0.30659925504415
C            1.70460439501865        1.18591360726967        0.18178505546354
C            1.68786264269706       -0.22990502678671        0.21381168729301
N            0.39035889421796       -0.63827317706014        0.06760265867064
C           -0.41139822396741        0.46838372863046       -0.05913655442689
C            0.35143824527189        1.59951064924502        0.01091537387683
C           -0.25413074247131        2.96114456196634       -0.04873830117300
C           -1.66247004050555        2.80926075037230       -0.63232419520650
O           -2.40089451552636        1.78039738594210       -0.00753994345353
C           -1.90339184491753        0.45215641834308       -0.19561151765253
C           -2.38843796399130       -0.08319216367053       -1.56263587917858
C           -1.76971298193198       -1.39947473808384       -2.01479872262068
C           -2.51426322911698       -0.36875560218490        0.97067123157486
C           -3.98294305779191       -0.04985907309432        1.09629946044043
O           -4.23872186267150        0.68445512260461        2.17872477422166
O           -4.84286807205377       -0.40797881725446        0.33634745164454
H            2.68218090871201       -4.11770784704624       -1.04788096275669
H            1.82023890143491       -2.65899903280580       -1.54949145107854
H            3.57785487414437       -2.71344776471219       -1.63653475897201
H            3.72450702950232       -2.87039299079081        0.83798043967579
H            1.96381883765261       -2.83944580368927        0.95884340288478
H            4.95684010772946       -0.81669773943838        0.61801585400302
H            5.01752278997162        1.62178137205754        0.55961932522420
H            2.94637091122778        2.94320543178377        0.28318290830248
H            0.07346701770376       -1.59092176854066        0.08081691355342
H           -0.31125678277635        3.38511000035899        0.95830544048636
H            0.33706462938228        3.63622181849419       -0.66993261005044
H           -1.58712803429759        2.62793966048607       -1.71370422185506
H           -2.25593495635656        3.71201566150226       -0.47271120386767
H           -3.47231984109445       -0.18846771837806       -1.50160540610566
H           -2.17055098001659        0.67752907219429       -2.31462137806732
H           -2.22711560440987       -1.70317738131553       -2.95351980115777
H           -1.94558846888361       -2.19352833146037       -1.29184939259892
H           -0.69954466420203       -1.29449966760063       -2.18150597576645
H           -2.02017350577053       -0.09250237131598        1.90128878424198
H           -2.39280383925502       -1.43243220313072        0.77295822318645
H           -5.17642371101355        0.93070303688707        2.21047233270468
