62
 energy: -94.879924501329 gnorm: 0.000680113723 xtb: 6.7.1 (edcfbbe)
C           -7.05446611022541       -0.58267617594703       -2.56937315584117
C           -5.98107261627448       -1.61942121756631       -2.40861052610632
C           -4.72441751326343       -1.14666969055526       -1.74634191112860
C           -3.49875348671498       -1.40234213703342       -2.28802153192607
C           -3.30729557142747       -2.11219732214930       -3.59011266995937
C           -2.33878756236497       -0.93972088868353       -1.59283111364614
C           -1.01681833431267       -1.12543999081482       -2.01616220089806
N            0.02910277358711       -0.71210162948391       -1.34288914391029
C           -0.20856328358395       -0.07429068723555       -0.18645466499346
N            0.81575829965915        0.37197625007337        0.56793391510323
C            2.18846255551138        0.24924240233531        0.40924716613233
N            2.87974611566771        0.77180208764356        1.41959688358742
C            4.19279449043404        0.71282064174202        1.39729080621397
C            4.93932142683825        0.12051533395434        0.36705594699547
C            4.19238441658044       -0.41538002049258       -0.69235233827373
C            2.81372587320748       -0.35328286483403       -0.67928351430785
N            6.32021503210710        0.14213492382360        0.39183835715442
C            7.08172842816882       -0.24362795018254       -0.77622287405500
C            8.44315776406573        0.45489988446458       -0.73655625633166
N            9.13463920453357        0.08407439620557        0.48210631064861
C            8.37678069778306        0.52263721692849        1.63798023960486
C            7.02579390737300       -0.18871774541205        1.61419022692993
N           -1.41874589231441        0.17344694753329        0.31588403392699
C           -2.47940830556100       -0.25081556155005       -0.36186705665994
N           -3.71469837477321       -0.01274330798990        0.15471962348867
C           -3.81026934024503        0.69647916850389        1.43055328526366
C           -4.70236617177739        1.95544497151911        1.38039469806638
C           -5.76679861658265        1.74700391865284        2.46065732101004
C           -5.09199431515529        0.81755967816139        3.46496431788839
C           -4.37283707876914       -0.17917219816566        2.56228326755573
C           -4.88155095326462       -0.44206073015823       -0.47320781538877
O           -5.96222964068350       -0.23734160832067        0.05125748010421
O           -6.10805668255513       -2.75736865628254       -2.79812963480747
H           -6.64540197337541        0.31654152853349       -3.02501747673437
H           -7.86559886252888       -0.98007866188787       -3.17326089779263
H           -7.42290743330658       -0.31840600727422       -1.57971615059175
H           -2.72424721610404       -3.01811576155608       -3.43122921698921
H           -2.76405669884462       -1.47525415135889       -4.28763331297906
H           -4.25587923070630       -2.39613687009005       -4.03126722408905
H           -0.79184265408986       -1.63738292881499       -2.94168001203817
H            0.54668998009826        0.83833424494660        1.42570005235774
H            4.67657452795489        1.17744852333285        2.24552522436339
H            4.68151835910940       -0.89978114192447       -1.52285374568249
H            2.22383761505552       -0.76711334117787       -1.47826627887361
H            7.23972860174932       -1.33226023871554       -0.81072334935290
H            6.55548567907337        0.07559560156705       -1.67616170904227
H            9.04042073591159        0.13545396490934       -1.59295070378876
H            8.27745616531503        1.54489068924297       -0.80705250527300
H           10.06827230855721        0.48186396658558        0.49463323840840
H            8.20696286679276        1.61387001063234        1.64127088550816
H            8.92126420952090        0.24786831717947        2.54350049628071
H            6.43521931993537        0.09887496191832        2.48145310537334
H            7.20784673827653       -1.27417510580369        1.65652398520137
H           -2.78330370642042        0.98118442320533        1.66276985269608
H           -5.15110120041166        2.09009728726758        0.39857355028407
H           -4.09817242111280        2.83665794258289        1.59923567769529
H           -6.09332193904333        2.68591184680284        2.90512470491959
H           -6.62768831160533        1.24144743319472        2.02550222600690
H           -4.36846938164933        1.37112165621883        4.06682045151000
H           -5.80283462229540        0.33375097551237        4.13245966058332
H           -3.58555164611625       -0.73321225154956        3.07216399155195
H           -5.09538094540412       -0.88606435216362        2.15711800904994
