31
 energy: -58.968127202611 gnorm: 0.000392741860 xtb: 6.7.1 (edcfbbe)
N            4.08680928644609       -2.59136375061790       -1.39371923836855
C            2.84638121039086       -2.15648819776727       -1.14495671807398
N            1.82421883040740       -2.99606658114730       -1.33728900434665
C            0.59756368968830       -2.57711673404496       -1.10277403392170
Cl          -0.63439075184331       -3.72289884884934       -1.37923506257270
N            0.19116034179359       -1.39268770470004       -0.68719500426506
C            1.20392525818575       -0.54496254985976       -0.48010523631182
C            2.55837027467311       -0.85639311278559       -0.69137252706558
N            3.33323050692736        0.23204214179650       -0.38440530700395
C            2.49218105138241        1.14073702860161       -0.00411845359505
N            1.18043746291780        0.74733854727813       -0.04643497347945
C            0.03455615288120        1.51742532806019        0.36256663262669
C           -0.99570642304125        1.71823439291522       -0.75379956064783
C           -2.29826512005069        1.84319277054731        0.03190539170103
C           -2.03813122017789        0.94706256066626        1.26047371079866
O           -0.62399788220479        0.84917895745331        1.40783774842644
C           -2.67426482590021       -0.44979483719475        1.10736686601853
O           -2.57678731564861       -0.96693182855810       -0.18404820363258
O           -2.47960397195262        3.19887518114738        0.36990603309154
H            4.86423188913812       -1.97559471321473       -1.23853488112483
H            4.21946965339249       -3.53658128068755       -1.70641543332470
H            2.77504999074246        2.12572710527761        0.31130233036533
H            0.41727250410900        2.48654256071509        0.72294401174868
H           -0.80139655744276        2.61271532017529       -1.33934058010370
H           -1.02795472552338        0.83955806087590       -1.39553948396792
H           -3.15389447075083        1.46634206026697       -0.54078902993353
H           -2.42786651340023        1.41473790703378        2.17514094083946
H           -2.20925043022625       -1.11378653809084        1.84745506912778
H           -3.74329905612443       -0.37133695155225        1.32766537408633
H           -1.64118466626356       -1.18647911312342       -0.36641602645341
H           -3.29916417252595        3.29887281938245        0.86532464936186
