----- Optimization -----
      -----------------------------------------------------------      
     |                   =====================                   |     
     |                           x T B                           |     
     |                   =====================                   |     
     |                         S. Grimme                         |     
     |          Mulliken Center for Theoretical Chemistry        |     
     |                    University of Bonn                     |     
      -----------------------------------------------------------      

   * xtb version 6.7.1 (edcfbbe) compiled by 'conda@3ef47c1a292c' on 2024-11-25

   xtb is free software: you can redistribute it and/or modify it under
   the terms of the GNU Lesser General Public License as published by
   the Free Software Foundation, either version 3 of the License, or
   (at your option) any later version.
   
   xtb is distributed in the hope that it will be useful,
   but WITHOUT ANY WARRANTY; without even the implied warranty of
   MERCHANTABILITY or FITNESS FOR A PARTICULAR PURPOSE.  See the
   GNU Lesser General Public License for more details.
   
   Cite this work as:
   * C. Bannwarth, E. Caldeweyher, S. Ehlert, A. Hansen, P. Pracht,
     J. Seibert, S. Spicher, S. Grimme, WIREs Comput. Mol. Sci., 2020, 11,
     e01493. DOI: 10.1002/wcms.1493
   
   for GFN2-xTB:
   * C. Bannwarth, S. Ehlert and S. Grimme., J. Chem. Theory Comput., 2019,
     15, 1652-1671. DOI: 10.1021/acs.jctc.8b01176
   for GFN1-xTB:
   * S. Grimme, C. Bannwarth, P. Shushkov, J. Chem. Theory Comput., 2017,
     13, 1989-2009. DOI: 10.1021/acs.jctc.7b00118
   for GFN0-xTB:
   * P. Pracht, E. Caldeweyher, S. Ehlert, S. Grimme, ChemRxiv, 2019, preprint.
     DOI: 10.26434/chemrxiv.8326202.v1
   for GFN-FF:
   * S. Spicher and S. Grimme, Angew. Chem. Int. Ed., 2020, 59, 15665-15673.
     DOI: 10.1002/anie.202004239
   
   for ALPB and GBSA implicit solvation:
   * S. Ehlert, M. Stahn, S. Spicher, S. Grimme, J. Chem. Theory Comput.,
     2021, 17, 4250-4261. DOI: 10.1021/acs.jctc.1c00471
   
   for ddCOSMO and CPCM-X implicit solvation:
   * M. Stahn, S. Ehlert, S. Grimme, J. Phys. Chem. A,
     2023, XX, XXXX-XXXX. DOI: 10.1021/acs.jpca.3c04382
   
   for DFT-D4:
   * E. Caldeweyher, C. Bannwarth and S. Grimme, J. Chem. Phys., 2017,
     147, 034112. DOI: 10.1063/1.4993215
   * E. Caldeweyher, S. Ehlert, A. Hansen, H. Neugebauer, S. Spicher,
     C. Bannwarth and S. Grimme, J. Chem. Phys., 2019, 150, 154122.
     DOI: 10.1063/1.5090222
   * E. Caldeweyher, J.-M. Mewes, S. Ehlert and S. Grimme, Phys. Chem. Chem. Phys.
     2020, 22, 8499-8512. DOI: 10.1039/D0CP00502A
   
   for sTDA-xTB:
   * S. Grimme and C. Bannwarth, J. Chem. Phys., 2016, 145, 054103.
     DOI: 10.1063/1.4959605
   
   in the mass-spec context:
   * V. Asgeirsson, C. Bauer and S. Grimme, Chem. Sci., 2017, 8, 4879.
     DOI: 10.1039/c7sc00601b
   * J. Koopman and S. Grimme, ACS Omega 2019, 4, 12, 15120-15133.
     DOI: 10.1021/acsomega.9b02011
   
   for metadynamics refer to:
   * S. Grimme, J. Chem. Theory Comput., 2019, 155, 2847-2862
     DOI: 10.1021/acs.jctc.9b00143
   
   for SPH calculations refer to:
   * S. Spicher and S. Grimme, J. Chem. Theory Comput., 2021, 17, 1701-1714
     DOI: 10.1021/acs.jctc.0c01306
   
   for ONIOM refer to:
   * C. Plett, A. Katbashev, S. Ehlert, S. Grimme, M. Bursch,
     Phys. Chem. Chem. Phys., 2023, 25, 17860-17868. DOI: 10.1039/D3CP02178E
   
   for DIPRO refer to:
   * J. Kohn, N. Gildemeister, S. Grimme, D. Fazzi, A. Hansen,
     J. Chem. Phys., 2023, just accepted.
   
   for PTB refer to:
   * S. Grimme, M. Mueller, A. Hansen, J. Chem. Phys., 2023, 158, 124111.
     DOI: 10.1063/5.0137838
   
   with help from (in alphabetical order)
   P. Atkinson, C. Bannwarth, F. Bohle, G. Brandenburg, E. Caldeweyher
   M. Checinski, S. Dohm, S. Ehlert, S. Ehrlich, I. Gerasimov, C. Hölzer
   A. Katbashev, J. Kohn, J. Koopman, C. Lavigne, S. Lehtola, F. März, M. Müller,
   F. Musil, H. Neugebauer, J. Pisarek, C. Plett, P. Pracht, F. Pultar,
   J. Seibert, P. Shushkov, S. Spicher, M. Stahn, M. Steiner, T. Strunk,
   J. Stückrath, T. Rose, and J. Unsleber
   
 * started run on 2025/05/15 at 16:13:03.824     
   ID    Z sym.   atoms
    1    8 O      1, 4, 9-12, 20
    2    6 C      2, 3, 5-8, 13-19
    3    1 H      21-38

           -------------------------------------------------
          |                Calculation Setup                |
           -------------------------------------------------

          program call               : xtb /rds/general/user/hgt20/home/callum/QDESCP/Salicin_rdkit_conf_1/Salicin_rdkit_conf_1.xyz --opt normal --acc 1 --gfn 2 --chrg 0 --uhf 0 -P 1
          hostname                   : login-c
          coordinate file            : /rds/general/user/hgt20/home/callum/QDESCP/Salicin_rdkit_conf_1/Salicin_rdkit_conf_1.xyz
          omp threads                :                     1


           -------------------------------------------------
          |                 G F N 2 - x T B                 |
           -------------------------------------------------

        Reference                      10.1021/acs.jctc.8b01176
      * Hamiltonian:
        H0-scaling (s, p, d)           1.850000    2.230000    2.230000
        zeta-weighting                 0.500000
      * Dispersion:
        s8                             2.700000
        a1                             0.520000
        a2                             5.000000
        s9                             5.000000
      * Repulsion:
        kExp                           1.500000    1.000000
        rExp                           1.000000
      * Coulomb:
        alpha                          2.000000
        third order                    shell-resolved
        anisotropic                    true
        a3                             3.000000
        a5                             4.000000
        cn-shift                       1.200000
        cn-exp                         4.000000
        max-rad                        5.000000


          ...................................................
          :                      SETUP                      :
          :.................................................:
          :  # basis functions                  98          :
          :  # atomic orbitals                  98          :
          :  # shells                           58          :
          :  # electrons                       112          :
          :  max. iterations                   250          :
          :  Hamiltonian                  GFN2-xTB          :
          :  restarted?                      false          :
          :  GBSA solvation                  false          :
          :  PC potential                    false          :
          :  electronic temp.          300.0000000     K    :
          :  accuracy                    1.0000000          :
          :  -> integral cutoff          0.2500000E+02      :
          :  -> integral neglect         0.1000000E-07      :
          :  -> SCF convergence          0.1000000E-05 Eh   :
          :  -> wf. convergence          0.1000000E-03 e    :
          :  Broyden damping             0.4000000          :
          :  net charge                          0          :
          :  unpaired electrons                  0          :
          ...................................................

 iter      E             dE          RMSdq      gap      omega  full diag
   1    -66.0078714 -0.660079E+02  0.461E+00    4.18       0.0  T
   2    -66.0709917 -0.631203E-01  0.256E+00    4.24       1.0  T
   3    -66.0685905  0.240119E-02  0.888E-01    4.05       1.0  T
   4    -66.0742495 -0.565903E-02  0.284E-01    4.21       1.0  T
   5    -66.0758741 -0.162457E-02  0.957E-02    4.20       1.0  T
   6    -66.0759229 -0.487791E-04  0.420E-02    4.20       1.0  T
   7    -66.0759313 -0.840336E-05  0.154E-02    4.20       1.1  T
   8    -66.0759337 -0.245156E-05  0.541E-03    4.20       3.0  T
   9    -66.0759341 -0.387816E-06  0.206E-03    4.20       7.9  T
  10    -66.0759342 -0.433864E-07  0.937E-04    4.20      17.3  T
  11    -66.0759342 -0.118613E-07  0.373E-04    4.20      43.4  T

   *** convergence criteria satisfied after 11 iterations ***

         #    Occupation            Energy/Eh            Energy/eV
      -------------------------------------------------------------
         1        2.0000           -0.7310478             -19.8928
       ...           ...                  ...                  ...
        50        2.0000           -0.4345188             -11.8239
        51        2.0000           -0.4221659             -11.4877
        52        2.0000           -0.4201786             -11.4336
        53        2.0000           -0.4186527             -11.3921
        54        2.0000           -0.4162952             -11.3280
        55        2.0000           -0.4120565             -11.2126
        56        2.0000           -0.3999315             -10.8827 (HOMO)
        57                         -0.2455928              -6.6829 (LUMO)
        58                         -0.2387852              -6.4977
        59                         -0.1217414              -3.3128
        60                         -0.0597998              -1.6272
        61                         -0.0230787              -0.6280
       ...                                ...                  ...
        98                          0.6137731              16.7016
      -------------------------------------------------------------
                  HL-Gap            0.1543387 Eh            4.1998 eV
             Fermi-level           -0.3227622 Eh           -8.7828 eV

 SCC (total)                   0 d,  0 h,  0 min,  0.045 sec
 SCC setup                      ...        0 min,  0.000 sec (  0.702%)
 Dispersion                     ...        0 min,  0.000 sec (  0.845%)
 classical contributions        ...        0 min,  0.000 sec (  0.264%)
 integral evaluation            ...        0 min,  0.006 sec ( 14.286%)
 iterations                     ...        0 min,  0.019 sec ( 42.552%)
 molecular gradient             ...        0 min,  0.019 sec ( 41.030%)
 printout                       ...        0 min,  0.000 sec (  0.306%)

         :::::::::::::::::::::::::::::::::::::::::::::::::::::
         ::                     SUMMARY                     ::
         :::::::::::::::::::::::::::::::::::::::::::::::::::::
         :: total energy             -65.462591098112 Eh    ::
         :: gradient norm              0.076861908572 Eh/a0 ::
         :: HOMO-LUMO gap              4.199769906561 eV    ::
         ::.................................................::
         :: SCC energy               -66.075664575792 Eh    ::
         :: -> isotropic ES            0.157559978783 Eh    ::
         :: -> anisotropic ES         -0.005847854081 Eh    ::
         :: -> anisotropic XC          0.000236793874 Eh    ::
         :: -> dispersion             -0.036563574429 Eh    ::
         :: repulsion energy           0.613073477680 Eh    ::
         :: add. restraining           0.000000000000 Eh    ::
         :: total charge               0.000000000000 e     ::
         :::::::::::::::::::::::::::::::::::::::::::::::::::::

      ----------------------------------------------------------- 
     |                   =====================                   |
     |                        A N C O P T                        |
     |                   =====================                   |
     |               Approximate Normal Coordinate               |
     |                Rational Function Optimizer                |
      ----------------------------------------------------------- 
      ----------------------------------------------------------- 
     |                   =====================                   |
     |                        A N C O P T                        |
     |                   =====================                   |
     |               Approximate Normal Coordinate               |
     |                Rational Function Optimizer                |
      ----------------------------------------------------------- 

          ...................................................
          :                      SETUP                      :
          :.................................................:
          :   optimization level            normal          :
          :   max. optcycles                   200          :
          :   ANC micro-cycles                  20          :
          :   degrees of freedom               108          :
          :.................................................:
          :   RF solver                   davidson          :
          :   write xtbopt.log                true          :
          :   linear?                        false          :
          :   energy convergence         0.5000000E-05 Eh   :
          :   grad. convergence          0.1000000E-02 Eh/α :
          :   maxmium RF displ.          1.0000000          :
          :   Hlow (freq-cutoff)         0.1000000E-01      :
          :   Hmax (freq-cutoff)         5.0000000          :
          :   S6 in model hess.         20.0000000          :
          ...................................................

generating ANC from exact Hessian ...
Using Lindh-Hessian (1995)
 Shifting diagonal of input Hessian by    9.5965232596322003E-003
 Lowest  eigenvalues of input Hessian
    0.000000    0.000000    0.000000    0.000000    0.000000    0.000000
    0.010000    0.010511    0.011670    0.012050    0.013145    0.013789
    0.014989    0.015464    0.017155    0.018585    0.019424    0.020141
 Highest eigenvalues
    1.510692    1.576793    1.707115    1.837415    1.954012    2.022395


........................................................................
.............................. CYCLE    1 ..............................
........................................................................

 iter      E             dE          RMSdq      gap      omega  full diag
   1    -66.0759342 -0.660759E+02  0.110E-04    4.20       0.0  T
   2    -66.0759342 -0.609077E-10  0.609E-05    4.20     266.3  T
   3    -66.0759342 -0.139266E-11  0.319E-05    4.20     508.5  T
     SCC iter.                  ...        0 min,  0.006 sec
     gradient                   ...        0 min,  0.018 sec
 * total energy  :   -65.4625911 Eh     change       -0.2924395E-08 Eh
   gradient norm :     0.0768618 Eh/α   predicted     0.0000000E+00 (-100.00%)
   displ. norm   :     0.2653579 α      lambda       -0.1052666E-01
   maximum displ.:     0.0960946 α      in ANC's #28, #3, #45, ...

........................................................................
.............................. CYCLE    2 ..............................
........................................................................

 iter      E             dE          RMSdq      gap      omega  full diag
   1    -66.1061407 -0.661061E+02  0.173E-01    4.26       0.0  T
   2    -66.1061752 -0.344612E-04  0.103E-01    4.25       1.0  T
   3    -66.1061716  0.362306E-05  0.196E-02    4.26       1.0  T
   4    -66.1061799 -0.837623E-05  0.692E-03    4.25       2.3  T
   5    -66.1061808 -0.816422E-06  0.349E-03    4.25       4.6  T
   6    -66.1061809 -0.142471E-06  0.144E-03    4.25      11.3  T
   7    -66.1061809 -0.100653E-07  0.585E-04    4.25      27.7  T
   8    -66.1061809 -0.376554E-08  0.202E-04    4.25      80.1  T
     SCC iter.                  ...        0 min,  0.013 sec
     gradient                   ...        0 min,  0.018 sec
 * total energy  :   -65.4699453 Eh     change       -0.7354206E-02 Eh
   gradient norm :     0.0389607 Eh/α   predicted    -0.5634772E-02 ( -23.38%)
   displ. norm   :     0.2621769 α      lambda       -0.3893854E-02
   maximum displ.:     0.1352223 α      in ANC's #3, #28, #10, ...

........................................................................
.............................. CYCLE    3 ..............................
........................................................................

 iter      E             dE          RMSdq      gap      omega  full diag
   1    -66.1211420 -0.661211E+02  0.129E-01    4.26       0.0  T
   2    -66.1211641 -0.221666E-04  0.772E-02    4.26       1.0  T
   3    -66.1211630  0.113694E-05  0.160E-02    4.27       1.0  T
   4    -66.1211674 -0.441336E-05  0.544E-03    4.27       3.0  T
   5    -66.1211678 -0.378089E-06  0.289E-03    4.27       5.6  T
   6    -66.1211680 -0.183103E-06  0.111E-03    4.27      14.6  T
   7    -66.1211680 -0.316889E-08  0.491E-04    4.27      33.0  T
   8    -66.1211680 -0.262465E-08  0.145E-04    4.27     111.9  T
     SCC iter.                  ...        0 min,  0.013 sec
     gradient                   ...        0 min,  0.018 sec
 * total energy  :   -65.4722604 Eh     change       -0.2315046E-02 Eh
   gradient norm :     0.0105715 Eh/α   predicted    -0.2081766E-02 ( -10.08%)
   displ. norm   :     0.2027678 α      lambda       -0.6831863E-03
   maximum displ.:     0.1473182 α      in ANC's #3, #10, #4, ...

........................................................................
.............................. CYCLE    4 ..............................
........................................................................

 iter      E             dE          RMSdq      gap      omega  full diag
   1    -66.1210168 -0.661210E+02  0.703E-02    4.26       0.0  T
   2    -66.1210206 -0.374727E-05  0.427E-02    4.26       1.0  T
   3    -66.1210175  0.313666E-05  0.104E-02    4.26       1.6  T
   4    -66.1210215 -0.404375E-05  0.286E-03    4.27       5.7  T
   5    -66.1210216 -0.146061E-06  0.110E-03    4.26      14.8  T
   6    -66.1210217 -0.894015E-08  0.494E-04    4.26      32.8  T
   7    -66.1210217 -0.879041E-09  0.210E-04    4.26      77.1  T
     SCC iter.                  ...        0 min,  0.011 sec
     gradient                   ...        0 min,  0.018 sec
 * total energy  :   -65.4727859 Eh     change       -0.5255326E-03 Eh
   gradient norm :     0.0064134 Eh/α   predicted    -0.3556503E-03 ( -32.33%)
   displ. norm   :     0.3150306 α      lambda       -0.6689529E-03
   maximum displ.:     0.2391168 α      in ANC's #3, #10, #4, ...

........................................................................
.............................. CYCLE    5 ..............................
........................................................................

 iter      E             dE          RMSdq      gap      omega  full diag
   1    -66.1185614 -0.661186E+02  0.104E-01    4.26       0.0  T
   2    -66.1185676 -0.617095E-05  0.628E-02    4.27       1.0  T
   3    -66.1185599  0.764686E-05  0.158E-02    4.27       1.0  T
   4    -66.1185695 -0.959624E-05  0.356E-03    4.27       4.6  T
   5    -66.1185697 -0.162861E-06  0.150E-03    4.27      10.8  T
   6    -66.1185697 -0.779224E-08  0.674E-04    4.27      24.1  T
   7    -66.1185697 -0.373419E-08  0.244E-04    4.27      66.4  T
     SCC iter.                  ...        0 min,  0.011 sec
     gradient                   ...        0 min,  0.018 sec
 * total energy  :   -65.4732683 Eh     change       -0.4824222E-03 Eh
   gradient norm :     0.0082763 Eh/α   predicted    -0.3676746E-03 ( -23.79%)
   displ. norm   :     0.2558803 α      lambda       -0.3609608E-03
   maximum displ.:     0.2005962 α      in ANC's #3, #4, #10, ...

........................................................................
.............................. CYCLE    6 ..............................
........................................................................

 iter      E             dE          RMSdq      gap      omega  full diag
   1    -66.1179848 -0.661180E+02  0.822E-02    4.27       0.0  T
   2    -66.1179875 -0.276174E-05  0.493E-02    4.27       1.0  T
   3    -66.1179837  0.382224E-05  0.115E-02    4.27       1.4  T
   4    -66.1179886 -0.484136E-05  0.244E-03    4.28       6.6  T
   5    -66.1179886 -0.548602E-07  0.115E-03    4.28      14.2  T
   6    -66.1179886 -0.322829E-08  0.484E-04    4.28      33.5  T
   7    -66.1179886 -0.241918E-08  0.149E-04    4.28     109.1  T
     SCC iter.                  ...        0 min,  0.011 sec
     gradient                   ...        0 min,  0.019 sec
 * total energy  :   -65.4735545 Eh     change       -0.2862405E-03 Eh
   gradient norm :     0.0075714 Eh/α   predicted    -0.1923287E-03 ( -32.81%)
   displ. norm   :     0.2483311 α      lambda       -0.3071969E-03
   maximum displ.:     0.1979969 α      in ANC's #3, #4, #6, ...

........................................................................
.............................. CYCLE    7 ..............................
........................................................................

 iter      E             dE          RMSdq      gap      omega  full diag
   1    -66.1192345 -0.661192E+02  0.806E-02    4.28       0.0  T
   2    -66.1192365 -0.197123E-05  0.480E-02    4.29       1.0  T
   3    -66.1192336  0.287926E-05  0.101E-02    4.29       1.6  T
   4    -66.1192373 -0.369468E-05  0.212E-03    4.29       7.6  T
   5    -66.1192373 -0.318558E-07  0.104E-03    4.29      15.6  T
   6    -66.1192373 -0.325498E-08  0.426E-04    4.29      38.0  T
   7    -66.1192373 -0.184018E-08  0.124E-04    4.29     130.9  T
     SCC iter.                  ...        0 min,  0.011 sec
     gradient                   ...        0 min,  0.019 sec
 * total energy  :   -65.4737930 Eh     change       -0.2384689E-03 Eh
   gradient norm :     0.0046636 Eh/α   predicted    -0.1630710E-03 ( -31.62%)
   displ. norm   :     0.2284150 α      lambda       -0.2051233E-03
   maximum displ.:     0.1851154 α      in ANC's #3, #4, #6, ...

........................................................................
.............................. CYCLE    8 ..............................
........................................................................

 iter      E             dE          RMSdq      gap      omega  full diag
   1    -66.1207661 -0.661208E+02  0.754E-02    4.30       0.0  T
   2    -66.1207674 -0.136233E-05  0.447E-02    4.30       1.0  T
   3    -66.1207651  0.234088E-05  0.870E-03    4.30       1.9  T
   4    -66.1207680 -0.295030E-05  0.171E-03    4.30       9.5  T
   5    -66.1207681 -0.183563E-07  0.846E-04    4.30      19.2  T
   6    -66.1207681 -0.323053E-08  0.350E-04    4.30      46.4  T
     SCC iter.                  ...        0 min,  0.011 sec
     gradient                   ...        0 min,  0.019 sec
 * total energy  :   -65.4739467 Eh     change       -0.1536802E-03 Eh
   gradient norm :     0.0031040 Eh/α   predicted    -0.1079130E-03 ( -29.78%)
   displ. norm   :     0.1729540 α      lambda       -0.1109624E-03
   maximum displ.:     0.1409615 α      in ANC's #3, #4, #6, ...

........................................................................
.............................. CYCLE    9 ..............................
........................................................................

 iter      E             dE          RMSdq      gap      omega  full diag
   1    -66.1220257 -0.661220E+02  0.563E-02    4.31       0.0  T
   2    -66.1220264 -0.776360E-06  0.334E-02    4.31       1.0  T
   3    -66.1220248  0.161030E-05  0.690E-03    4.31       2.4  T
   4    -66.1220268 -0.195615E-05  0.109E-03    4.31      14.9  T
   5    -66.1220268 -0.992684E-08  0.555E-04    4.31      29.2  T
   6    -66.1220268 -0.200093E-08  0.243E-04    4.31      66.9  T
     SCC iter.                  ...        0 min,  0.010 sec
     gradient                   ...        0 min,  0.019 sec
 * total energy  :   -65.4740339 Eh     change       -0.8715435E-04 Eh
   gradient norm :     0.0030108 Eh/α   predicted    -0.5714236E-04 ( -34.44%)
   displ. norm   :     0.1499982 α      lambda       -0.7999411E-04
   maximum displ.:     0.1192530 α      in ANC's #3, #4, #2, ...

........................................................................
.............................. CYCLE   10 ..............................
........................................................................

 iter      E             dE          RMSdq      gap      omega  full diag
   1    -66.1225538 -0.661226E+02  0.476E-02    4.31       0.0  T
   2    -66.1225544 -0.609048E-06  0.282E-02    4.31       1.0  T
   3    -66.1225531  0.131948E-05  0.610E-03    4.31       2.7  T
   4    -66.1225546 -0.158337E-05  0.854E-04    4.31      19.0  T
   5    -66.1225546 -0.859512E-08  0.439E-04    4.31      36.9  T
   6    -66.1225546 -0.137506E-08  0.192E-04    4.31      84.4  T
     SCC iter.                  ...        0 min,  0.010 sec
     gradient                   ...        0 min,  0.019 sec
 * total energy  :   -65.4740987 Eh     change       -0.6485084E-04 Eh
   gradient norm :     0.0025266 Eh/α   predicted    -0.4089814E-04 ( -36.94%)
   displ. norm   :     0.1491126 α      lambda       -0.6714794E-04
   maximum displ.:     0.1141599 α      in ANC's #3, #2, #6, ...

........................................................................
.............................. CYCLE   11 ..............................
........................................................................

 iter      E             dE          RMSdq      gap      omega  full diag
   1    -66.1226246 -0.661226E+02  0.459E-02    4.31       0.0  T
   2    -66.1226252 -0.606547E-06  0.272E-02    4.31       1.0  T
   3    -66.1226240  0.120378E-05  0.582E-03    4.31       2.8  T
   4    -66.1226255 -0.145463E-05  0.889E-04    4.31      18.2  T
   5    -66.1226255 -0.984652E-08  0.462E-04    4.31      35.1  T
   6    -66.1226255 -0.145744E-08  0.193E-04    4.31      83.9  T
     SCC iter.                  ...        0 min,  0.010 sec
     gradient                   ...        0 min,  0.018 sec
 * total energy  :   -65.4741523 Eh     change       -0.5363372E-04 Eh
   gradient norm :     0.0023554 Eh/α   predicted    -0.3432113E-04 ( -36.01%)
   displ. norm   :     0.1459769 α      lambda       -0.5275535E-04
   maximum displ.:     0.1092592 α      in ANC's #3, #2, #1, ...

........................................................................
.............................. CYCLE   12 ..............................
........................................................................

 iter      E             dE          RMSdq      gap      omega  full diag
   1    -66.1222649 -0.661223E+02  0.435E-02    4.31       0.0  T
   2    -66.1222654 -0.545967E-06  0.258E-02    4.31       1.0  T
   3    -66.1222643  0.111872E-05  0.551E-03    4.31       2.9  T
   4    -66.1222657 -0.135358E-05  0.886E-04    4.31      18.3  T
   5    -66.1222657 -0.839340E-08  0.471E-04    4.31      34.5  T
   6    -66.1222657 -0.143348E-08  0.194E-04    4.31      83.8  T
     SCC iter.                  ...        0 min,  0.010 sec
     gradient                   ...        0 min,  0.018 sec
 * total energy  :   -65.4741936 Eh     change       -0.4126092E-04 Eh
   gradient norm :     0.0019422 Eh/α   predicted    -0.2694012E-04 ( -34.71%)
   displ. norm   :     0.2122307 α      lambda       -0.4082184E-04
   maximum displ.:     0.1550560 α      in ANC's #3, #2, #1, ...

........................................................................
.............................. CYCLE   13 ..............................
........................................................................

 iter      E             dE          RMSdq      gap      omega  full diag
   1    -66.1219567 -0.661220E+02  0.611E-02    4.31       0.0  T
   2    -66.1219578 -0.111688E-05  0.364E-02    4.31       1.0  T
   3    -66.1219554  0.241788E-05  0.804E-03    4.31       2.0  T
   4    -66.1219584 -0.294432E-05  0.140E-03    4.31      11.6  T
   5    -66.1219584 -0.144567E-07  0.745E-04    4.31      21.8  T
   6    -66.1219584 -0.352809E-08  0.284E-04    4.31      57.1  T
     SCC iter.                  ...        0 min,  0.010 sec
     gradient                   ...        0 min,  0.019 sec
 * total energy  :   -65.4742329 Eh     change       -0.3929295E-04 Eh
   gradient norm :     0.0019875 Eh/α   predicted    -0.2082248E-04 ( -47.01%)
   displ. norm   :     0.1024094 α      lambda       -0.1739550E-04
   maximum displ.:     0.0722246 α      in ANC's #3, #1, #2, ...

........................................................................
.............................. CYCLE   14 ..............................
........................................................................

 iter      E             dE          RMSdq      gap      omega  full diag
   1    -66.1221784 -0.661222E+02  0.273E-02    4.31       0.0  T
   2    -66.1221788 -0.365987E-06  0.163E-02    4.31       1.0  T
   3    -66.1221779  0.864911E-06  0.485E-03    4.31       3.3  T
   4    -66.1221789 -0.105032E-05  0.717E-04    4.31      22.6  T
   5    -66.1221790 -0.368291E-08  0.380E-04    4.31      42.6  T
   6    -66.1221790 -0.581807E-09  0.162E-04    4.31     100.1  T
     SCC iter.                  ...        0 min,  0.010 sec
     gradient                   ...        0 min,  0.019 sec
 * total energy  :   -65.4742514 Eh     change       -0.1850842E-04 Eh
   gradient norm :     0.0013474 Eh/α   predicted    -0.8740458E-05 ( -52.78%)
   displ. norm   :     0.1122515 α      lambda       -0.1649380E-04
   maximum displ.:     0.0695400 α      in ANC's #3, #1, #7, ...

........................................................................
.............................. CYCLE   15 ..............................
........................................................................

 iter      E             dE          RMSdq      gap      omega  full diag
   1    -66.1226539 -0.661227E+02  0.291E-02    4.31       0.0  T
   2    -66.1226543 -0.400487E-06  0.175E-02    4.32       1.0  T
   3    -66.1226534  0.894059E-06  0.503E-03    4.32       3.2  T
   4    -66.1226545 -0.109726E-05  0.819E-04    4.32      19.8  T
   5    -66.1226545 -0.448331E-08  0.424E-04    4.32      38.2  T
   6    -66.1226545 -0.112760E-08  0.166E-04    4.32      97.9  T
     SCC iter.                  ...        0 min,  0.010 sec
     gradient                   ...        0 min,  0.019 sec
 * total energy  :   -65.4742627 Eh     change       -0.1128210E-04 Eh
   gradient norm :     0.0016503 Eh/α   predicted    -0.8294505E-05 ( -26.48%)
   displ. norm   :     0.0414573 α      lambda       -0.7770066E-05
   maximum displ.:     0.0212767 α      in ANC's #1, #7, #4, ...

........................................................................
.............................. CYCLE   16 ..............................
........................................................................

 iter      E             dE          RMSdq      gap      omega  full diag
   1    -66.1226072 -0.661226E+02  0.114E-02    4.31       0.0  T
   2    -66.1226073 -0.138725E-06  0.687E-03    4.31       2.4  T
   3    -66.1226071  0.176207E-06  0.255E-03    4.31       6.3  T
   4    -66.1226073 -0.222848E-06  0.362E-04    4.31      44.9  T
   5    -66.1226073 -0.218783E-08  0.161E-04    4.31     101.1  T
     SCC iter.                  ...        0 min,  0.008 sec
     gradient                   ...        0 min,  0.018 sec
 * total energy  :   -65.4742689 Eh     change       -0.6177233E-05 Eh
   gradient norm :     0.0010847 Eh/α   predicted    -0.3888812E-05 ( -37.05%)
   displ. norm   :     0.0310613 α      lambda       -0.3966652E-05
   maximum displ.:     0.0159651 α      in ANC's #4, #6, #1, ...

........................................................................
.............................. CYCLE   17 ..............................
........................................................................

 iter      E             dE          RMSdq      gap      omega  full diag
   1    -66.1225280 -0.661225E+02  0.866E-03    4.31       0.0  T
   2    -66.1225280 -0.145958E-07  0.518E-03    4.31       3.1  T
   3    -66.1225280  0.262828E-08  0.529E-04    4.31      30.7  T
   4    -66.1225280 -0.859670E-08  0.232E-04    4.31      70.0  T
     SCC iter.                  ...        0 min,  0.007 sec
     gradient                   ...        0 min,  0.019 sec
 * total energy  :   -65.4742734 Eh     change       -0.4494501E-05 Eh
   gradient norm :     0.0008349 Eh/α   predicted    -0.1988667E-05 ( -55.75%)
   displ. norm   :     0.0514719 α      lambda       -0.4768938E-05
   maximum displ.:     0.0287489 α      in ANC's #1, #4, #6, ...

   *** GEOMETRY OPTIMIZATION CONVERGED AFTER 17 ITERATIONS ***

------------------------------------------------------------------------
 total energy gain   :        -0.0116823 Eh       -7.3307 kcal/mol
 total RMSD          :         0.3839956 a0        0.2032 Å
 total power (kW/mol):        -1.8042208 (step)  -48.7416 (real)
------------------------------------------------------------------------

 ANCopt (total)                0 d,  0 h,  0 min,  0.629 sec
 optimizer setup                ...        0 min,  0.000 sec (  0.012%)
 model hessian                  ...        0 min,  0.016 sec (  2.477%)
 ANC generation                 ...        0 min,  0.001 sec (  0.198%)
 coordinate transformation      ...        0 min,  0.000 sec (  0.026%)
 single point calculation       ...        0 min,  0.606 sec ( 96.254%)
 optimization log               ...        0 min,  0.004 sec (  0.586%)
 hessian update                 ...        0 min,  0.000 sec (  0.038%)
 rational function              ...        0 min,  0.001 sec (  0.176%)

================
 final structure:
================
38
 xtb: 6.7.1 (edcfbbe)
O            1.39262088874725       -0.62711188978432       -3.71181162635660
C            2.39939966930853       -0.81012464956031       -2.75665455525334
C            2.08026836874900       -0.07325009851364       -1.45145636341539
O            0.83877518237296       -0.58212616900368       -0.99232086887470
C            0.39756057876578        0.02435373936179        0.19488551927068
C            1.39661381120449       -0.19255986722360        1.34133049821935
C            2.75929579450949        0.35972249931513        0.92372013936299
C            3.18472123861299       -0.27308430396745       -0.40683117397973
O            4.36507016637932        0.30882076558214       -0.88726211863165
O            3.75185601713810        0.07969288153740        1.88067977874207
O            0.97628930692071        0.46478708718887        2.50660656215432
O           -0.78999631931024       -0.55914637535628        0.60827953939628
C           -1.97661596688845       -0.02299258612054        0.17229451177568
C           -2.14070797136728        0.57082327276896       -1.06924331710932
C           -3.37996684201963        1.07124726408095       -1.43178427668153
C           -4.45089971653809        0.97941741331468       -0.56192244051952
C           -4.28201905422712        0.39165810510930        0.68131685710500
C           -3.05067762273876       -0.11143746265448        1.06439305831642
C           -2.82585756625817       -0.73154150245970        2.41782584422302
O           -1.84361434786316        0.01770899888123        3.12310161125089
H            0.56040264342302       -0.89437063797364       -3.30225372531684
H            3.32267195213240       -0.40865808397411       -3.17484163852594
H            2.53376791859184       -1.87673381401788       -2.53065438316779
H            1.98334120696035        1.00493886558122       -1.65556399965788
H            0.26718525235292        1.11433900245986        0.03428722767009
H            1.47878573658704       -1.27817574670801        1.51421579365717
H            2.66672404146558        1.45101113314791        0.79204284282076
H            3.32907426785513       -1.35296379362368       -0.23857074995091
H            4.98543313292878        0.33811163174186       -0.14716920249077
H            3.38535734750700        0.31025862631261        2.74302468527829
H            0.01922116745492        0.31241688221442        2.62197215558061
H           -1.30669577248718        0.62814764139783       -1.75126393368070
H           -3.50419100734192        1.53136768785143       -2.40033507421752
H           -5.41576940921999        1.36990489357514       -0.84616914671280
H           -5.11469282040746        0.33106398224109        1.36611072923336
H           -2.47895162153951       -1.76655381646101        2.28703219699782
H           -3.76827861424183       -0.73939168249142        2.97955891344878
H           -1.74550103751934       -0.35936989377043        4.00423013003778

 Bond Distances (Angstroems)
 ---------------------------
O1-C2=1.3998         O1-H21=0.9653        C2-O1=1.3998         C2-C3=1.5324         C2-H22=1.0902        C2-H23=1.0985        
C3-C2=1.5324         C3-O4=1.4181         C3-C8=1.5333         C3-H24=1.1016        O4-C3=1.4181         O4-C5=1.4043         
C5-O4=1.4043         C5-C6=1.5361         C5-O12=1.3862        C5-H25=1.1094        C6-C5=1.5361         C6-C7=1.5285         
C6-O11=1.4024        C6-H26=1.1024        C7-C6=1.5285         C7-C8=1.5336         C7-O10=1.4069        C7-H27=1.1031        
C8-C3=1.5333         C8-C7=1.5336         C8-O9=1.4009         C8-H28=1.1024        O9-C8=1.4009         O9-H29=0.9662        
O10-C7=1.4069        O10-H30=0.9649       O11-C6=1.4024        O11-H31=0.9760       O12-C5=1.3862        O12-C13=1.3732       
C13-O12=1.3732       C13-C14=1.3860       C13-C18=1.3990       C14-C13=1.3860       C14-C15=1.3848       C14-H32=1.0789       
C15-C14=1.3848       C15-C16=1.3827       C15-H33=1.0795       C16-C15=1.3827       C16-C17=1.3855       C16-H34=1.0790       
C17-C16=1.3855       C17-C18=1.3842       C17-H35=1.0798       C18-C13=1.3990       C18-C17=1.3842       C18-C19=1.5056       
C19-C18=1.5056       C19-O20=1.4225       C19-H36=1.0994       C19-H37=1.0972       O20-C19=1.4225       O20-H38=0.9634       
H21-O1=0.9653        H22-C2=1.0902        H23-C2=1.0985        H24-C3=1.1016        H25-C5=1.1094        H26-C6=1.1024        
H27-C7=1.1031        H28-C8=1.1024        H29-O9=0.9662        H30-O10=0.9649       H31-O11=0.9760       H32-C14=1.0789       
H33-C15=1.0795       H34-C16=1.0790       H35-C17=1.0798       H36-C19=1.0994       H37-C19=1.0972       H38-O20=0.9634       
 C  H  Rav=1.0940 sigma=0.0106  Rmin=1.0789  Rmax=1.1094    13
 C  C  Rav=1.4576 sigma=0.0711  Rmin=1.3827  Rmax=1.5361    12
 O  H  Rav=0.9672 sigma=0.0045  Rmin=0.9634  Rmax=0.9760     5
 O  C  Rav=1.4016 sigma=0.0141  Rmin=1.3732  Rmax=1.4225     9

 selected bond angles (degree)
 --------------------
H21-O1-C2=107.12               C3-C2-O1=111.62                H22-C2-O1=107.41               H22-C2-C3=109.03               
H23-C2-O1=110.81               H23-C2-C3=108.49               H23-C2-H22=109.44              O4-C3-C2=106.59                
C8-C3-C2=111.57                C8-C3-O4=111.30                H24-C3-C2=109.34               H24-C3-O4=109.52               
H24-C3-C8=108.49               C5-O4-C3=113.19                C6-C5-O4=111.45                O12-C5-O4=109.85               
O12-C5-C6=105.97               H25-C5-O4=109.81               H25-C5-C6=108.86               H25-C5-O12=110.86              
C7-C6-C5=108.96                O11-C6-C5=111.04               O11-C6-C7=108.96               H26-C6-C5=107.73               
H26-C6-C7=109.40               H26-C6-O11=110.71              C8-C7-C6=109.59                O10-C7-C6=111.79               
O10-C7-C8=108.20               H27-C7-C6=108.38               H27-C7-C8=109.14               H27-C7-O10=109.71              
C7-C8-C3=109.72                O9-C8-C3=108.61                O9-C8-C7=111.09                H28-C8-C3=109.02               
H28-C8-C7=107.95               H28-C8-O9=110.42               H29-O9-C8=106.91               H30-O10-C7=107.00              

 selected dihedral angles (degree)
 ---------------------------------
C3-C2-O1-H21=305.53           H22-C2-O1-H21=186.07          H23-C2-O1-H21= 66.57          O4-C3-C2-O1= 58.38            
O4-C3-C2-H22=176.89           O4-C3-C2-H23=296.00           C8-C3-C2-O1=180.07            C8-C3-C2-H22=298.58           
C8-C3-C2-H23= 57.69           H24-C3-C2-O1=300.08           H24-C3-C2-H22= 58.59          H24-C3-C2-H23=177.70          
C5-O4-C3-C2=181.22            C5-O4-C3-C8= 59.36            C5-O4-C3-H24=299.40           C6-C5-O4-C3=299.48            
O12-C5-O4-C3=182.35           H25-C5-O4-C3= 60.19           C7-C6-C5-O4= 57.43            C7-C6-C5-O12=176.89           
C7-C6-C5-H25=296.17           O11-C6-C5-O4=177.44           O11-C6-C5-O12=296.91          O11-C6-C5-H25= 56.19          
H26-C6-C5-O4=298.83           H26-C6-C5-O12= 58.29          H26-C6-C5-H25=177.58          C8-C7-C6-C5=305.53            
C8-C7-C6-O11=184.24           C8-C7-C6-H26= 63.08           O10-C7-C6-C5=185.58           O10-C7-C6-O11= 64.29          
O10-C7-C6-H26=303.13          H27-C7-C6-C5= 64.54           H27-C7-C6-O11=303.25          H27-C7-C6-H26=182.09          
C7-C8-C3-C2=185.70            C7-C8-C3-O4=304.62            C7-C8-C3-H24= 65.19           O9-C8-C3-C2= 64.09            
O9-C8-C3-O4=183.01            O9-C8-C3-H24=303.58           H28-C8-C3-C2=303.72           H28-C8-C3-O4= 62.65           
H28-C8-C3-H24=183.22          C3-C8-C7-C6= 53.93            C3-C8-C7-O10=176.06           C3-C8-C7-H27=295.40           
O9-C8-C7-C6=174.04            O9-C8-C7-O10=296.17           O9-C8-C7-H27= 55.51           H28-C8-C7-C6=295.24           
H28-C8-C7-O10= 57.36          H28-C8-C7-H27=176.70          H29-O9-C8-C3=168.22           H29-O9-C8-C7= 47.45           
H29-O9-C8-H28=287.71          H30-O10-C7-C6=312.94          H30-O10-C7-C8=192.18          H30-O10-C7-H27= 73.20         
           -------------------------------------------------
          |                Final Singlepoint                |
           -------------------------------------------------

          ...................................................
          :                      SETUP                      :
          :.................................................:
          :  # basis functions                  98          :
          :  # atomic orbitals                  98          :
          :  # shells                           58          :
          :  # electrons                       112          :
          :  max. iterations                   250          :
          :  Hamiltonian                  GFN2-xTB          :
          :  restarted?                      false          :
          :  GBSA solvation                  false          :
          :  PC potential                    false          :
          :  electronic temp.          300.0000000     K    :
          :  accuracy                    1.0000000          :
          :  -> integral cutoff          0.2500000E+02      :
          :  -> integral neglect         0.1000000E-07      :
          :  -> SCF convergence          0.1000000E-05 Eh   :
          :  -> wf. convergence          0.1000000E-03 e    :
          :  Broyden damping             0.4000000          :
          :  net charge                          0          :
          :  unpaired electrons                  0          :
          ...................................................

 iter      E             dE          RMSdq      gap      omega  full diag
   1    -66.1225280 -0.661225E+02  0.104E-04    4.31       0.0  T
   2    -66.1225280 -0.732570E-10  0.649E-05    4.31     249.8  T
   3    -66.1225280 -0.293738E-10  0.416E-05    4.31     390.3  T

   *** convergence criteria satisfied after 3 iterations ***

         #    Occupation            Energy/Eh            Energy/eV
      -------------------------------------------------------------
         1        2.0000           -0.7364211             -20.0390
       ...           ...                  ...                  ...
        50        2.0000           -0.4317809             -11.7494
        51        2.0000           -0.4224245             -11.4948
        52        2.0000           -0.4194058             -11.4126
        53        2.0000           -0.4171019             -11.3499
        54        2.0000           -0.4144272             -11.2771
        55        2.0000           -0.4119099             -11.2086
        56        2.0000           -0.3975578             -10.8181 (HOMO)
        57                         -0.2390300              -6.5043 (LUMO)
        58                         -0.2313343              -6.2949
        59                         -0.1096525              -2.9838
        60                         -0.0300719              -0.8183
        61                         -0.0040769              -0.1109
       ...                                ...                  ...
        98                          0.6519627              17.7408
      -------------------------------------------------------------
                  HL-Gap            0.1585278 Eh            4.3138 eV
             Fermi-level           -0.3182939 Eh           -8.6612 eV

 SCC (total)                   0 d,  0 h,  0 min,  0.031 sec
 SCC setup                      ...        0 min,  0.000 sec (  0.842%)
 Dispersion                     ...        0 min,  0.000 sec (  0.806%)
 classical contributions        ...        0 min,  0.000 sec (  0.369%)
 integral evaluation            ...        0 min,  0.006 sec ( 20.276%)
 iterations                     ...        0 min,  0.005 sec ( 16.723%)
 molecular gradient             ...        0 min,  0.019 sec ( 60.437%)
 printout                       ...        0 min,  0.000 sec (  0.521%)

         :::::::::::::::::::::::::::::::::::::::::::::::::::::
         ::                     SUMMARY                     ::
         :::::::::::::::::::::::::::::::::::::::::::::::::::::
         :: total energy             -65.474273352709 Eh    ::
         :: gradient norm              0.000835578540 Eh/a0 ::
         :: HOMO-LUMO gap              4.313760371390 eV    ::
         ::.................................................::
         :: SCC energy               -66.122273106082 Eh    ::
         :: -> isotropic ES            0.152098823456 Eh    ::
         :: -> anisotropic ES         -0.006513750145 Eh    ::
         :: -> anisotropic XC         -0.002964110868 Eh    ::
         :: -> dispersion             -0.036996823533 Eh    ::
         :: repulsion energy           0.647999753373 Eh    ::
         :: add. restraining           0.000000000000 Eh    ::
         :: total charge              -0.000000000000 e     ::
         :::::::::::::::::::::::::::::::::::::::::::::::::::::

           -------------------------------------------------
          |                Property Printout                |
           -------------------------------------------------

    * Orbital Energies and Occupations

         #    Occupation            Energy/Eh            Energy/eV
      -------------------------------------------------------------
         1        2.0000           -0.7364211             -20.0390
       ...           ...                  ...                  ...
        44        2.0000           -0.4715407             -12.8313
        45        2.0000           -0.4645140             -12.6401
        46        2.0000           -0.4508900             -12.2693
        47        2.0000           -0.4479687             -12.1898
        48        2.0000           -0.4424607             -12.0400
        49        2.0000           -0.4345376             -11.8244
        50        2.0000           -0.4317809             -11.7494
        51        2.0000           -0.4224245             -11.4948
        52        2.0000           -0.4194058             -11.4126
        53        2.0000           -0.4171019             -11.3499
        54        2.0000           -0.4144272             -11.2771
        55        2.0000           -0.4119099             -11.2086
        56        2.0000           -0.3975578             -10.8181 (HOMO)
        57                         -0.2390300              -6.5043 (LUMO)
        58                         -0.2313343              -6.2949
        59                         -0.1096525              -2.9838
        60                         -0.0300719              -0.8183
        61                         -0.0040769              -0.1109
        62                          0.0142245               0.3871
        63                          0.0269795               0.7342
        64                          0.0398124               1.0834
        65                          0.0502241               1.3667
        66                          0.0667908               1.8175
        67                          0.0797212               2.1693
       ...                                ...                  ...
        98                          0.6519627              17.7408
      -------------------------------------------------------------
                  HL-Gap            0.1585278 Eh            4.3138 eV
             Fermi-level           -0.3182939 Eh           -8.6612 eV

     #   Z          covCN         q      C6AA      α(0)
     1   8 O        1.656    -0.428    21.391     6.244
     2   6 C        3.677     0.074    19.565     6.337
     3   6 C        3.754     0.096    19.054     6.224
     4   8 O        1.701    -0.340    19.711     5.994
     5   6 C        3.655     0.245    17.075     5.933
     6   6 C        3.729     0.089    19.194     6.255
     7   6 C        3.731     0.098    19.050     6.230
     8   6 C        3.729     0.094    19.110     6.241
     9   8 O        1.657    -0.440    21.639     6.280
    10   8 O        1.656    -0.446    21.754     6.296
    11   8 O        1.655    -0.461    22.073     6.342
    12   8 O        1.708    -0.275    18.562     5.817
    13   6 C        2.875     0.144    24.857     8.173
    14   6 C        2.916    -0.058    29.443     8.898
    15   6 C        2.921    -0.030    28.738     8.791
    16   6 C        2.918    -0.037    28.928     8.820
    17   6 C        2.924    -0.036    28.887     8.814
    18   6 C        2.967    -0.009    28.247     8.718
    19   6 C        3.678     0.086    19.361     6.303
    20   8 O        1.654    -0.445    21.743     6.295
    21   1 H        0.805     0.304     0.710     1.324
    22   1 H        0.925     0.076     2.021     2.223
    23   1 H        0.923     0.037     2.489     2.467
    24   1 H        0.923     0.039     2.464     2.455
    25   1 H        0.922     0.007     2.945     2.684
    26   1 H        0.923     0.037     2.485     2.465
    27   1 H        0.923     0.031     2.573     2.508
    28   1 H        0.923     0.034     2.524     2.485
    29   1 H        0.805     0.321     0.660     1.277
    30   1 H        0.805     0.316     0.674     1.290
    31   1 H        0.804     0.329     0.640     1.257
    32   1 H        0.926     0.051     2.309     2.376
    33   1 H        0.926     0.047     2.362     2.404
    34   1 H        0.926     0.045     2.389     2.417
    35   1 H        0.926     0.044     2.390     2.418
    36   1 H        0.923     0.037     2.496     2.471
    37   1 H        0.924     0.029     2.598     2.521
    38   1 H        0.805     0.295     0.737     1.349

 Mol. C6AA /au·bohr⁶  :      14041.923713
 Mol. C8AA /au·bohr⁸  :     316505.852269
 Mol. α(0) /au        :        177.392232


Wiberg/Mayer (AO) data.
largest (>0.10) Wiberg bond orders for each atom

 ---------------------------------------------------------------------------
     #   Z sym  total        # sym  WBO       # sym  WBO       # sym  WBO
 ---------------------------------------------------------------------------
     1   8 O    1.968 --     2 C    1.016    21 H    0.891
     2   6 C    3.960 --     1 O    1.016     3 C    0.977    22 H    0.968
                            23 H    0.967
     3   6 C    3.939 --     2 C    0.977     8 C    0.970     4 O    0.959
                            24 H    0.956
     4   8 O    2.075 --     5 C    0.963     3 C    0.959
     5   6 C    3.928 --    12 O    0.988     4 O    0.963     6 C    0.949
                            25 H    0.944
     6   6 C    3.964 --    11 O    1.007     7 C    0.971    26 H    0.954
                             5 C    0.949
     7   6 C    3.962 --    10 O    0.997     6 C    0.971     8 C    0.969
                            27 H    0.956
     8   6 C    3.965 --     9 O    1.006     3 C    0.970     7 C    0.969
                            28 H    0.955
     9   8 O    1.957 --     8 C    1.006    29 H    0.879
    10   8 O    1.955 --     7 C    0.997    30 H    0.882
    11   8 O    1.945 --     6 C    1.007    31 H    0.845
    12   8 O    2.217 --    13 C    1.017     5 C    0.988
    13   6 C    3.925 --    14 C    1.396    18 C    1.342    12 O    1.017
    14   6 C    3.988 --    15 C    1.434    13 C    1.396    32 H    0.965
                            17 C    0.105
    15   6 C    3.991 --    16 C    1.445    14 C    1.434    33 H    0.970
                            18 C    0.108
    16   6 C    3.990 --    15 C    1.445    17 C    1.428    34 H    0.970
    17   6 C    3.990 --    18 C    1.437    16 C    1.428    35 H    0.968
                            14 C    0.105
    18   6 C    3.985 --    17 C    1.437    13 C    1.342    19 C    1.003
                            15 C    0.108
    19   6 C    3.953 --    18 C    1.003    20 O    0.978    37 H    0.972
                            36 H    0.962
    20   8 O    1.969 --    19 C    0.978    38 H    0.900
    21   1 H    0.908 --     1 O    0.891
    22   1 H    0.994 --     2 C    0.968
    23   1 H    0.999 --     2 C    0.967
    24   1 H    0.998 --     3 C    0.956
    25   1 H    1.000 --     5 C    0.944
    26   1 H    0.999 --     6 C    0.954
    27   1 H    0.999 --     7 C    0.956
    28   1 H    0.999 --     8 C    0.955
    29   1 H    0.897 --     9 O    0.879
    30   1 H    0.900 --    10 O    0.882
    31   1 H    0.891 --    11 O    0.845
    32   1 H    0.997 --    14 C    0.965
    33   1 H    0.997 --    15 C    0.970
    34   1 H    0.998 --    16 C    0.970
    35   1 H    0.997 --    17 C    0.968
    36   1 H    0.999 --    19 C    0.962
    37   1 H    0.999 --    19 C    0.972
    38   1 H    0.913 --    20 O    0.900
 ---------------------------------------------------------------------------

Topologies differ in total number of bonds
Writing topology from bond orders to xtbtopo.mol

molecular dipole:
                 x           y           z       tot (Debye)
 q only:       -1.059      -0.190       0.929
   full:       -1.381      -0.335       1.551       5.346
molecular quadrupole (traceless):
                xx          xy          yy          xz          yz          zz
 q only:        5.938       0.324      -3.379       1.092      -4.078      -2.559
  q+dip:        2.060      -0.646       1.609       1.235      -8.251      -3.669
   full:        2.700       0.801       0.727       2.074      -6.566      -3.427

           -------------------------------------------------
          |                Geometry Summary                 |
           -------------------------------------------------

      molecular mass/u    :      286.2783346
   center of mass at/Å    :        0.0750509      -0.0015541       0.1123165
  moments of inertia/u·Å² :        0.9665597E+03   0.2233587E+04   0.3032329E+04
rotational constants/cm⁻¹ :        0.1744086E-01   0.7547338E-02   0.5559303E-02

 * 38 selected distances

     #   Z          #   Z                                           value/Å
     1   8 O        2   6 C                                       1.3997938
     2   6 C        3   6 C                                       1.5324398
     3   6 C        4   8 O                                       1.4181206
     4   8 O        5   6 C                                       1.4042605
     5   6 C        6   6 C                                       1.5360649 (max)
     6   6 C        7   6 C                                       1.5285015
     3   6 C        8   6 C                                       1.5332945
     7   6 C        8   6 C                                       1.5335575
     8   6 C        9   8 O                                       1.4009466
     7   6 C       10   8 O                                       1.4068989
     6   6 C       11   8 O                                       1.4023717
     5   6 C       12   8 O                                       1.3862391
    12   8 O       13   6 C                                       1.3731753
    13   6 C       14   6 C                                       1.3859870
    14   6 C       15   6 C                                       1.3847827
    15   6 C       16   6 C                                       1.3827472
    16   6 C       17   6 C                                       1.3855057
    13   6 C       18   6 C                                       1.3990251
    17   6 C       18   6 C                                       1.3842162
    19   6 C       20   8 O                                       1.4225303
     1   8 O       21   1 H                                       0.9652732
     2   6 C       22   1 H                                       1.0901779
     2   6 C       23   1 H                                       1.0985382
     3   6 C       24   1 H                                       1.1016109
     5   6 C       25   1 H                                       1.1094402
     6   6 C       26   1 H                                       1.1023627
     7   6 C       27   1 H                                       1.1030954
     8   6 C       28   1 H                                       1.1024016
     9   8 O       29   1 H                                       0.9661500
    10   8 O       30   1 H                                       0.9649460
    11   8 O       31   1 H                                       0.9759639
    14   6 C       32   1 H                                       1.0788952
    15   6 C       33   1 H                                       1.0794597
    16   6 C       34   1 H                                       1.0790044
    17   6 C       35   1 H                                       1.0797963
    19   6 C       36   1 H                                       1.0994096
    19   6 C       37   1 H                                       1.0971615
    20   8 O       38   1 H                                       0.9634326 (min)

 * 4 distinct bonds (by element types)

   Z      Z             #   av. dist./Å        max./Å        min./Å
   1 H    6 C          13     1.0939503     1.1094402     1.0788952
   6 C    6 C          11     1.4532838     1.5360649     1.3827472
   1 H    8 O           5     0.9671531     0.9759639     0.9634326
   6 C    8 O           9     1.4015930     1.4225303     1.3731753


optimized geometry written to: xtbopt.xyz


           -------------------------------------------------
          | TOTAL ENERGY              -65.474273352709 Eh   |
          | GRADIENT NORM               0.000835578540 Eh/α |
          | HOMO-LUMO GAP               4.313760371390 eV   |
           -------------------------------------------------

------------------------------------------------------------------------
 * finished run on 2025/05/15 at 16:13:04.544     
------------------------------------------------------------------------
 total:
 * wall-time:     0 d,  0 h,  0 min,  0.720 sec
 *  cpu-time:     0 d,  0 h,  0 min,  0.711 sec
 * ratio c/w:     0.987 speedup
 SCF:
 * wall-time:     0 d,  0 h,  0 min,  0.045 sec
 *  cpu-time:     0 d,  0 h,  0 min,  0.045 sec
 * ratio c/w:     0.994 speedup
 ANC optimizer:
 * wall-time:     0 d,  0 h,  0 min,  0.662 sec
 *  cpu-time:     0 d,  0 h,  0 min,  0.655 sec
 * ratio c/w:     0.989 speedup



----- Single-point -----
      -----------------------------------------------------------      
     |                   =====================                   |     
     |                           x T B                           |     
     |                   =====================                   |     
     |                         S. Grimme                         |     
     |          Mulliken Center for Theoretical Chemistry        |     
     |                    University of Bonn                     |     
      -----------------------------------------------------------      

   * xtb version 6.7.1 (edcfbbe) compiled by 'conda@3ef47c1a292c' on 2024-11-25

   xtb is free software: you can redistribute it and/or modify it under
   the terms of the GNU Lesser General Public License as published by
   the Free Software Foundation, either version 3 of the License, or
   (at your option) any later version.
   
   xtb is distributed in the hope that it will be useful,
   but WITHOUT ANY WARRANTY; without even the implied warranty of
   MERCHANTABILITY or FITNESS FOR A PARTICULAR PURPOSE.  See the
   GNU Lesser General Public License for more details.
   
   Cite this work as:
   * C. Bannwarth, E. Caldeweyher, S. Ehlert, A. Hansen, P. Pracht,
     J. Seibert, S. Spicher, S. Grimme, WIREs Comput. Mol. Sci., 2020, 11,
     e01493. DOI: 10.1002/wcms.1493
   
   for GFN2-xTB:
   * C. Bannwarth, S. Ehlert and S. Grimme., J. Chem. Theory Comput., 2019,
     15, 1652-1671. DOI: 10.1021/acs.jctc.8b01176
   for GFN1-xTB:
   * S. Grimme, C. Bannwarth, P. Shushkov, J. Chem. Theory Comput., 2017,
     13, 1989-2009. DOI: 10.1021/acs.jctc.7b00118
   for GFN0-xTB:
   * P. Pracht, E. Caldeweyher, S. Ehlert, S. Grimme, ChemRxiv, 2019, preprint.
     DOI: 10.26434/chemrxiv.8326202.v1
   for GFN-FF:
   * S. Spicher and S. Grimme, Angew. Chem. Int. Ed., 2020, 59, 15665-15673.
     DOI: 10.1002/anie.202004239
   
   for ALPB and GBSA implicit solvation:
   * S. Ehlert, M. Stahn, S. Spicher, S. Grimme, J. Chem. Theory Comput.,
     2021, 17, 4250-4261. DOI: 10.1021/acs.jctc.1c00471
   
   for ddCOSMO and CPCM-X implicit solvation:
   * M. Stahn, S. Ehlert, S. Grimme, J. Phys. Chem. A,
     2023, XX, XXXX-XXXX. DOI: 10.1021/acs.jpca.3c04382
   
   for DFT-D4:
   * E. Caldeweyher, C. Bannwarth and S. Grimme, J. Chem. Phys., 2017,
     147, 034112. DOI: 10.1063/1.4993215
   * E. Caldeweyher, S. Ehlert, A. Hansen, H. Neugebauer, S. Spicher,
     C. Bannwarth and S. Grimme, J. Chem. Phys., 2019, 150, 154122.
     DOI: 10.1063/1.5090222
   * E. Caldeweyher, J.-M. Mewes, S. Ehlert and S. Grimme, Phys. Chem. Chem. Phys.
     2020, 22, 8499-8512. DOI: 10.1039/D0CP00502A
   
   for sTDA-xTB:
   * S. Grimme and C. Bannwarth, J. Chem. Phys., 2016, 145, 054103.
     DOI: 10.1063/1.4959605
   
   in the mass-spec context:
   * V. Asgeirsson, C. Bauer and S. Grimme, Chem. Sci., 2017, 8, 4879.
     DOI: 10.1039/c7sc00601b
   * J. Koopman and S. Grimme, ACS Omega 2019, 4, 12, 15120-15133.
     DOI: 10.1021/acsomega.9b02011
   
   for metadynamics refer to:
   * S. Grimme, J. Chem. Theory Comput., 2019, 155, 2847-2862
     DOI: 10.1021/acs.jctc.9b00143
   
   for SPH calculations refer to:
   * S. Spicher and S. Grimme, J. Chem. Theory Comput., 2021, 17, 1701-1714
     DOI: 10.1021/acs.jctc.0c01306
   
   for ONIOM refer to:
   * C. Plett, A. Katbashev, S. Ehlert, S. Grimme, M. Bursch,
     Phys. Chem. Chem. Phys., 2023, 25, 17860-17868. DOI: 10.1039/D3CP02178E
   
   for DIPRO refer to:
   * J. Kohn, N. Gildemeister, S. Grimme, D. Fazzi, A. Hansen,
     J. Chem. Phys., 2023, just accepted.
   
   for PTB refer to:
   * S. Grimme, M. Mueller, A. Hansen, J. Chem. Phys., 2023, 158, 124111.
     DOI: 10.1063/5.0137838
   
   with help from (in alphabetical order)
   P. Atkinson, C. Bannwarth, F. Bohle, G. Brandenburg, E. Caldeweyher
   M. Checinski, S. Dohm, S. Ehlert, S. Ehrlich, I. Gerasimov, C. Hölzer
   A. Katbashev, J. Kohn, J. Koopman, C. Lavigne, S. Lehtola, F. März, M. Müller,
   F. Musil, H. Neugebauer, J. Pisarek, C. Plett, P. Pracht, F. Pultar,
   J. Seibert, P. Shushkov, S. Spicher, M. Stahn, M. Steiner, T. Strunk,
   J. Stückrath, T. Rose, and J. Unsleber
   
 * started run on 2025/05/15 at 16:13:04.569     
   ID    Z sym.   atoms
    1    8 O      1, 4, 9-12, 20
    2    6 C      2, 3, 5-8, 13-19
    3    1 H      21-38

           -------------------------------------------------
          |                Calculation Setup                |
           -------------------------------------------------

          program call               : xtb /rds/general/user/hgt20/home/callum/QDESCP/Salicin_rdkit_conf_1/Salicin_rdkit_conf_1.xyz --acc 1 --gfn 2 --chrg 0 --uhf 0 --etemp 300 --input /rds/general/user/hgt20/home/callum/QDESCP/Salicin_rdkit_conf_1/Salicin_rdkit_conf_1_xtb.inp -P 1
          hostname                   : login-c
          coordinate file            : /rds/general/user/hgt20/home/callum/QDESCP/Salicin_rdkit_conf_1/Salicin_rdkit_conf_1.xyz
          omp threads                :                     1


           -------------------------------------------------
          |                 G F N 2 - x T B                 |
           -------------------------------------------------

        Reference                      10.1021/acs.jctc.8b01176
      * Hamiltonian:
        H0-scaling (s, p, d)           1.850000    2.230000    2.230000
        zeta-weighting                 0.500000
      * Dispersion:
        s8                             2.700000
        a1                             0.520000
        a2                             5.000000
        s9                             5.000000
      * Repulsion:
        kExp                           1.500000    1.000000
        rExp                           1.000000
      * Coulomb:
        alpha                          2.000000
        third order                    shell-resolved
        anisotropic                    true
        a3                             3.000000
        a5                             4.000000
        cn-shift                       1.200000
        cn-exp                         4.000000
        max-rad                        5.000000

q/qsh data taken from xtbrestart
CAMM data taken from xtbrestart

          ...................................................
          :                      SETUP                      :
          :.................................................:
          :  # basis functions                  98          :
          :  # atomic orbitals                  98          :
          :  # shells                           58          :
          :  # electrons                       112          :
          :  max. iterations                   250          :
          :  Hamiltonian                  GFN2-xTB          :
          :  restarted?                       true          :
          :  GBSA solvation                  false          :
          :  PC potential                    false          :
          :  electronic temp.          300.0000000     K    :
          :  accuracy                    1.0000000          :
          :  -> integral cutoff          0.2500000E+02      :
          :  -> integral neglect         0.1000000E-07      :
          :  -> SCF convergence          0.1000000E-05 Eh   :
          :  -> wf. convergence          0.1000000E-03 e    :
          :  Broyden damping             0.4000000          :
          :  net charge                          0          :
          :  unpaired electrons                  0          :
          ...................................................

 iter      E             dE          RMSdq      gap      omega  full diag
   1    -66.1225280 -0.661225E+02  0.788E-06    4.31       0.0  T
   2    -66.1225280 -0.110845E-11  0.487E-06    4.31    3328.0  T
   3    -66.1225280 -0.184741E-12  0.280E-06    4.31    5785.4  T

   *** convergence criteria satisfied after 3 iterations ***

         #    Occupation            Energy/Eh            Energy/eV
      -------------------------------------------------------------
         1        2.0000           -0.7364209             -20.0390
       ...           ...                  ...                  ...
        50        2.0000           -0.4317808             -11.7494
        51        2.0000           -0.4224244             -11.4948
        52        2.0000           -0.4194059             -11.4126
        53        2.0000           -0.4171019             -11.3499
        54        2.0000           -0.4144273             -11.2771
        55        2.0000           -0.4119099             -11.2086
        56        2.0000           -0.3975577             -10.8181 (HOMO)
        57                         -0.2390300              -6.5043 (LUMO)
        58                         -0.2313343              -6.2949
        59                         -0.1096526              -2.9838
        60                         -0.0300719              -0.8183
        61                         -0.0040768              -0.1109
       ...                                ...                  ...
        98                          0.6519627              17.7408
      -------------------------------------------------------------
                  HL-Gap            0.1585277 Eh            4.3138 eV
             Fermi-level           -0.3182938 Eh           -8.6612 eV

 SCC (total)                   0 d,  0 h,  0 min,  0.033 sec
 SCC setup                      ...        0 min,  0.000 sec (  1.110%)
 Dispersion                     ...        0 min,  0.000 sec (  1.199%)
 classical contributions        ...        0 min,  0.000 sec (  0.373%)
 integral evaluation            ...        0 min,  0.007 sec ( 19.821%)
 iterations                     ...        0 min,  0.007 sec ( 20.070%)
 molecular gradient             ...        0 min,  0.019 sec ( 56.848%)
 printout                       ...        0 min,  0.000 sec (  0.559%)

         :::::::::::::::::::::::::::::::::::::::::::::::::::::
         ::                     SUMMARY                     ::
         :::::::::::::::::::::::::::::::::::::::::::::::::::::
         :: total energy             -65.474273352726 Eh    ::
         :: gradient norm              0.000835670783 Eh/a0 ::
         :: HOMO-LUMO gap              4.313759177733 eV    ::
         ::.................................................::
         :: SCC energy               -66.122273106099 Eh    ::
         :: -> isotropic ES            0.152098934052 Eh    ::
         :: -> anisotropic ES         -0.006513764727 Eh    ::
         :: -> anisotropic XC         -0.002964129305 Eh    ::
         :: -> dispersion             -0.036996821691 Eh    ::
         :: repulsion energy           0.647999753373 Eh    ::
         :: add. restraining           0.000000000000 Eh    ::
         :: total charge               0.000000000000 e     ::
         :::::::::::::::::::::::::::::::::::::::::::::::::::::

           -------------------------------------------------
          |                Property Printout                |
           -------------------------------------------------

    * Orbital Energies and Occupations

         #    Occupation            Energy/Eh            Energy/eV
      -------------------------------------------------------------
         1        2.0000           -0.7364209             -20.0390
       ...           ...                  ...                  ...
        44        2.0000           -0.4715407             -12.8313
        45        2.0000           -0.4645141             -12.6401
        46        2.0000           -0.4508901             -12.2693
        47        2.0000           -0.4479688             -12.1899
        48        2.0000           -0.4424607             -12.0400
        49        2.0000           -0.4345377             -11.8244
        50        2.0000           -0.4317808             -11.7494
        51        2.0000           -0.4224244             -11.4948
        52        2.0000           -0.4194059             -11.4126
        53        2.0000           -0.4171019             -11.3499
        54        2.0000           -0.4144273             -11.2771
        55        2.0000           -0.4119099             -11.2086
        56        2.0000           -0.3975577             -10.8181 (HOMO)
        57                         -0.2390300              -6.5043 (LUMO)
        58                         -0.2313343              -6.2949
        59                         -0.1096526              -2.9838
        60                         -0.0300719              -0.8183
        61                         -0.0040768              -0.1109
        62                          0.0142246               0.3871
        63                          0.0269795               0.7342
        64                          0.0398124               1.0834
        65                          0.0502242               1.3667
        66                          0.0667908               1.8175
        67                          0.0797213               2.1693
       ...                                ...                  ...
        98                          0.6519627              17.7408
      -------------------------------------------------------------
                  HL-Gap            0.1585277 Eh            4.3138 eV
             Fermi-level           -0.3182938 Eh           -8.6612 eV

     #   Z          covCN         q      C6AA      α(0)
     1   8 O        1.656    -0.428    21.391     6.244
     2   6 C        3.677     0.074    19.565     6.337
     3   6 C        3.754     0.096    19.054     6.224
     4   8 O        1.701    -0.340    19.711     5.994
     5   6 C        3.655     0.245    17.075     5.933
     6   6 C        3.729     0.089    19.194     6.255
     7   6 C        3.731     0.098    19.050     6.230
     8   6 C        3.729     0.094    19.110     6.241
     9   8 O        1.657    -0.440    21.639     6.280
    10   8 O        1.656    -0.446    21.754     6.296
    11   8 O        1.655    -0.461    22.073     6.342
    12   8 O        1.708    -0.275    18.562     5.817
    13   6 C        2.875     0.144    24.857     8.173
    14   6 C        2.916    -0.058    29.443     8.898
    15   6 C        2.921    -0.030    28.738     8.791
    16   6 C        2.918    -0.037    28.928     8.820
    17   6 C        2.924    -0.036    28.887     8.814
    18   6 C        2.967    -0.009    28.247     8.718
    19   6 C        3.678     0.086    19.361     6.303
    20   8 O        1.654    -0.445    21.743     6.295
    21   1 H        0.805     0.304     0.710     1.324
    22   1 H        0.925     0.076     2.021     2.223
    23   1 H        0.923     0.037     2.489     2.467
    24   1 H        0.923     0.039     2.464     2.455
    25   1 H        0.922     0.007     2.945     2.684
    26   1 H        0.923     0.037     2.485     2.465
    27   1 H        0.923     0.031     2.573     2.508
    28   1 H        0.923     0.034     2.524     2.485
    29   1 H        0.805     0.321     0.660     1.277
    30   1 H        0.805     0.316     0.674     1.290
    31   1 H        0.804     0.329     0.640     1.257
    32   1 H        0.926     0.051     2.309     2.376
    33   1 H        0.926     0.047     2.362     2.404
    34   1 H        0.926     0.045     2.389     2.417
    35   1 H        0.926     0.044     2.390     2.418
    36   1 H        0.923     0.037     2.496     2.471
    37   1 H        0.924     0.029     2.598     2.521
    38   1 H        0.805     0.295     0.737     1.349

 Mol. C6AA /au·bohr⁶  :      14041.924269
 Mol. C8AA /au·bohr⁸  :     316505.861888
 Mol. α(0) /au        :        177.392235


Wiberg/Mayer (AO) data.
largest (>0.10) Wiberg bond orders for each atom

 ---------------------------------------------------------------------------
     #   Z sym  total        # sym  WBO       # sym  WBO       # sym  WBO
 ---------------------------------------------------------------------------
     1   8 O    1.968 --     2 C    1.016    21 H    0.891
     2   6 C    3.960 --     1 O    1.016     3 C    0.977    22 H    0.968
                            23 H    0.967
     3   6 C    3.939 --     2 C    0.977     8 C    0.970     4 O    0.959
                            24 H    0.956
     4   8 O    2.075 --     5 C    0.963     3 C    0.959
     5   6 C    3.928 --    12 O    0.988     4 O    0.963     6 C    0.949
                            25 H    0.944
     6   6 C    3.964 --    11 O    1.007     7 C    0.971    26 H    0.954
                             5 C    0.949
     7   6 C    3.962 --    10 O    0.997     6 C    0.971     8 C    0.969
                            27 H    0.956
     8   6 C    3.965 --     9 O    1.006     3 C    0.970     7 C    0.969
                            28 H    0.955
     9   8 O    1.957 --     8 C    1.006    29 H    0.879
    10   8 O    1.955 --     7 C    0.997    30 H    0.882
    11   8 O    1.945 --     6 C    1.007    31 H    0.845
    12   8 O    2.217 --    13 C    1.017     5 C    0.988
    13   6 C    3.925 --    14 C    1.396    18 C    1.342    12 O    1.017
    14   6 C    3.988 --    15 C    1.434    13 C    1.396    32 H    0.965
                            17 C    0.105
    15   6 C    3.991 --    16 C    1.445    14 C    1.434    33 H    0.970
                            18 C    0.108
    16   6 C    3.990 --    15 C    1.445    17 C    1.428    34 H    0.970
    17   6 C    3.990 --    18 C    1.437    16 C    1.428    35 H    0.968
                            14 C    0.105
    18   6 C    3.985 --    17 C    1.437    13 C    1.342    19 C    1.003
                            15 C    0.108
    19   6 C    3.953 --    18 C    1.003    20 O    0.978    37 H    0.972
                            36 H    0.962
    20   8 O    1.969 --    19 C    0.978    38 H    0.900
    21   1 H    0.908 --     1 O    0.891
    22   1 H    0.994 --     2 C    0.968
    23   1 H    0.999 --     2 C    0.967
    24   1 H    0.998 --     3 C    0.956
    25   1 H    1.000 --     5 C    0.944
    26   1 H    0.999 --     6 C    0.954
    27   1 H    0.999 --     7 C    0.956
    28   1 H    0.999 --     8 C    0.955
    29   1 H    0.897 --     9 O    0.879
    30   1 H    0.900 --    10 O    0.882
    31   1 H    0.891 --    11 O    0.845
    32   1 H    0.997 --    14 C    0.965
    33   1 H    0.997 --    15 C    0.970
    34   1 H    0.998 --    16 C    0.970
    35   1 H    0.997 --    17 C    0.968
    36   1 H    0.999 --    19 C    0.962
    37   1 H    0.999 --    19 C    0.972
    38   1 H    0.913 --    20 O    0.900
 ---------------------------------------------------------------------------

Topologies differ in total number of bonds
Writing topology from bond orders to xtbtopo.mol

molecular dipole:
                 x           y           z       tot (Debye)
 q only:       -1.059      -0.190       0.929
   full:       -1.381      -0.335       1.551       5.346
molecular quadrupole (traceless):
                xx          xy          yy          xz          yz          zz
 q only:        5.938       0.324      -3.379       1.092      -4.078      -2.559
  q+dip:        2.060      -0.646       1.609       1.235      -8.251      -3.669
   full:        2.700       0.801       0.727       2.074      -6.566      -3.427


           -------------------------------------------------
          | TOTAL ENERGY              -65.474273352726 Eh   |
          | GRADIENT NORM               0.000835670783 Eh/α |
          | HOMO-LUMO GAP               4.313759177733 eV   |
           -------------------------------------------------

------------------------------------------------------------------------
 * finished run on 2025/05/15 at 16:13:04.615     
------------------------------------------------------------------------
 total:
 * wall-time:     0 d,  0 h,  0 min,  0.046 sec
[...]
     J. Seibert, S. Spicher, S. Grimme, WIREs Comput. Mol. Sci., 2020, 11,
     e01493. DOI: 10.1002/wcms.1493
   
   for GFN2-xTB:
   * C. Bannwarth, S. Ehlert and S. Grimme., J. Chem. Theory Comput., 2019,
     15, 1652-1671. DOI: 10.1021/acs.jctc.8b01176
   for GFN1-xTB:
   * S. Grimme, C. Bannwarth, P. Shushkov, J. Chem. Theory Comput., 2017,
     13, 1989-2009. DOI: 10.1021/acs.jctc.7b00118
   for GFN0-xTB:
   * P. Pracht, E. Caldeweyher, S. Ehlert, S. Grimme, ChemRxiv, 2019, preprint.
     DOI: 10.26434/chemrxiv.8326202.v1
   for GFN-FF:
   * S. Spicher and S. Grimme, Angew. Chem. Int. Ed., 2020, 59, 15665-15673.
     DOI: 10.1002/anie.202004239
   
   for ALPB and GBSA implicit solvation:
   * S. Ehlert, M. Stahn, S. Spicher, S. Grimme, J. Chem. Theory Comput.,
     2021, 17, 4250-4261. DOI: 10.1021/acs.jctc.1c00471
   
   for ddCOSMO and CPCM-X implicit solvation:
   * M. Stahn, S. Ehlert, S. Grimme, J. Phys. Chem. A,
     2023, XX, XXXX-XXXX. DOI: 10.1021/acs.jpca.3c04382
   
   for DFT-D4:
   * E. Caldeweyher, C. Bannwarth and S. Grimme, J. Chem. Phys., 2017,
     147, 034112. DOI: 10.1063/1.4993215
   * E. Caldeweyher, S. Ehlert, A. Hansen, H. Neugebauer, S. Spicher,
     C. Bannwarth and S. Grimme, J. Chem. Phys., 2019, 150, 154122.
     DOI: 10.1063/1.5090222
   * E. Caldeweyher, J.-M. Mewes, S. Ehlert and S. Grimme, Phys. Chem. Chem. Phys.
     2020, 22, 8499-8512. DOI: 10.1039/D0CP00502A
   
   for sTDA-xTB:
   * S. Grimme and C. Bannwarth, J. Chem. Phys., 2016, 145, 054103.
     DOI: 10.1063/1.4959605
   
   in the mass-spec context:
   * V. Asgeirsson, C. Bauer and S. Grimme, Chem. Sci., 2017, 8, 4879.
     DOI: 10.1039/c7sc00601b
   * J. Koopman and S. Grimme, ACS Omega 2019, 4, 12, 15120-15133.
     DOI: 10.1021/acsomega.9b02011
   
   for metadynamics refer to:
   * S. Grimme, J. Chem. Theory Comput., 2019, 155, 2847-2862
     DOI: 10.1021/acs.jctc.9b00143
   
   for SPH calculations refer to:
   * S. Spicher and S. Grimme, J. Chem. Theory Comput., 2021, 17, 1701-1714
     DOI: 10.1021/acs.jctc.0c01306
   
   for ONIOM refer to:
   * C. Plett, A. Katbashev, S. Ehlert, S. Grimme, M. Bursch,
     Phys. Chem. Chem. Phys., 2023, 25, 17860-17868. DOI: 10.1039/D3CP02178E
   
   for DIPRO refer to:
   * J. Kohn, N. Gildemeister, S. Grimme, D. Fazzi, A. Hansen,
     J. Chem. Phys., 2023, just accepted.
   
   for PTB refer to:
   * S. Grimme, M. Mueller, A. Hansen, J. Chem. Phys., 2023, 158, 124111.
     DOI: 10.1063/5.0137838
   
   with help from (in alphabetical order)
   P. Atkinson, C. Bannwarth, F. Bohle, G. Brandenburg, E. Caldeweyher
   M. Checinski, S. Dohm, S. Ehlert, S. Ehrlich, I. Gerasimov, C. Hölzer
   A. Katbashev, J. Kohn, J. Koopman, C. Lavigne, S. Lehtola, F. März, M. Müller,
   F. Musil, H. Neugebauer, J. Pisarek, C. Plett, P. Pracht, F. Pultar,
   J. Seibert, P. Shushkov, S. Spicher, M. Stahn, M. Steiner, T. Strunk,
   J. Stückrath, T. Rose, and J. Unsleber
   
 * started run on 2025/05/15 at 16:13:05.864     
   ID    Z sym.   atoms
    1    8 O      1, 4, 9-12, 20
    2    6 C      2, 3, 5-8, 13-19
    3    1 H      21-38

           -------------------------------------------------
          |                Calculation Setup                |
           -------------------------------------------------

          program call               : xtb /rds/general/user/hgt20/home/callum/QDESCP/Salicin_rdkit_conf_1/Salicin_rdkit_conf_1.xyz --acc 1 --gfn 2 --chrg 0 --uhf 2 --etemp 300 --input /rds/general/user/hgt20/home/callum/QDESCP/Salicin_rdkit_conf_1/Salicin_rdkit_conf_1_xtb.inp -P 1
          hostname                   : login-c
          coordinate file            : /rds/general/user/hgt20/home/callum/QDESCP/Salicin_rdkit_conf_1/Salicin_rdkit_conf_1.xyz
          omp threads                :                     1


           -------------------------------------------------
          |                 G F N 2 - x T B                 |
           -------------------------------------------------

        Reference                      10.1021/acs.jctc.8b01176
      * Hamiltonian:
        H0-scaling (s, p, d)           1.850000    2.230000    2.230000
        zeta-weighting                 0.500000
      * Dispersion:
        s8                             2.700000
        a1                             0.520000
        a2                             5.000000
        s9                             5.000000
      * Repulsion:
        kExp                           1.500000    1.000000
        rExp                           1.000000
      * Coulomb:
        alpha                          2.000000
        third order                    shell-resolved
        anisotropic                    true
        a3                             3.000000
        a5                             4.000000
        cn-shift                       1.200000
        cn-exp                         4.000000
        max-rad                        5.000000


          ...................................................
          :                      SETUP                      :
          :.................................................:
          :  # basis functions                  98          :
          :  # atomic orbitals                  98          :
          :  # shells                           58          :
          :  # electrons                       112          :
          :  max. iterations                   250          :
          :  Hamiltonian                  GFN2-xTB          :
          :  restarted?                      false          :
          :  GBSA solvation                  false          :
          :  PC potential                    false          :
          :  electronic temp.          300.0000000     K    :
          :  accuracy                    1.0000000          :
          :  -> integral cutoff          0.2500000E+02      :
          :  -> integral neglect         0.1000000E-07      :
          :  -> SCF convergence          0.1000000E-05 Eh   :
          :  -> wf. convergence          0.1000000E-03 e    :
          :  Broyden damping             0.4000000          :
          :  net charge                          0          :
          :  unpaired electrons                  2          :
          ...................................................

 iter      E             dE          RMSdq      gap      omega  full diag
   1    -65.8579480 -0.658579E+02  0.447E+00    0.33       0.0  T
   2    -65.7816035  0.763445E-01  0.360E+00    0.61       1.0  T
   3    -65.8473989 -0.657954E-01  0.250E+00    0.83       1.0  T
   4    -65.9319269 -0.845280E-01  0.891E-01    0.14       1.0  T
   5    -65.9512612 -0.193343E-01  0.521E-01    0.05       1.0  T
   6    -65.9535453 -0.228410E-02  0.520E-01    0.13       1.0  T
   7    -65.9567110 -0.316575E-02  0.332E-01    0.10       1.0  T
   8    -65.9541240  0.258704E-02  0.346E-01    0.10       1.0  T
   9    -65.9571079 -0.298388E-02  0.131E-01    0.06       1.0  T
  10    -65.9573942 -0.286366E-03  0.457E-02    0.06       1.0  T
  11    -65.9573934  0.831101E-06  0.447E-02    0.06       1.0  T
  12    -65.9574218 -0.284132E-04  0.778E-03    0.07       2.1  T
  13    -65.9574226 -0.823200E-06  0.178E-03    0.07       9.1  T
  14    -65.9574227 -0.209176E-07  0.102E-03    0.07      15.9  T
  15    -65.9574227 -0.101959E-07  0.658E-04    0.07      24.6  T
  16    -65.9574227 -0.623932E-08  0.117E-04    0.07     139.2  T

   *** convergence criteria satisfied after 16 iterations ***

         #    Occupation            Energy/Eh            Energy/eV
      -------------------------------------------------------------
         1        2.0000           -0.7494670             -20.3940
       ...           ...                  ...                  ...
        51        2.0000           -0.4273125             -11.6278
        52        2.0000           -0.4249930             -11.5646
        53        2.0000           -0.4230057             -11.5106
        54        2.0000           -0.4166000             -11.3363
        55        1.9860           -0.4044568             -11.0058
        56        1.0140           -0.3963705             -10.7858
        57        0.7912           -0.2277824              -6.1983 (HOMO)
        58        0.2088           -0.2252509              -6.1294 (LUMO)
        59                         -0.1007858              -2.7425
        60                         -0.0379476              -1.0326
        61                         -0.0116468              -0.3169
        62                          0.0067758               0.1844
       ...                                ...                  ...
        98                          0.6600997              17.9622
      -------------------------------------------------------------
                  HL-Gap            0.0025315 Eh            0.0689 eV
             Fermi-level           -0.3134652 Eh           -8.5298 eV

 transition dipole moment (au) for excitation:          56          57
     X       Y       Z   
  -1.1428  -0.0187   0.7500  total (au/Debye):    1.367   3.475
 dE (eV)             :    4.588
 oscillator strength :  0.29704E+00

 SCC (total)                   0 d,  0 h,  0 min,  0.061 sec
 SCC setup                      ...        0 min,  0.000 sec (  0.490%)
 Dispersion                     ...        0 min,  0.000 sec (  0.629%)
 classical contributions        ...        0 min,  0.000 sec (  0.197%)
 integral evaluation            ...        0 min,  0.006 sec ( 10.637%)
 iterations                     ...        0 min,  0.028 sec ( 45.618%)
 molecular gradient             ...        0 min,  0.020 sec ( 32.835%)
 printout                       ...        0 min,  0.006 sec (  9.583%)

         :::::::::::::::::::::::::::::::::::::::::::::::::::::
         ::                     SUMMARY                     ::
         :::::::::::::::::::::::::::::::::::::::::::::::::::::
         :: total energy             -65.309168038076 Eh    ::
         :: gradient norm              0.136844295578 Eh/a0 ::
         :: HOMO-LUMO gap              0.068886639142 eV    ::
         ::.................................................::
         :: SCC energy               -65.957167791449 Eh    ::
         :: -> isotropic ES            0.147877265343 Eh    ::
         :: -> anisotropic ES         -0.004723969840 Eh    ::
         :: -> anisotropic XC         -0.003388879205 Eh    ::
         :: -> dispersion             -0.036961468702 Eh    ::
         :: repulsion energy           0.647999753373 Eh    ::
         :: add. restraining           0.000000000000 Eh    ::
         :: total charge               0.000000000000 e     ::
         :::::::::::::::::::::::::::::::::::::::::::::::::::::

           -------------------------------------------------
          |                Property Printout                |
           -------------------------------------------------

    * Orbital Energies and Occupations

         #    Occupation            Energy/Eh            Energy/eV
      -------------------------------------------------------------
         1        2.0000           -0.7494670             -20.3940
       ...           ...                  ...                  ...
        45        2.0000           -0.4652837             -12.6610
        46        2.0000           -0.4559715             -12.4076
        47        2.0000           -0.4494749             -12.2308
        48        2.0000           -0.4423107             -12.0359
        49        2.0000           -0.4312022             -11.7336
        50        2.0000           -0.4289290             -11.6718
        51        2.0000           -0.4273125             -11.6278
        52        2.0000           -0.4249930             -11.5646
        53        2.0000           -0.4230057             -11.5106
        54        2.0000           -0.4166000             -11.3363
        55        1.9860           -0.4044568             -11.0058
        56        1.0140           -0.3963705             -10.7858
        57        0.7912           -0.2277824              -6.1983 (HOMO)
        58        0.2088           -0.2252509              -6.1294 (LUMO)
        59                         -0.1007858              -2.7425
        60                         -0.0379476              -1.0326
        61                         -0.0116468              -0.3169
        62                          0.0067758               0.1844
        63                          0.0234490               0.6381
        64                          0.0345947               0.9414
        65                          0.0457611               1.2452
        66                          0.0582629               1.5854
        67                          0.0742575               2.0206
        68                          0.0774096               2.1064
       ...                                ...                  ...
        98                          0.6600997              17.9622
      -------------------------------------------------------------
                  HL-Gap            0.0025315 Eh            0.0689 eV
             Fermi-level           -0.3134652 Eh           -8.5298 eV

     #   Z          covCN         q      C6AA      α(0)
     1   8 O        1.656    -0.425    21.343     6.237
     2   6 C        3.677     0.073    19.569     6.338
     3   6 C        3.754     0.095    19.065     6.226
     4   8 O        1.701    -0.332    19.557     5.971
     5   6 C        3.655     0.242    17.111     5.939
     6   6 C        3.729     0.091    19.168     6.250
     7   6 C        3.731     0.098    19.055     6.231
     8   6 C        3.729     0.094    19.113     6.241
     9   8 O        1.657    -0.438    21.604     6.275
    10   8 O        1.656    -0.442    21.689     6.287
    11   8 O        1.655    -0.457    21.995     6.331
    12   8 O        1.708    -0.234    17.874     5.708
    13   6 C        2.875     0.142    24.906     8.181
    14   6 C        2.916    -0.067    29.676     8.933
    15   6 C        2.921    -0.055    29.368     8.887
    16   6 C        2.918    -0.019    28.474     8.750
    17   6 C        2.924    -0.052    29.299     8.877
    18   6 C        2.967    -0.023    28.573     8.768
    19   6 C        3.678     0.084    19.385     6.307
    20   8 O        1.654    -0.449    21.822     6.306
    21   1 H        0.805     0.305     0.706     1.320
    22   1 H        0.925     0.078     1.996     2.209
    23   1 H        0.923     0.039     2.469     2.457
    24   1 H        0.923     0.043     2.415     2.431
    25   1 H        0.922     0.017     2.787     2.611
    26   1 H        0.923     0.041     2.440     2.443
    27   1 H        0.923     0.034     2.533     2.489
    28   1 H        0.923     0.036     2.502     2.474
    29   1 H        0.805     0.323     0.657     1.273
    30   1 H        0.805     0.318     0.670     1.286
    31   1 H        0.804     0.331     0.635     1.252
    32   1 H        0.926     0.039     2.457     2.451
    33   1 H        0.926     0.034     2.524     2.484
    34   1 H        0.926     0.041     2.429     2.437
    35   1 H        0.926     0.036     2.506     2.476
    36   1 H        0.923     0.038     2.474     2.460
    37   1 H        0.924     0.030     2.592     2.518
    38   1 H        0.805     0.292     0.745     1.356

 Mol. C6AA /au·bohr⁶  :      14048.506217
 Mol. C8AA /au·bohr⁸  :     316736.568975
 Mol. α(0) /au        :        177.467119


Wiberg/Mayer (AO) data.
largest (>0.10) Wiberg bond orders for each atom

 ---------------------------------------------------------------------------
     #   Z sym  total        # sym  WBO       # sym  WBO       # sym  WBO
 ---------------------------------------------------------------------------
     1   8 O    1.969 --     2 C    1.017    21 H    0.890
     2   6 C    3.957 --     1 O    1.017     3 C    0.974    22 H    0.967
                            23 H    0.966
     3   6 C    3.934 --     2 C    0.974     8 C    0.968     4 O    0.957
                            24 H    0.956
     4   8 O    2.079 --     5 C    0.965     3 C    0.957
     5   6 C    3.923 --    12 O    0.985     4 O    0.965    25 H    0.943
                             6 C    0.939
     6   6 C    3.958 --    11 O    1.010     7 C    0.969    26 H    0.953
                             5 C    0.939
     7   6 C    3.961 --    10 O    0.998     6 C    0.969     8 C    0.969
                            27 H    0.955
     8   6 C    3.964 --     9 O    1.007     7 C    0.969     3 C    0.968
                            28 H    0.955
     9   8 O    1.958 --     8 C    1.007    29 H    0.878
    10   8 O    1.955 --     7 C    0.998    30 H    0.881
    11   8 O    1.949 --     6 C    1.010    31 H    0.842
    12   8 O    2.300 --    13 C    1.097     5 C    0.985
    13   6 C    3.639 --    14 C    1.291    12 O    1.097    18 C    1.034
                            15 C    0.113
    14   6 C    3.863 --    15 C    1.444    13 C    1.291    32 H    0.966
    15   6 C    3.736 --    14 C    1.444    16 C    1.114    33 H    0.970
                            13 C    0.113
    16   6 C    3.701 --    17 C    1.378    15 C    1.114    34 H    0.970
                            18 C    0.136
    17   6 C    3.857 --    18 C    1.384    16 C    1.378    35 H    0.967
    18   6 C    3.699 --    17 C    1.384    13 C    1.034    19 C    1.020
                            16 C    0.136
    19   6 C    3.951 --    18 C    1.020    37 H    0.972    20 O    0.966
                            36 H    0.945
    20   8 O    1.966 --    19 C    0.966    38 H    0.900
    21   1 H    0.907 --     1 O    0.890
    22   1 H    0.993 --     2 C    0.967
    23   1 H    0.998 --     2 C    0.966
    24   1 H    0.998 --     3 C    0.956
    25   1 H    0.999 --     5 C    0.943
    26   1 H    0.998 --     6 C    0.953
    27   1 H    0.999 --     7 C    0.955
    28   1 H    0.999 --     8 C    0.955
    29   1 H    0.896 --     9 O    0.878
    30   1 H    0.899 --    10 O    0.881
    31   1 H    0.890 --    11 O    0.842
    32   1 H    0.998 --    14 C    0.966
    33   1 H    0.998 --    15 C    0.970
    34   1 H    0.998 --    16 C    0.970
    35   1 H    0.998 --    17 C    0.967
    36   1 H    0.994 --    19 C    0.945
    37   1 H    0.999 --    19 C    0.972
    38   1 H    0.913 --    20 O    0.900
 ---------------------------------------------------------------------------

Topologies differ in total number of bonds
Writing topology from bond orders to xtbtopo.mol

molecular dipole:
                 x           y           z       tot (Debye)
 q only:       -0.453      -0.326       1.020
   full:       -0.766      -0.495       1.680       4.858
molecular quadrupole (traceless):
                xx          xy          yy          xz          yz          zz
 q only:        3.783       1.281      -2.051       0.651      -3.564      -1.732
  q+dip:       -0.562       0.144       3.514       1.430      -7.660      -2.952
   full:        0.204       1.645       2.338       1.893      -6.014      -2.542


           -------------------------------------------------
          | TOTAL ENERGY              -65.309168038076 Eh   |
          | GRADIENT NORM               0.136844295578 Eh/α |
          | HOMO-LUMO GAP               0.068886639142 eV   |
           -------------------------------------------------

------------------------------------------------------------------------
 * finished run on 2025/05/15 at 16:13:05.937     
------------------------------------------------------------------------
 total:
 * wall-time:     0 d,  0 h,  0 min,  0.073 sec
 *  cpu-time:     0 d,  0 h,  0 min,  0.071 sec
 * ratio c/w:     0.966 speedup
 SCF:
 * wall-time:     0 d,  0 h,  0 min,  0.061 sec
 *  cpu-time:     0 d,  0 h,  0 min,  0.060 sec
 * ratio c/w:     0.994 speedup


