38
 energy: -65.474273352709 gnorm: 0.000835578540 xtb: 6.7.1 (edcfbbe)
O            1.39262088874725       -0.62711188978432       -3.71181162635660
C            2.39939966930853       -0.81012464956031       -2.75665455525334
C            2.08026836874900       -0.07325009851364       -1.45145636341539
O            0.83877518237296       -0.58212616900368       -0.99232086887470
C            0.39756057876578        0.02435373936179        0.19488551927068
C            1.39661381120449       -0.19255986722360        1.34133049821935
C            2.75929579450949        0.35972249931513        0.92372013936299
C            3.18472123861299       -0.27308430396745       -0.40683117397973
O            4.36507016637932        0.30882076558214       -0.88726211863165
O            3.75185601713810        0.07969288153740        1.88067977874207
O            0.97628930692071        0.46478708718887        2.50660656215432
O           -0.78999631931024       -0.55914637535628        0.60827953939628
C           -1.97661596688845       -0.02299258612054        0.17229451177568
C           -2.14070797136728        0.57082327276896       -1.06924331710932
C           -3.37996684201963        1.07124726408095       -1.43178427668153
C           -4.45089971653809        0.97941741331468       -0.56192244051952
C           -4.28201905422712        0.39165810510930        0.68131685710500
C           -3.05067762273876       -0.11143746265448        1.06439305831642
C           -2.82585756625817       -0.73154150245970        2.41782584422302
O           -1.84361434786316        0.01770899888123        3.12310161125089
H            0.56040264342302       -0.89437063797364       -3.30225372531684
H            3.32267195213240       -0.40865808397411       -3.17484163852594
H            2.53376791859184       -1.87673381401788       -2.53065438316779
H            1.98334120696035        1.00493886558122       -1.65556399965788
H            0.26718525235292        1.11433900245986        0.03428722767009
H            1.47878573658704       -1.27817574670801        1.51421579365717
H            2.66672404146558        1.45101113314791        0.79204284282076
H            3.32907426785513       -1.35296379362368       -0.23857074995091
H            4.98543313292878        0.33811163174186       -0.14716920249077
H            3.38535734750700        0.31025862631261        2.74302468527829
H            0.01922116745492        0.31241688221442        2.62197215558061
H           -1.30669577248718        0.62814764139783       -1.75126393368070
H           -3.50419100734192        1.53136768785143       -2.40033507421752
H           -5.41576940921999        1.36990489357514       -0.84616914671280
H           -5.11469282040746        0.33106398224109        1.36611072923336
H           -2.47895162153951       -1.76655381646101        2.28703219699782
H           -3.76827861424183       -0.73939168249142        2.97955891344878
H           -1.74550103751934       -0.35936989377043        4.00423013003778
