31
 energy: -58.964737601217 gnorm: 0.000905207655 xtb: 6.7.1 (edcfbbe)
N            4.32586262379349        1.59994548985745       -1.39630444944396
C            3.51176167816001        0.85186506218530       -0.64238019451054
N            3.89157078438156        0.54982286107662        0.60298586476951
C            3.09115487306936       -0.18073094165707        1.35295745472657
Cl           3.65937637764035       -0.49904481433564        2.92987379189095
N            1.91621363340230       -0.69684840007273        1.06126096697260
C            1.52624028277360       -0.40794072298041       -0.18522695914576
C            2.26926809001356        0.36822424303428       -1.09244784739324
N            1.58243463006229        0.47717767837957       -2.27354573779939
C            0.49293000482841       -0.19954485298426       -2.08940844175712
N            0.38575433574192       -0.76143485714697       -0.84292431975176
C           -0.71247591704983       -1.61041308414471       -0.39275431613525
C           -0.96180369718906       -1.43805112278565        1.10182447267854
C           -1.81720227570719       -0.16585871977722        1.09288175882235
C           -2.64072505674460       -0.34456775840755       -0.19749182104078
O           -1.89311062032806       -1.22374566483515       -1.03533673400063
C           -2.94776753336576        0.98281999188974       -0.89417322642185
O           -3.89374853231046        1.72552921244767       -0.17587674654447
O           -2.68268788138726       -0.00333349624181        2.18394739756610
H            5.20835012372893        1.89558642434443       -1.01785295771038
H            4.05990005290968        1.81797535510763       -2.33909999373210
H           -0.28182247307423       -0.32101780891578       -2.81966636491937
H           -0.48878612915079       -2.64490087397664       -0.68664631425337
H           -0.03589709052685       -1.34775664897767        1.66470685818418
H           -1.55478597786713       -2.27459257786913        1.47275045046271
H           -1.15822501073714        0.71421652042887        0.99624145918692
H           -3.59194449092002       -0.83256645932507        0.05599766582795
H           -3.37703132832145        0.78821944945285       -1.87954815648861
H           -2.01468734263539        1.55381402359179       -1.02726520396867
H           -3.69939595807998        1.64956491084409        0.76697789006993
H           -2.16882017511183       -0.02221241819502        2.99924375386535
