----- Optimization -----
      -----------------------------------------------------------      
     |                   =====================                   |     
     |                           x T B                           |     
     |                   =====================                   |     
     |                         S. Grimme                         |     
     |          Mulliken Center for Theoretical Chemistry        |     
     |                    University of Bonn                     |     
      -----------------------------------------------------------      

   * xtb version 6.7.1 (edcfbbe) compiled by 'conda@3ef47c1a292c' on 2024-11-25

   xtb is free software: you can redistribute it and/or modify it under
   the terms of the GNU Lesser General Public License as published by
   the Free Software Foundation, either version 3 of the License, or
   (at your option) any later version.
   
   xtb is distributed in the hope that it will be useful,
   but WITHOUT ANY WARRANTY; without even the implied warranty of
   MERCHANTABILITY or FITNESS FOR A PARTICULAR PURPOSE.  See the
   GNU Lesser General Public License for more details.
   
   Cite this work as:
   * C. Bannwarth, E. Caldeweyher, S. Ehlert, A. Hansen, P. Pracht,
     J. Seibert, S. Spicher, S. Grimme, WIREs Comput. Mol. Sci., 2020, 11,
     e01493. DOI: 10.1002/wcms.1493
   
   for GFN2-xTB:
   * C. Bannwarth, S. Ehlert and S. Grimme., J. Chem. Theory Comput., 2019,
     15, 1652-1671. DOI: 10.1021/acs.jctc.8b01176
   for GFN1-xTB:
   * S. Grimme, C. Bannwarth, P. Shushkov, J. Chem. Theory Comput., 2017,
     13, 1989-2009. DOI: 10.1021/acs.jctc.7b00118
   for GFN0-xTB:
   * P. Pracht, E. Caldeweyher, S. Ehlert, S. Grimme, ChemRxiv, 2019, preprint.
     DOI: 10.26434/chemrxiv.8326202.v1
   for GFN-FF:
   * S. Spicher and S. Grimme, Angew. Chem. Int. Ed., 2020, 59, 15665-15673.
     DOI: 10.1002/anie.202004239
   
   for ALPB and GBSA implicit solvation:
   * S. Ehlert, M. Stahn, S. Spicher, S. Grimme, J. Chem. Theory Comput.,
     2021, 17, 4250-4261. DOI: 10.1021/acs.jctc.1c00471
   
   for ddCOSMO and CPCM-X implicit solvation:
   * M. Stahn, S. Ehlert, S. Grimme, J. Phys. Chem. A,
     2023, XX, XXXX-XXXX. DOI: 10.1021/acs.jpca.3c04382
   
   for DFT-D4:
   * E. Caldeweyher, C. Bannwarth and S. Grimme, J. Chem. Phys., 2017,
     147, 034112. DOI: 10.1063/1.4993215
   * E. Caldeweyher, S. Ehlert, A. Hansen, H. Neugebauer, S. Spicher,
     C. Bannwarth and S. Grimme, J. Chem. Phys., 2019, 150, 154122.
     DOI: 10.1063/1.5090222
   * E. Caldeweyher, J.-M. Mewes, S. Ehlert and S. Grimme, Phys. Chem. Chem. Phys.
     2020, 22, 8499-8512. DOI: 10.1039/D0CP00502A
   
   for sTDA-xTB:
   * S. Grimme and C. Bannwarth, J. Chem. Phys., 2016, 145, 054103.
     DOI: 10.1063/1.4959605
   
   in the mass-spec context:
   * V. Asgeirsson, C. Bauer and S. Grimme, Chem. Sci., 2017, 8, 4879.
     DOI: 10.1039/c7sc00601b
   * J. Koopman and S. Grimme, ACS Omega 2019, 4, 12, 15120-15133.
     DOI: 10.1021/acsomega.9b02011
   
   for metadynamics refer to:
   * S. Grimme, J. Chem. Theory Comput., 2019, 155, 2847-2862
     DOI: 10.1021/acs.jctc.9b00143
   
   for SPH calculations refer to:
   * S. Spicher and S. Grimme, J. Chem. Theory Comput., 2021, 17, 1701-1714
     DOI: 10.1021/acs.jctc.0c01306
   
   for ONIOM refer to:
   * C. Plett, A. Katbashev, S. Ehlert, S. Grimme, M. Bursch,
     Phys. Chem. Chem. Phys., 2023, 25, 17860-17868. DOI: 10.1039/D3CP02178E
   
   for DIPRO refer to:
   * J. Kohn, N. Gildemeister, S. Grimme, D. Fazzi, A. Hansen,
     J. Chem. Phys., 2023, just accepted.
   
   for PTB refer to:
   * S. Grimme, M. Mueller, A. Hansen, J. Chem. Phys., 2023, 158, 124111.
     DOI: 10.1063/5.0137838
   
   with help from (in alphabetical order)
   P. Atkinson, C. Bannwarth, F. Bohle, G. Brandenburg, E. Caldeweyher
   M. Checinski, S. Dohm, S. Ehlert, S. Ehrlich, I. Gerasimov, C. Hölzer
   A. Katbashev, J. Kohn, J. Koopman, C. Lavigne, S. Lehtola, F. März, M. Müller,
   F. Musil, H. Neugebauer, J. Pisarek, C. Plett, P. Pracht, F. Pultar,
   J. Seibert, P. Shushkov, S. Spicher, M. Stahn, M. Steiner, T. Strunk,
   J. Stückrath, T. Rose, and J. Unsleber
   
 * started run on 2025/05/15 at 16:26:57.929     
   ID    Z sym.   atoms
    1    7 N      1, 3, 6, 9, 11
    2    6 C      2, 4, 7, 8, 10, 12-15, 17
    3   17 Cl     5
    4    8 O      16, 18, 19
    5    1 H      20-31

           -------------------------------------------------
          |                Calculation Setup                |
           -------------------------------------------------

          program call               : xtb /rds/general/user/hgt20/home/callum/QDESCP/Cladribine_rdkit_conf_19/Cladribine_rdkit_conf_19.xyz --opt normal --acc 1 --gfn 2 --chrg 0 --uhf 0 -P 1
          hostname                   : login-c
          coordinate file            : /rds/general/user/hgt20/home/callum/QDESCP/Cladribine_rdkit_conf_19/Cladribine_rdkit_conf_19.xyz
          omp threads                :                     1


           -------------------------------------------------
          |                 G F N 2 - x T B                 |
           -------------------------------------------------

        Reference                      10.1021/acs.jctc.8b01176
      * Hamiltonian:
        H0-scaling (s, p, d)           1.850000    2.230000    2.230000
        zeta-weighting                 0.500000
      * Dispersion:
        s8                             2.700000
        a1                             0.520000
        a2                             5.000000
        s9                             5.000000
      * Repulsion:
        kExp                           1.500000    1.000000
        rExp                           1.000000
      * Coulomb:
        alpha                          2.000000
        third order                    shell-resolved
        anisotropic                    true
        a3                             3.000000
        a5                             4.000000
        cn-shift                       1.200000
        cn-exp                         4.000000
        max-rad                        5.000000


          ...................................................
          :                      SETUP                      :
          :.................................................:
          :  # basis functions                  94          :
          :  # atomic orbitals                  93          :
          :  # shells                           51          :
          :  # electrons                       102          :
          :  max. iterations                   250          :
          :  Hamiltonian                  GFN2-xTB          :
          :  restarted?                      false          :
          :  GBSA solvation                  false          :
          :  PC potential                    false          :
          :  electronic temp.          300.0000000     K    :
          :  accuracy                    1.0000000          :
          :  -> integral cutoff          0.2500000E+02      :
          :  -> integral neglect         0.1000000E-07      :
          :  -> SCF convergence          0.1000000E-05 Eh   :
          :  -> wf. convergence          0.1000000E-03 e    :
          :  Broyden damping             0.4000000          :
          :  net charge                          0          :
          :  unpaired electrons                  0          :
          ...................................................

 iter      E             dE          RMSdq      gap      omega  full diag
   1    -59.3784328 -0.593784E+02  0.430E+00    2.95       0.0  T
   2    -59.4971220 -0.118689E+00  0.261E+00    3.30       1.0  T
   3    -59.5097594 -0.126374E-01  0.127E+00    3.16       1.0  T
   4    -59.5146053 -0.484591E-02  0.259E-01    3.08       1.0  T
   5    -59.5157835 -0.117828E-02  0.106E-01    3.06       1.0  T
   6    -59.5158891 -0.105538E-03  0.549E-02    3.05       1.0  T
   7    -59.5159169 -0.278633E-04  0.320E-02    3.06       1.0  T
   8    -59.5159235 -0.660212E-05  0.172E-02    3.06       1.0  T
   9    -59.5159258 -0.223947E-05  0.136E-02    3.06       1.3  T
  10    -59.5159278 -0.199559E-05  0.888E-03    3.06       2.0  T
  11    -59.5159289 -0.114484E-05  0.410E-03    3.06       4.4  T
  12    -59.5159292 -0.240932E-06  0.189E-03    3.06       9.5  T
  13    -59.5159292 -0.324754E-07  0.536E-04    3.06      33.5  T
  14    -59.5159292 -0.255086E-08  0.204E-04    3.06      88.0  T

   *** convergence criteria satisfied after 14 iterations ***

         #    Occupation            Energy/Eh            Energy/eV
      -------------------------------------------------------------
         1        2.0000           -1.0594970             -28.8304
       ...           ...                  ...                  ...
        45        2.0000           -0.4358068             -11.8589
        46        2.0000           -0.4293030             -11.6819
        47        2.0000           -0.4267255             -11.6118
        48        2.0000           -0.4198175             -11.4238
        49        2.0000           -0.4120212             -11.2117
        50        2.0000           -0.4011598             -10.9161
        51        2.0000           -0.3905916             -10.6285 (HOMO)
        52                         -0.2782859              -7.5725 (LUMO)
        53                         -0.2518910              -6.8543
        54                         -0.2192744              -5.9668
        55                         -0.1462760              -3.9804
        56                         -0.1259624              -3.4276
       ...                                ...                  ...
        93                          0.6164797              16.7753
      -------------------------------------------------------------
                  HL-Gap            0.1123057 Eh            3.0560 eV
             Fermi-level           -0.3344387 Eh           -9.1005 eV

 SCC (total)                   0 d,  0 h,  0 min,  0.085 sec
 SCC setup                      ...        0 min,  0.000 sec (  0.314%)
 Dispersion                     ...        0 min,  0.000 sec (  0.309%)
 classical contributions        ...        0 min,  0.000 sec (  0.100%)
 integral evaluation            ...        0 min,  0.047 sec ( 55.049%)
 iterations                     ...        0 min,  0.022 sec ( 25.395%)
 molecular gradient             ...        0 min,  0.016 sec ( 18.675%)
 printout                       ...        0 min,  0.000 sec (  0.151%)

         :::::::::::::::::::::::::::::::::::::::::::::::::::::
         ::                     SUMMARY                     ::
         :::::::::::::::::::::::::::::::::::::::::::::::::::::
         :: total energy             -58.951350897567 Eh    ::
         :: gradient norm              0.088365155342 Eh/a0 ::
         :: HOMO-LUMO gap              3.055994181452 eV    ::
         ::.................................................::
         :: SCC energy               -59.515817690727 Eh    ::
         :: -> isotropic ES            0.112388717598 Eh    ::
         :: -> anisotropic ES          0.000267969180 Eh    ::
         :: -> anisotropic XC          0.020060871322 Eh    ::
         :: -> dispersion             -0.033142737109 Eh    ::
         :: repulsion energy           0.564466793161 Eh    ::
         :: add. restraining           0.000000000000 Eh    ::
         :: total charge               0.000000000000 e     ::
         :::::::::::::::::::::::::::::::::::::::::::::::::::::

      ----------------------------------------------------------- 
     |                   =====================                   |
     |                        A N C O P T                        |
     |                   =====================                   |
     |               Approximate Normal Coordinate               |
     |                Rational Function Optimizer                |
      ----------------------------------------------------------- 
      ----------------------------------------------------------- 
     |                   =====================                   |
     |                        A N C O P T                        |
     |                   =====================                   |
     |               Approximate Normal Coordinate               |
     |                Rational Function Optimizer                |
      ----------------------------------------------------------- 

          ...................................................
          :                      SETUP                      :
          :.................................................:
          :   optimization level            normal          :
          :   max. optcycles                   200          :
          :   ANC micro-cycles                  20          :
          :   degrees of freedom                87          :
          :.................................................:
          :   RF solver                   davidson          :
          :   write xtbopt.log                true          :
          :   linear?                        false          :
          :   energy convergence         0.5000000E-05 Eh   :
          :   grad. convergence          0.1000000E-02 Eh/α :
          :   maxmium RF displ.          1.0000000          :
          :   Hlow (freq-cutoff)         0.1000000E-01      :
          :   Hmax (freq-cutoff)         5.0000000          :
          :   S6 in model hess.         20.0000000          :
          ...................................................

generating ANC from exact Hessian ...
Using Lindh-Hessian (1995)
 Shifting diagonal of input Hessian by    9.1862899640308606E-003
 Lowest  eigenvalues of input Hessian
    0.000000    0.000000    0.000000    0.000000    0.000000    0.000000
    0.010000    0.010396    0.010509    0.013398    0.014372    0.015690
    0.018179    0.018928    0.021965    0.023460    0.025813    0.030161
 Highest eigenvalues
    1.785287    1.924679    2.063517    2.088530    2.171366    2.291830


........................................................................
.............................. CYCLE    1 ..............................
........................................................................

 iter      E             dE          RMSdq      gap      omega  full diag
   1    -59.5159292 -0.595159E+02  0.859E-05    3.06       0.0  T
   2    -59.5159292 -0.395417E-10  0.642E-05    3.06     279.8  T
   3    -59.5159292 -0.149427E-10  0.488E-05    3.06     368.0  T
     SCC iter.                  ...        0 min,  0.005 sec
     gradient                   ...        0 min,  0.016 sec
 * total energy  :   -58.9513509 Eh     change       -0.2725145E-09 Eh
   gradient norm :     0.0883654 Eh/α   predicted     0.0000000E+00 (-100.00%)
   displ. norm   :     0.2425369 α      lambda       -0.1129303E-01
   maximum displ.:     0.0760932 α      in ANC's #17, #37, #14, ...

........................................................................
.............................. CYCLE    2 ..............................
........................................................................

 iter      E             dE          RMSdq      gap      omega  full diag
   1    -59.5452755 -0.595453E+02  0.213E-01    3.17       0.0  T
   2    -59.5454321 -0.156582E-03  0.128E-01    3.13       1.0  T
   3    -59.5454485 -0.163727E-04  0.719E-02    3.15       1.0  T
   4    -59.5454971 -0.486423E-04  0.180E-02    3.14       1.0  T
   5    -59.5455023 -0.517768E-05  0.110E-02    3.14       1.6  T
   6    -59.5455030 -0.711464E-06  0.833E-03    3.14       2.2  T
   7    -59.5455037 -0.710286E-06  0.578E-03    3.14       3.1  T
   8    -59.5455042 -0.495558E-06  0.258E-03    3.14       7.0  T
   9    -59.5455043 -0.806806E-07  0.125E-03    3.14      14.4  T
  10    -59.5455043 -0.218926E-07  0.447E-04    3.14      40.2  T
  11    -59.5455043 -0.204535E-08  0.206E-04    3.14      87.2  T
     SCC iter.                  ...        0 min,  0.016 sec
     gradient                   ...        0 min,  0.065 sec
 * total energy  :   -58.9590817 Eh     change       -0.7730771E-02 Eh
   gradient norm :     0.0399860 Eh/α   predicted    -0.5979659E-02 ( -22.65%)
   displ. norm   :     0.1991458 α      lambda       -0.3551864E-02
   maximum displ.:     0.0590386 α      in ANC's #14, #6, #7, ...

........................................................................
.............................. CYCLE    3 ..............................
........................................................................

 iter      E             dE          RMSdq      gap      omega  full diag
   1    -59.5608942 -0.595609E+02  0.143E-01    3.22       0.0  T
   2    -59.5610180 -0.123816E-03  0.857E-02    3.19       1.0  T
   3    -59.5610458 -0.277360E-04  0.483E-02    3.20       1.0  T
   4    -59.5610590 -0.132472E-04  0.139E-02    3.20       1.3  T
   5    -59.5610625 -0.344724E-05  0.722E-03    3.20       2.5  T
   6    -59.5610628 -0.302183E-06  0.528E-03    3.20       3.4  T
   7    -59.5610630 -0.249968E-06  0.390E-03    3.20       4.6  T
   8    -59.5610632 -0.212803E-06  0.196E-03    3.20       9.2  T
   9    -59.5610633 -0.488215E-07  0.955E-04    3.20      18.8  T
  10    -59.5610633 -0.140805E-07  0.350E-04    3.20      51.3  T
     SCC iter.                  ...        0 min,  0.014 sec
     gradient                   ...        0 min,  0.015 sec
 * total energy  :   -58.9610969 Eh     change       -0.2015267E-02 Eh
   gradient norm :     0.0119069 Eh/α   predicted    -0.1847034E-02 (  -8.35%)
   displ. norm   :     0.1229242 α      lambda       -0.5096519E-03
   maximum displ.:     0.0533185 α      in ANC's #6, #14, #7, ...

........................................................................
.............................. CYCLE    4 ..............................
........................................................................

 iter      E             dE          RMSdq      gap      omega  full diag
   1    -59.5608280 -0.595608E+02  0.529E-02    3.21       0.0  T
   2    -59.5608382 -0.101548E-04  0.307E-02    3.20       1.0  T
   3    -59.5608376  0.546290E-06  0.158E-02    3.21       1.1  T
   4    -59.5608406 -0.292711E-05  0.389E-03    3.21       4.6  T
   5    -59.5608409 -0.323334E-06  0.179E-03    3.21      10.0  T
   6    -59.5608409 -0.234743E-07  0.834E-04    3.21      21.5  T
   7    -59.5608409 -0.573176E-08  0.487E-04    3.21      36.9  T
     SCC iter.                  ...        0 min,  0.010 sec
     gradient                   ...        0 min,  0.016 sec
 * total energy  :   -58.9614898 Eh     change       -0.3928724E-03 Eh
   gradient norm :     0.0095472 Eh/α   predicted    -0.2586899E-03 ( -34.15%)
   displ. norm   :     0.2128760 α      lambda       -0.5643177E-03
   maximum displ.:     0.0983052 α      in ANC's #6, #3, #1, ...

........................................................................
.............................. CYCLE    5 ..............................
........................................................................

 iter      E             dE          RMSdq      gap      omega  full diag
   1    -59.5591850 -0.595592E+02  0.768E-02    3.22       0.0  T
   2    -59.5591991 -0.140792E-04  0.452E-02    3.21       1.0  T
   3    -59.5591953  0.378492E-05  0.208E-02    3.22       1.0  T
   4    -59.5592027 -0.745415E-05  0.506E-03    3.21       3.5  T
   5    -59.5592032 -0.430907E-06  0.255E-03    3.21       7.1  T
   6    -59.5592032 -0.480885E-07  0.115E-03    3.21      15.6  T
   7    -59.5592032 -0.113253E-07  0.712E-04    3.21      25.2  T
   8    -59.5592032 -0.367455E-08  0.469E-04    3.21      38.3  T
     SCC iter.                  ...        0 min,  0.012 sec
     gradient                   ...        0 min,  0.067 sec
 * total energy  :   -58.9618574 Eh     change       -0.3675458E-03 Eh
   gradient norm :     0.0080441 Eh/α   predicted    -0.2949517E-03 ( -19.75%)
   displ. norm   :     0.1627750 α      lambda       -0.2234608E-03
   maximum displ.:     0.0803705 α      in ANC's #3, #1, #6, ...

........................................................................
.............................. CYCLE    6 ..............................
........................................................................

 iter      E             dE          RMSdq      gap      omega  full diag
   1    -59.5593315 -0.595593E+02  0.495E-02    3.23       0.0  T
   2    -59.5593350 -0.353371E-05  0.295E-02    3.22       1.0  T
   3    -59.5593330  0.202963E-05  0.118E-02    3.22       1.5  T
   4    -59.5593361 -0.309348E-05  0.293E-03    3.22       6.1  T
   5    -59.5593362 -0.114924E-06  0.157E-03    3.22      11.5  T
   6    -59.5593362 -0.130472E-07  0.694E-04    3.22      25.9  T
   7    -59.5593362 -0.433514E-08  0.439E-04    3.22      40.9  T
     SCC iter.                  ...        0 min,  0.010 sec
     gradient                   ...        0 min,  0.016 sec
 * total energy  :   -58.9620301 Eh     change       -0.1727752E-03 Eh
   gradient norm :     0.0070679 Eh/α   predicted    -0.1147351E-03 ( -33.59%)
   displ. norm   :     0.2417505 α      lambda       -0.2644375E-03
   maximum displ.:     0.1315915 α      in ANC's #3, #1, #6, ...

........................................................................
.............................. CYCLE    7 ..............................
........................................................................

 iter      E             dE          RMSdq      gap      omega  full diag
   1    -59.5605049 -0.595605E+02  0.694E-02    3.24       0.0  T
   2    -59.5605098 -0.489186E-05  0.415E-02    3.23       1.0  T
   3    -59.5605060  0.375009E-05  0.146E-02    3.24       1.2  T
   4    -59.5605114 -0.535758E-05  0.371E-03    3.23       4.8  T
   5    -59.5605115 -0.149115E-06  0.200E-03    3.23       9.0  T
   6    -59.5605116 -0.179678E-07  0.810E-04    3.23      22.2  T
   7    -59.5605116 -0.577824E-08  0.522E-04    3.23      34.4  T
     SCC iter.                  ...        0 min,  0.055 sec
     gradient                   ...        0 min,  0.016 sec
 * total energy  :   -58.9622244 Eh     change       -0.1942567E-03 Eh
   gradient norm :     0.0050624 Eh/α   predicted    -0.1399723E-03 ( -27.94%)
   displ. norm   :     0.2336214 α      lambda       -0.1742806E-03
   maximum displ.:     0.1372119 α      in ANC's #3, #1, #6, ...

........................................................................
.............................. CYCLE    8 ..............................
........................................................................

 iter      E             dE          RMSdq      gap      omega  full diag
   1    -59.5617521 -0.595618E+02  0.620E-02    3.25       0.0  T
   2    -59.5617550 -0.292431E-05  0.370E-02    3.24       1.0  T
   3    -59.5617531  0.187120E-05  0.106E-02    3.25       1.7  T
   4    -59.5617559 -0.281945E-05  0.317E-03    3.24       5.7  T
   5    -59.5617560 -0.923952E-07  0.179E-03    3.24      10.0  T
   6    -59.5617560 -0.156793E-07  0.813E-04    3.24      22.1  T
   7    -59.5617560 -0.497765E-08  0.570E-04    3.24      31.5  T
     SCC iter.                  ...        0 min,  0.010 sec
     gradient                   ...        0 min,  0.015 sec
 * total energy  :   -58.9623520 Eh     change       -0.1275882E-03 Eh
   gradient norm :     0.0035794 Eh/α   predicted    -0.9190894E-04 ( -27.96%)
   displ. norm   :     0.2050689 α      lambda       -0.1062876E-03
   maximum displ.:     0.1273166 α      in ANC's #1, #3, #2, ...

........................................................................
.............................. CYCLE    9 ..............................
........................................................................

 iter      E             dE          RMSdq      gap      omega  full diag
   1    -59.5626701 -0.595627E+02  0.492E-02    3.25       0.0  T
   2    -59.5626713 -0.117499E-05  0.292E-02    3.25       1.0  T
   3    -59.5626710  0.359264E-06  0.581E-03    3.25       3.1  T
   4    -59.5626717 -0.780301E-06  0.222E-03    3.25       8.1  T
   5    -59.5626718 -0.270388E-07  0.122E-03    3.25      14.7  T
   6    -59.5626718 -0.100142E-07  0.552E-04    3.25      32.5  T
   7    -59.5626718 -0.213834E-08  0.399E-04    3.25      45.0  T
     SCC iter.                  ...        0 min,  0.010 sec
     gradient                   ...        0 min,  0.016 sec
 * total energy  :   -58.9624337 Eh     change       -0.8175441E-04 Eh
   gradient norm :     0.0029477 Eh/α   predicted    -0.5539783E-04 ( -32.24%)
   displ. norm   :     0.2011124 α      lambda       -0.8325767E-04
   maximum displ.:     0.1312766 α      in ANC's #1, #3, #2, ...

........................................................................
.............................. CYCLE   10 ..............................
........................................................................

 iter      E             dE          RMSdq      gap      omega  full diag
   1    -59.5629209 -0.595629E+02  0.445E-02    3.25       0.0  T
   2    -59.5629217 -0.748617E-06  0.264E-02    3.25       1.0  T
   3    -59.5629217  0.109777E-07  0.399E-03    3.25       4.5  T
   4    -59.5629219 -0.295033E-06  0.184E-03    3.25       9.8  T
   5    -59.5629220 -0.115197E-07  0.101E-03    3.25      17.8  T
   6    -59.5629220 -0.852358E-08  0.454E-04    3.25      39.6  T
   7    -59.5629220 -0.105609E-08  0.337E-04    3.25      53.3  T
     SCC iter.                  ...        0 min,  0.010 sec
     gradient                   ...        0 min,  0.061 sec
 * total energy  :   -58.9625022 Eh     change       -0.6843696E-04 Eh
   gradient norm :     0.0030747 Eh/α   predicted    -0.4333633E-04 ( -36.68%)
   displ. norm   :     0.2140410 α      lambda       -0.8539750E-04
   maximum displ.:     0.1416216 α      in ANC's #1, #3, #2, ...

........................................................................
.............................. CYCLE   11 ..............................
........................................................................

 iter      E             dE          RMSdq      gap      omega  full diag
   1    -59.5631398 -0.595631E+02  0.449E-02    3.25       0.0  T
   2    -59.5631406 -0.824782E-06  0.265E-02    3.25       1.0  T
   3    -59.5631405  0.981526E-07  0.392E-03    3.25       4.6  T
   4    -59.5631408 -0.339474E-06  0.171E-03    3.25      10.5  T
   5    -59.5631408 -0.211778E-07  0.995E-04    3.25      18.1  T
   6    -59.5631409 -0.696512E-08  0.408E-04    3.25      44.1  T
     SCC iter.                  ...        0 min,  0.009 sec
     gradient                   ...        0 min,  0.015 sec
 * total energy  :   -58.9625713 Eh     change       -0.6916640E-04 Eh
   gradient norm :     0.0033495 Eh/α   predicted    -0.4465557E-04 ( -35.44%)
   displ. norm   :     0.2866372 α      lambda       -0.1019372E-03
   maximum displ.:     0.1959117 α      in ANC's #1, #3, #2, ...

........................................................................
.............................. CYCLE   12 ..............................
........................................................................

 iter      E             dE          RMSdq      gap      omega  full diag
   1    -59.5621193 -0.595621E+02  0.612E-02    3.25       0.0  T
   2    -59.5621206 -0.126761E-05  0.362E-02    3.25       1.0  T
   3    -59.5621205  0.633664E-07  0.517E-03    3.25       3.5  T
   4    -59.5621210 -0.496661E-06  0.225E-03    3.25       8.0  T
   5    -59.5621211 -0.235063E-07  0.123E-03    3.25      14.6  T
   6    -59.5621211 -0.909125E-08  0.550E-04    3.25      32.7  T
   7    -59.5621211 -0.146601E-08  0.411E-04    3.25      43.7  T
     SCC iter.                  ...        0 min,  0.061 sec
     gradient                   ...        0 min,  0.016 sec
 * total energy  :   -58.9626419 Eh     change       -0.7058897E-04 Eh
   gradient norm :     0.0045868 Eh/α   predicted    -0.5515701E-04 ( -21.86%)
   displ. norm   :     0.2143445 α      lambda       -0.7658527E-04
   maximum displ.:     0.1468097 α      in ANC's #1, #3, #2, ...

........................................................................
.............................. CYCLE   13 ..............................
........................................................................

 iter      E             dE          RMSdq      gap      omega  full diag
   1    -59.5622069 -0.595622E+02  0.448E-02    3.24       0.0  T
   2    -59.5622077 -0.752888E-06  0.266E-02    3.25       1.0  T
   3    -59.5622074  0.306916E-06  0.450E-03    3.24       4.0  T
   4    -59.5622079 -0.531504E-06  0.153E-03    3.25      11.8  T
   5    -59.5622079 -0.155736E-07  0.846E-04    3.24      21.2  T
   6    -59.5622079 -0.327917E-08  0.369E-04    3.24      48.7  T
     SCC iter.                  ...        0 min,  0.009 sec
     gradient                   ...        0 min,  0.015 sec
 * total energy  :   -58.9626983 Eh     change       -0.5638522E-04 Eh
   gradient norm :     0.0027167 Eh/α   predicted    -0.4005356E-04 ( -28.96%)
   displ. norm   :     0.2474136 α      lambda       -0.6505202E-04
   maximum displ.:     0.1818480 α      in ANC's #1, #3, #2, ...

........................................................................
.............................. CYCLE   14 ..............................
........................................................................

 iter      E             dE          RMSdq      gap      omega  full diag
   1    -59.5627520 -0.595628E+02  0.530E-02    3.24       0.0  T
   2    -59.5627529 -0.846857E-06  0.315E-02    3.24       1.0  T
   3    -59.5627525  0.384308E-06  0.500E-03    3.24       3.6  T
   4    -59.5627532 -0.653692E-06  0.165E-03    3.24      10.9  T
   5    -59.5627532 -0.148419E-07  0.918E-04    3.24      19.6  T
   6    -59.5627532 -0.377629E-08  0.407E-04    3.24      44.1  T
     SCC iter.                  ...        0 min,  0.009 sec
     gradient                   ...        0 min,  0.016 sec
 * total energy  :   -58.9627448 Eh     change       -0.4649030E-04 Eh
   gradient norm :     0.0031204 Eh/α   predicted    -0.3451849E-04 ( -25.75%)
   displ. norm   :     0.1081618 α      lambda       -0.3569870E-04
   maximum displ.:     0.0861443 α      in ANC's #1, #2, #3, ...

........................................................................
.............................. CYCLE   15 ..............................
........................................................................

 iter      E             dE          RMSdq      gap      omega  full diag
   1    -59.5629764 -0.595630E+02  0.265E-02    3.25       0.0  T
   2    -59.5629767 -0.307684E-06  0.157E-02    3.25       1.1  T
   3    -59.5629763  0.431590E-06  0.432E-03    3.25       4.2  T
   4    -59.5629768 -0.542165E-06  0.895E-04    3.25      20.1  T
   5    -59.5629768 -0.808858E-08  0.534E-04    3.25      33.6  T
     SCC iter.                  ...        0 min,  0.007 sec
     gradient                   ...        0 min,  0.015 sec
 * total energy  :   -58.9627715 Eh     change       -0.2668699E-04 Eh
   gradient norm :     0.0018614 Eh/α   predicted    -0.1806808E-04 ( -32.30%)
   displ. norm   :     0.1311575 α      lambda       -0.3649437E-04
   maximum displ.:     0.1012057 α      in ANC's #1, #4, #6, ...

........................................................................
.............................. CYCLE   16 ..............................
........................................................................

 iter      E             dE          RMSdq      gap      omega  full diag
   1    -59.5645394 -0.595645E+02  0.407E-02    3.25       0.0  T
   2    -59.5645399 -0.527812E-06  0.243E-02    3.25       1.0  T
   3    -59.5645398  0.915199E-07  0.319E-03    3.25       5.6  T
   4    -59.5645401 -0.230645E-06  0.140E-03    3.25      12.8  T
   5    -59.5645401 -0.225983E-07  0.762E-04    3.25      23.6  T
   6    -59.5645401 -0.403517E-08  0.306E-04    3.25      58.7  T
     SCC iter.                  ...        0 min,  0.009 sec
     gradient                   ...        0 min,  0.016 sec
 * total energy  :   -58.9628081 Eh     change       -0.3658445E-04 Eh
   gradient norm :     0.0030675 Eh/α   predicted    -0.1839230E-04 ( -49.73%)
   displ. norm   :     0.0735089 α      lambda       -0.3105003E-04
   maximum displ.:     0.0599173 α      in ANC's #1, #4, #9, ...

........................................................................
.............................. CYCLE   17 ..............................
........................................................................

 iter      E             dE          RMSdq      gap      omega  full diag
   1    -59.5639105 -0.595639E+02  0.241E-02    3.25       0.0  T
   2    -59.5639106 -0.133686E-06  0.143E-02    3.25       1.3  T
   3    -59.5639106  0.538822E-07  0.181E-03    3.25       9.9  T
   4    -59.5639107 -0.970804E-07  0.695E-04    3.25      25.9  T
   5    -59.5639107 -0.452344E-08  0.354E-04    3.25      50.8  T
     SCC iter.                  ...        0 min,  0.009 sec
     gradient                   ...        0 min,  0.061 sec
 * total energy  :   -58.9628351 Eh     change       -0.2706009E-04 Eh
   gradient norm :     0.0025631 Eh/α   predicted    -0.1561101E-04 ( -42.31%)
   displ. norm   :     0.1150328 α      lambda       -0.4817535E-04
   maximum displ.:     0.0798327 α      in ANC's #1, #4, #3, ...

........................................................................
.............................. CYCLE   18 ..............................
........................................................................

 iter      E             dE          RMSdq      gap      omega  full diag
   1    -59.5631816 -0.595632E+02  0.368E-02    3.25       0.0  T
   2    -59.5631821 -0.432431E-06  0.220E-02    3.25       1.0  T
   3    -59.5631821  0.662418E-09  0.293E-03    3.25       6.1  T
   4    -59.5631823 -0.168557E-06  0.143E-03    3.25      12.6  T
   5    -59.5631823 -0.101981E-07  0.702E-04    3.25      25.6  T
   6    -59.5631823 -0.392065E-08  0.406E-04    3.25      44.2  T
     SCC iter.                  ...        0 min,  0.009 sec
     gradient                   ...        0 min,  0.016 sec
 * total energy  :   -58.9628740 Eh     change       -0.3883024E-04 Eh
   gradient norm :     0.0018261 Eh/α   predicted    -0.2440701E-04 ( -37.14%)
   displ. norm   :     0.1916407 α      lambda       -0.4040490E-04
   maximum displ.:     0.1376390 α      in ANC's #1, #4, #3, ...

........................................................................
.............................. CYCLE   19 ..............................
........................................................................

 iter      E             dE          RMSdq      gap      omega  full diag
   1    -59.5620464 -0.595620E+02  0.599E-02    3.25       0.0  T
   2    -59.5620477 -0.123831E-05  0.357E-02    3.25       1.0  T
   3    -59.5620479 -0.197588E-06  0.446E-03    3.25       4.0  T
   4    -59.5620481 -0.268375E-06  0.245E-03    3.25       7.3  T
   5    -59.5620482 -0.352946E-07  0.120E-03    3.25      15.0  T
   6    -59.5620482 -0.123393E-07  0.671E-04    3.25      26.8  T
   7    -59.5620482 -0.330611E-08  0.498E-04    3.25      36.1  T
     SCC iter.                  ...        0 min,  0.010 sec
     gradient                   ...        0 min,  0.061 sec
 * total energy  :   -58.9629104 Eh     change       -0.3647378E-04 Eh
   gradient norm :     0.0026466 Eh/α   predicted    -0.2053254E-04 ( -43.71%)
   displ. norm   :     0.0409225 α      lambda       -0.1664953E-04
   maximum displ.:     0.0366222 α      in ANC's #1, #2, #8, ...

........................................................................
.............................. CYCLE   20 ..............................
........................................................................

 iter      E             dE          RMSdq      gap      omega  full diag
   1    -59.5622962 -0.595623E+02  0.103E-02    3.25       0.0  T
   2    -59.5622962 -0.498202E-07  0.605E-03    3.25       3.0  T
   3    -59.5622962  0.768551E-09  0.947E-04    3.25      19.0  T
   4    -59.5622963 -0.185688E-07  0.480E-04    3.25      37.4  T
     SCC iter.                  ...        0 min,  0.006 sec
     gradient                   ...        0 min,  0.015 sec
 * total energy  :   -58.9629257 Eh     change       -0.1525533E-04 Eh
   gradient norm :     0.0019496 Eh/α   predicted    -0.8339695E-05 ( -45.33%)
   displ. norm   :     0.1384149 α      lambda       -0.4137338E-04
   maximum displ.:     0.1170576 α      in ANC's #1, #2, #6, ...
 * RMSD in coord.:     0.4737521 α      energy gain  -0.1157479E-01 Eh

generating ANC from exact Hessian ...
Using Lindh-Hessian (1995)
 Shifting diagonal of input Hessian by    9.1632014588845026E-003
 Lowest  eigenvalues of input Hessian
    0.000000    0.000000    0.000000    0.000000    0.000000    0.000000
    0.010000    0.010396    0.010627    0.013406    0.014267    0.015271
    0.017988    0.020046    0.023310    0.025970    0.026600    0.031001
 Highest eigenvalues
    1.946332    2.015554    2.150886    2.193513    2.321956    2.347465


........................................................................
.............................. CYCLE   21 ..............................
........................................................................

 iter      E             dE          RMSdq      gap      omega  full diag
   1    -59.5636470 -0.595636E+02  0.321E-02    3.25       0.0  T
   2    -59.5636475 -0.535242E-06  0.188E-02    3.25       1.0  T
   3    -59.5636474  0.136264E-06  0.338E-03    3.25       5.3  T
   4    -59.5636477 -0.296355E-06  0.133E-03    3.25      13.5  T
   5    -59.5636477 -0.161359E-07  0.735E-04    3.25      24.4  T
   6    -59.5636477 -0.412300E-08  0.327E-04    3.25      54.9  T
     SCC iter.                  ...        0 min,  0.009 sec
     gradient                   ...        0 min,  0.015 sec
 * total energy  :   -58.9629704 Eh     change       -0.4468023E-04 Eh
   gradient norm :     0.0022025 Eh/α   predicted     0.0000000E+00 (-100.00%)
   displ. norm   :     0.0296775 α      lambda       -0.1476029E-04
   maximum displ.:     0.0247681 α      in ANC's #1, #2, #4, ...

........................................................................
.............................. CYCLE   22 ..............................
........................................................................

 iter      E             dE          RMSdq      gap      omega  full diag
   1    -59.5633347 -0.595633E+02  0.795E-03    3.25       0.0  T
   2    -59.5633347 -0.345982E-07  0.465E-03    3.25       3.9  T
   3    -59.5633347  0.131944E-07  0.938E-04    3.25      19.1  T
   4    -59.5633347 -0.239539E-07  0.342E-04    3.25      52.5  T
     SCC iter.                  ...        0 min,  0.006 sec
     gradient                   ...        0 min,  0.016 sec
 * total energy  :   -58.9629838 Eh     change       -0.1339379E-04 Eh
   gradient norm :     0.0009111 Eh/α   predicted    -0.7788379E-05 ( -41.85%)
   displ. norm   :     0.1014681 α      lambda       -0.2493026E-04
   maximum displ.:     0.0778693 α      in ANC's #1, #2, #4, ...

........................................................................
.............................. CYCLE   23 ..............................
........................................................................

 iter      E             dE          RMSdq      gap      omega  full diag
   1    -59.5627427 -0.595627E+02  0.261E-02    3.25       0.0  T
   2    -59.5627430 -0.298306E-06  0.152E-02    3.25       1.2  T
   3    -59.5627429  0.107577E-06  0.266E-03    3.25       6.7  T
   4    -59.5627431 -0.198555E-06  0.964E-04    3.25      18.6  T
   5    -59.5627431 -0.799520E-08  0.554E-04    3.25      32.4  T
     SCC iter.                  ...        0 min,  0.007 sec
     gradient                   ...        0 min,  0.016 sec
 * total energy  :   -58.9630109 Eh     change       -0.2713001E-04 Eh
   gradient norm :     0.0021805 Eh/α   predicted    -0.1252269E-04 ( -53.84%)
   displ. norm   :     0.0662063 α      lambda       -0.1785488E-04
   maximum displ.:     0.0499971 α      in ANC's #1, #2, #4, ...

........................................................................
.............................. CYCLE   24 ..............................
........................................................................

 iter      E             dE          RMSdq      gap      omega  full diag
   1    -59.5627245 -0.595627E+02  0.158E-02    3.25       0.0  T
   2    -59.5627246 -0.628029E-07  0.923E-03    3.25       1.9  T
   3    -59.5627246 -0.370294E-08  0.110E-03    3.25      16.3  T
   4    -59.5627246 -0.218495E-07  0.567E-04    3.25      31.7  T
   5    -59.5627246 -0.142958E-08  0.310E-04    3.25      58.0  T
     SCC iter.                  ...        0 min,  0.007 sec
     gradient                   ...        0 min,  0.015 sec
 * total energy  :   -58.9630278 Eh     change       -0.1691296E-04 Eh
   gradient norm :     0.0024441 Eh/α   predicted    -0.8968396E-05 ( -46.97%)
   displ. norm   :     0.1067008 α      lambda       -0.3088753E-04
   maximum displ.:     0.0775318 α      in ANC's #1, #2, #4, ...

........................................................................
.............................. CYCLE   25 ..............................
........................................................................

 iter      E             dE          RMSdq      gap      omega  full diag
   1    -59.5628577 -0.595629E+02  0.252E-02    3.25       0.0  T
   2    -59.5628578 -0.137649E-06  0.147E-02    3.25       1.2  T
   3    -59.5628579 -0.326147E-07  0.147E-03    3.25      12.2  T
   4    -59.5628579 -0.258596E-07  0.875E-04    3.25      20.5  T
   5    -59.5628579 -0.406232E-08  0.445E-04    3.25      40.4  T
     SCC iter.                  ...        0 min,  0.007 sec
     gradient                   ...        0 min,  0.016 sec
 * total energy  :   -58.9630568 Eh     change       -0.2897020E-04 Eh
   gradient norm :     0.0020289 Eh/α   predicted    -0.1562064E-04 ( -46.08%)
   displ. norm   :     0.1814659 α      lambda       -0.4966080E-04
   maximum displ.:     0.1305693 α      in ANC's #1, #2, #4, ...

........................................................................
.............................. CYCLE   26 ..............................
........................................................................

 iter      E             dE          RMSdq      gap      omega  full diag
   1    -59.5629426 -0.595629E+02  0.424E-02    3.25       0.0  T
   2    -59.5629430 -0.408870E-06  0.247E-02    3.25       1.0  T
   3    -59.5629431 -0.105168E-06  0.247E-03    3.25       7.3  T
   4    -59.5629432 -0.647021E-07  0.152E-03    3.25      11.8  T
   5    -59.5629432 -0.128631E-07  0.838E-04    3.25      21.4  T
   6    -59.5629432 -0.551908E-08  0.553E-04    3.25      32.5  T
     SCC iter.                  ...        0 min,  0.009 sec
     gradient                   ...        0 min,  0.067 sec
 * total energy  :   -58.9631021 Eh     change       -0.4528313E-04 Eh
   gradient norm :     0.0013001 Eh/α   predicted    -0.2564931E-04 ( -43.36%)
   displ. norm   :     0.3581049 α      lambda       -0.5792973E-04
   maximum displ.:     0.2582951 α      in ANC's #1, #2, #4, ...

........................................................................
.............................. CYCLE   27 ..............................
........................................................................

 iter      E             dE          RMSdq      gap      omega  full diag
   1    -59.5625263 -0.595625E+02  0.831E-02    3.25       0.0  T
   2    -59.5625279 -0.163680E-05  0.484E-02    3.25       1.0  T
   3    -59.5625283 -0.358214E-06  0.504E-03    3.25       3.6  T
   4    -59.5625286 -0.314808E-06  0.303E-03    3.25       5.9  T
   5    -59.5625287 -0.474828E-07  0.177E-03    3.25      10.1  T
   6    -59.5625287 -0.255155E-07  0.113E-03    3.25      15.8  T
   7    -59.5625287 -0.119891E-07  0.610E-04    3.25      29.4  T
   8    -59.5625287 -0.436354E-08  0.266E-04    3.25      67.6  T
     SCC iter.                  ...        0 min,  0.012 sec
     gradient                   ...        0 min,  0.073 sec
 * total energy  :   -58.9631758 Eh     change       -0.7376254E-04 Eh
   gradient norm :     0.0017663 Eh/α   predicted    -0.3061643E-04 ( -58.49%)
   displ. norm   :     0.3013834 α      lambda       -0.4507280E-04
   maximum displ.:     0.2209558 α      in ANC's #1, #2, #4, ...

........................................................................
.............................. CYCLE   28 ..............................
........................................................................

 iter      E             dE          RMSdq      gap      omega  full diag
   1    -59.5625737 -0.595626E+02  0.689E-02    3.25       0.0  T
   2    -59.5625748 -0.103570E-05  0.400E-02    3.25       1.0  T
   3    -59.5625750 -0.266923E-06  0.385E-03    3.25       4.7  T
   4    -59.5625752 -0.169501E-06  0.235E-03    3.25       7.6  T
   5    -59.5625752 -0.279410E-07  0.131E-03    3.25      13.7  T
   6    -59.5625752 -0.143566E-07  0.849E-04    3.25      21.2  T
   7    -59.5625753 -0.657118E-08  0.421E-04    3.25      42.6  T
     SCC iter.                  ...        0 min,  0.010 sec
     gradient                   ...        0 min,  0.016 sec
 * total energy  :   -58.9632372 Eh     change       -0.6139539E-04 Eh
   gradient norm :     0.0022106 Eh/α   predicted    -0.2344654E-04 ( -61.81%)
   displ. norm   :     0.1947415 α      lambda       -0.5008667E-04
   maximum displ.:     0.1445277 α      in ANC's #1, #2, #6, ...

........................................................................
.............................. CYCLE   29 ..............................
........................................................................

 iter      E             dE          RMSdq      gap      omega  full diag
   1    -59.5629267 -0.595629E+02  0.444E-02    3.25       0.0  T
   2    -59.5629271 -0.397740E-06  0.258E-02    3.25       1.0  T
   3    -59.5629273 -0.140536E-06  0.217E-03    3.25       8.3  T
   4    -59.5629273 -0.329074E-07  0.141E-03    3.25      12.8  T
   5    -59.5629273 -0.847525E-08  0.762E-04    3.25      23.6  T
   6    -59.5629273 -0.548778E-08  0.515E-04    3.25      34.9  T
     SCC iter.                  ...        0 min,  0.009 sec
     gradient                   ...        0 min,  0.066 sec
 * total energy  :   -58.9632852 Eh     change       -0.4796162E-04 Eh
   gradient norm :     0.0021058 Eh/α   predicted    -0.2599409E-04 ( -45.80%)
   displ. norm   :     0.2862419 α      lambda       -0.8028968E-04
   maximum displ.:     0.2132159 α      in ANC's #1, #2, #8, ...

........................................................................
.............................. CYCLE   30 ..............................
........................................................................

 iter      E             dE          RMSdq      gap      omega  full diag
   1    -59.5631884 -0.595632E+02  0.661E-02    3.25       0.0  T
   2    -59.5631893 -0.860383E-06  0.385E-02    3.25       1.0  T
   3    -59.5631895 -0.268493E-06  0.335E-03    3.25       5.4  T
   4    -59.5631896 -0.104213E-06  0.216E-03    3.25       8.3  T
   5    -59.5631896 -0.240837E-07  0.120E-03    3.25      15.0  T
   6    -59.5631897 -0.146276E-07  0.781E-04    3.25      23.0  T
   7    -59.5631897 -0.443888E-08  0.394E-04    3.25      45.6  T
     SCC iter.                  ...        0 min,  0.010 sec
     gradient                   ...        0 min,  0.016 sec
 * total energy  :   -58.9633619 Eh     change       -0.7676043E-04 Eh
   gradient norm :     0.0019372 Eh/α   predicted    -0.4343581E-04 ( -43.41%)
   displ. norm   :     0.6264279 α      lambda       -0.1195424E-03
   maximum displ.:     0.4693801 α      in ANC's #1, #2, #8, ...

........................................................................
.............................. CYCLE   31 ..............................
........................................................................

 iter      E             dE          RMSdq      gap      omega  full diag
   1    -59.5617820 -0.595618E+02  0.147E-01    3.25       0.0  T
   2    -59.5617867 -0.470586E-05  0.860E-02    3.25       1.0  T
   3    -59.5617867  0.229402E-07  0.967E-03    3.25       1.9  T
   4    -59.5617887 -0.204050E-05  0.529E-03    3.25       3.4  T
   5    -59.5617889 -0.158122E-06  0.317E-03    3.25       5.7  T
   6    -59.5617889 -0.832451E-07  0.193E-03    3.25       9.3  T
   7    -59.5617890 -0.240528E-07  0.125E-03    3.25      14.4  T
   8    -59.5617890 -0.226784E-07  0.420E-04    3.25      42.7  T
   9    -59.5617890 -0.169057E-08  0.250E-04    3.25      71.9  T
     SCC iter.                  ...        0 min,  0.061 sec
     gradient                   ...        0 min,  0.015 sec
 * total energy  :   -58.9635204 Eh     change       -0.1584433E-03 Eh
   gradient norm :     0.0026876 Eh/α   predicted    -0.7019714E-04 ( -55.70%)
   displ. norm   :     0.4204213 α      lambda       -0.1269155E-03
   maximum displ.:     0.3234905 α      in ANC's #1, #2, #4, ...

........................................................................
.............................. CYCLE   32 ..............................
........................................................................

 iter      E             dE          RMSdq      gap      omega  full diag
   1    -59.5616295 -0.595616E+02  0.101E-01    3.25       0.0  T
   2    -59.5616316 -0.208803E-05  0.591E-02    3.25       1.0  T
   3    -59.5616317 -0.171703E-06  0.603E-03    3.25       3.0  T
   4    -59.5616324 -0.677813E-06  0.356E-03    3.25       5.0  T
   5    -59.5616325 -0.887116E-07  0.211E-03    3.25       8.5  T
   6    -59.5616325 -0.386980E-07  0.128E-03    3.25      14.0  T
   7    -59.5616326 -0.122024E-07  0.810E-04    3.25      22.2  T
   8    -59.5616326 -0.796334E-08  0.353E-04    3.25      50.9  T
     SCC iter.                  ...        0 min,  0.012 sec
     gradient                   ...        0 min,  0.061 sec
 * total energy  :   -58.9636325 Eh     change       -0.1120848E-03 Eh
   gradient norm :     0.0029685 Eh/α   predicted    -0.7467987E-04 ( -33.37%)
   displ. norm   :     0.5030076 α      lambda       -0.1597212E-03
   maximum displ.:     0.3952329 α      in ANC's #1, #2, #4, ...

........................................................................
.............................. CYCLE   33 ..............................
........................................................................

 iter      E             dE          RMSdq      gap      omega  full diag
   1    -59.5616356 -0.595616E+02  0.123E-01    3.25       0.0  T
   2    -59.5616386 -0.299983E-05  0.723E-02    3.25       1.0  T
   3    -59.5616388 -0.216295E-06  0.724E-03    3.26       2.5  T
   4    -59.5616398 -0.966183E-06  0.412E-03    3.25       4.4  T
   5    -59.5616399 -0.117367E-06  0.230E-03    3.25       7.8  T
   6    -59.5616400 -0.467640E-07  0.129E-03    3.25      14.0  T
   7    -59.5616400 -0.108798E-07  0.807E-04    3.25      22.2  T
   8    -59.5616400 -0.651889E-08  0.329E-04    3.25      54.5  T
     SCC iter.                  ...        0 min,  0.012 sec
     gradient                   ...        0 min,  0.016 sec
 * total energy  :   -58.9637663 Eh     change       -0.1338571E-03 Eh
   gradient norm :     0.0034252 Eh/α   predicted    -0.1000702E-03 ( -25.24%)
   displ. norm   :     0.5119801 α      lambda       -0.1563315E-03
   maximum displ.:     0.4123338 α      in ANC's #1, #2, #4, ...

........................................................................
.............................. CYCLE   34 ..............................
........................................................................

 iter      E             dE          RMSdq      gap      omega  full diag
   1    -59.5619152 -0.595619E+02  0.128E-01    3.26       0.0  T
   2    -59.5619183 -0.306513E-05  0.752E-02    3.26       1.0  T
   3    -59.5619183 -0.891212E-07  0.750E-03    3.26       2.4  T
   4    -59.5619194 -0.110070E-05  0.412E-03    3.26       4.4  T
   5    -59.5619196 -0.126456E-06  0.218E-03    3.26       8.2  T
   6    -59.5619196 -0.378115E-07  0.123E-03    3.26      14.6  T
   7    -59.5619196 -0.101268E-07  0.794E-04    3.26      22.6  T
   8    -59.5619196 -0.590304E-08  0.350E-04    3.26      51.4  T
     SCC iter.                  ...        0 min,  0.057 sec
     gradient                   ...        0 min,  0.016 sec
 * total energy  :   -58.9638902 Eh     change       -0.1238812E-03 Eh
   gradient norm :     0.0044319 Eh/α   predicted    -0.9865845E-04 ( -20.36%)
   displ. norm   :     0.3707812 α      lambda       -0.1194569E-03
   maximum displ.:     0.3104962 α      in ANC's #1, #2, #4, ...

........................................................................
.............................. CYCLE   35 ..............................
........................................................................

 iter      E             dE          RMSdq      gap      omega  full diag
   1    -59.5629470 -0.595629E+02  0.919E-02    3.26       0.0  T
   2    -59.5629488 -0.179095E-05  0.543E-02    3.26       1.0  T
   3    -59.5629482  0.640618E-06  0.776E-03    3.26       2.3  T
   4    -59.5629496 -0.144595E-05  0.328E-03    3.26       5.5  T
   5    -59.5629497 -0.512585E-07  0.188E-03    3.26       9.6  T
   6    -59.5629497 -0.278154E-07  0.118E-03    3.26      15.2  T
   7    -59.5629497 -0.103198E-07  0.831E-04    3.26      21.6  T
   8    -59.5629497 -0.849450E-08  0.392E-04    3.26      45.9  T
     SCC iter.                  ...        0 min,  0.012 sec
     gradient                   ...        0 min,  0.016 sec
 * total energy  :   -58.9639871 Eh     change       -0.9684661E-04 Eh
   gradient norm :     0.0042909 Eh/α   predicted    -0.6794283E-04 ( -29.84%)
   displ. norm   :     0.6233825 α      lambda       -0.1606774E-03
   maximum displ.:     0.5258030 α      in ANC's #1, #2, #40, ...

........................................................................
.............................. CYCLE   36 ..............................
........................................................................

 iter      E             dE          RMSdq      gap      omega  full diag
   1    -59.5601332 -0.595601E+02  0.152E-01    3.26       0.0  T
   2    -59.5601391 -0.587563E-05  0.896E-02    3.26       1.0  T
   3    -59.5601362  0.286974E-05  0.132E-02    3.26       1.4  T
   4    -59.5601415 -0.527679E-05  0.576E-03    3.26       3.1  T
   5    -59.5601417 -0.220445E-06  0.374E-03    3.26       4.8  T
   6    -59.5601418 -0.112545E-06  0.224E-03    3.26       8.0  T
   7    -59.5601419 -0.389792E-07  0.159E-03    3.26      11.3  T
   8    -59.5601419 -0.336104E-07  0.707E-04    3.26      25.4  T
   9    -59.5601419 -0.676507E-08  0.332E-04    3.26      54.2  T
     SCC iter.                  ...        0 min,  0.013 sec
     gradient                   ...        0 min,  0.015 sec
 * total energy  :   -58.9640981 Eh     change       -0.1110749E-03 Eh
   gradient norm :     0.0058294 Eh/α   predicted    -0.1115593E-03 (   0.44%)
   displ. norm   :     0.4029442 α      lambda       -0.2005183E-03
   maximum displ.:     0.3582955 α      in ANC's #1, #2, #40, ...

........................................................................
.............................. CYCLE   37 ..............................
........................................................................

 iter      E             dE          RMSdq      gap      omega  full diag
   1    -59.5640802 -0.595641E+02  0.101E-01    3.27       0.0  T
   2    -59.5640831 -0.286465E-05  0.592E-02    3.27       1.0  T
   3    -59.5640828  0.330371E-06  0.754E-03    3.27       2.4  T
   4    -59.5640841 -0.128006E-05  0.313E-03    3.27       5.7  T
   5    -59.5640841 -0.416014E-07  0.187E-03    3.27       9.6  T
   6    -59.5640841 -0.222883E-07  0.102E-03    3.27      17.7  T
   7    -59.5640841 -0.660391E-08  0.754E-04    3.27      23.8  T
   8    -59.5640841 -0.591443E-08  0.392E-04    3.27      45.8  T
     SCC iter.                  ...        0 min,  0.066 sec
     gradient                   ...        0 min,  0.016 sec
 * total energy  :   -58.9642179 Eh     change       -0.1197370E-03 Eh
   gradient norm :     0.0042624 Eh/α   predicted    -0.1165385E-03 (  -2.67%)
   displ. norm   :     0.5626610 α      lambda       -0.1466818E-03
   maximum displ.:     0.4929546 α      in ANC's #1, #2, #40, ...

........................................................................
.............................. CYCLE   38 ..............................
........................................................................

 iter      E             dE          RMSdq      gap      omega  full diag
   1    -59.5608589 -0.595609E+02  0.137E-01    3.27       0.0  T
   2    -59.5608650 -0.615503E-05  0.806E-02    3.26       1.0  T
   3    -59.5608613  0.369893E-05  0.139E-02    3.27       1.3  T
   4    -59.5608672 -0.583656E-05  0.474E-03    3.26       3.8  T
   5    -59.5608673 -0.157608E-06  0.276E-03    3.26       6.5  T
   6    -59.5608674 -0.550761E-07  0.149E-03    3.26      12.0  T
   7    -59.5608674 -0.148737E-07  0.106E-03    3.26      16.9  T
   8    -59.5608674 -0.101738E-07  0.644E-04    3.26      27.9  T
   9    -59.5608674 -0.435963E-08  0.235E-04    3.26      76.6  T
     SCC iter.                  ...        0 min,  0.013 sec
     gradient                   ...        0 min,  0.061 sec
 * total energy  :   -58.9643036 Eh     change       -0.8569148E-04 Eh
   gradient norm :     0.0050619 Eh/α   predicted    -0.9656639E-04 (  12.69%)
   displ. norm   :     0.2250676 α      lambda       -0.8395584E-04
   maximum displ.:     0.2038971 α      in ANC's #1, #2, #40, ...

........................................................................
.............................. CYCLE   39 ..............................
........................................................................

 iter      E             dE          RMSdq      gap      omega  full diag
   1    -59.5621333 -0.595621E+02  0.522E-02    3.27       0.0  T
   2    -59.5621340 -0.700981E-06  0.307E-02    3.27       1.0  T
   3    -59.5621339  0.138945E-06  0.388E-03    3.27       4.6  T
   4    -59.5621343 -0.407256E-06  0.165E-03    3.27      10.9  T
   5    -59.5621343 -0.135331E-07  0.912E-04    3.27      19.7  T
   6    -59.5621343 -0.538090E-08  0.503E-04    3.27      35.7  T
     SCC iter.                  ...        0 min,  0.009 sec
     gradient                   ...        0 min,  0.016 sec
 * total energy  :   -58.9643703 Eh     change       -0.6677238E-04 Eh
   gradient norm :     0.0044598 Eh/α   predicted    -0.4410765E-04 ( -33.94%)
   displ. norm   :     0.5198594 α      lambda       -0.1528565E-03
   maximum displ.:     0.4739383 α      in ANC's #1, #2, #40, ...

........................................................................
.............................. CYCLE   40 ..............................
........................................................................

 iter      E             dE          RMSdq      gap      omega  full diag
   1    -59.5628971 -0.595629E+02  0.120E-01    3.27       0.0  T
   2    -59.5629015 -0.444181E-05  0.707E-02    3.27       1.0  T
   3    -59.5628997  0.186806E-05  0.122E-02    3.27       1.5  T
   4    -59.5629035 -0.383438E-05  0.529E-03    3.27       3.4  T
   5    -59.5629037 -0.162847E-06  0.332E-03    3.27       5.4  T
   6    -59.5629037 -0.806504E-07  0.234E-03    3.27       7.7  T
   7    -59.5629038 -0.554144E-07  0.153E-03    3.27      11.8  T
   8    -59.5629038 -0.316481E-07  0.748E-04    3.27      24.0  T
   9    -59.5629038 -0.703991E-08  0.255E-04    3.27      70.4  T
     SCC iter.                  ...        0 min,  0.070 sec
     gradient                   ...        0 min,  0.016 sec
 * total energy  :   -58.9644659 Eh     change       -0.9562168E-04 Eh
   gradient norm :     0.0045081 Eh/α   predicted    -0.9708363E-04 (   1.53%)
   displ. norm   :     0.3505628 α      lambda       -0.1406274E-03
   maximum displ.:     0.3162617 α      in ANC's #1, #4, #40, ...

........................................................................
.............................. CYCLE   41 ..............................
........................................................................

 iter      E             dE          RMSdq      gap      omega  full diag
   1    -59.5661486 -0.595661E+02  0.785E-02    3.27       0.0  T
   2    -59.5661519 -0.326100E-05  0.467E-02    3.27       1.0  T
   3    -59.5661484  0.343981E-05  0.142E-02    3.27       1.3  T
   4    -59.5661537 -0.525054E-05  0.498E-03    3.27       3.6  T
   5    -59.5661538 -0.145958E-06  0.357E-03    3.27       5.0  T
   6    -59.5661539 -0.124366E-06  0.230E-03    3.27       7.8  T
   7    -59.5661540 -0.709680E-07  0.125E-03    3.27      14.4  T
   8    -59.5661540 -0.202515E-07  0.566E-04    3.27      31.7  T
   9    -59.5661540 -0.345180E-08  0.201E-04    3.27      89.4  T
     SCC iter.                  ...        0 min,  0.070 sec
     gradient                   ...        0 min,  0.016 sec
 * total energy  :   -58.9645359 Eh     change       -0.6990793E-04 Eh
   gradient norm :     0.0054197 Eh/α   predicted    -0.7895845E-04 (  12.95%)
   displ. norm   :     0.6654073 α      lambda       -0.1578156E-03
   maximum displ.:     0.6081488 α      in ANC's #1, #2, #40, ...

........................................................................
.............................. CYCLE   42 ..............................
........................................................................

 iter      E             dE          RMSdq      gap      omega  full diag
   1    -59.5596115 -0.595596E+02  0.152E-01    3.26       0.0  T
   2    -59.5596206 -0.907910E-05  0.892E-02    3.26       1.0  T
   3    -59.5596160  0.461487E-05  0.162E-02    3.26       1.1  T
   4    -59.5596238 -0.784956E-05  0.666E-03    3.26       2.7  T
   5    -59.5596242 -0.349268E-06  0.474E-03    3.26       3.8  T
   6    -59.5596244 -0.188901E-06  0.287E-03    3.26       6.3  T
   7    -59.5596245 -0.701045E-07  0.211E-03    3.26       8.5  T
   8    -59.5596245 -0.617475E-07  0.949E-04    3.26      18.9  T
   9    -59.5596245 -0.132353E-07  0.376E-04    3.26      47.7  T
     SCC iter.                  ...        0 min,  0.013 sec
     gradient                   ...        0 min,  0.073 sec
 * total energy  :   -58.9645681 Eh     change       -0.3227979E-04 Eh
   gradient norm :     0.0075283 Eh/α   predicted    -0.1138490E-03 ( 252.69%)
   displ. norm   :     0.1005260 α      lambda       -0.1374753E-03
   maximum displ.:     0.0762006 α      in ANC's #1, #2, #5, ...
 * RMSD in coord.:     1.2562528 α      energy gain  -0.1642449E-02 Eh

generating ANC from exact Hessian ...
Using Lindh-Hessian (1995)
 Shifting diagonal of input Hessian by    9.2786814875093840E-003
 Lowest  eigenvalues of input Hessian
    0.000000    0.000000    0.000000    0.000000    0.000000    0.000000
    0.010000    0.010369    0.011056    0.012985    0.014428    0.016107
    0.017680    0.020195    0.024467    0.026048    0.028219    0.030116
 Highest eigenvalues
    1.941378    2.014550    2.143116    2.190366    2.324625    2.340909


........................................................................
.............................. CYCLE   43 ..............................
........................................................................

 iter      E             dE          RMSdq      gap      omega  full diag
   1    -59.5640075 -0.595640E+02  0.349E-02    3.27       0.0  T
   2    -59.5640098 -0.229931E-05  0.205E-02    3.27       1.0  T
   3    -59.5640095  0.369933E-06  0.727E-03    3.27       2.5  T
   4    -59.5640102 -0.788059E-06  0.255E-03    3.27       7.1  T
   5    -59.5640103 -0.921206E-07  0.183E-03    3.27       9.8  T
   6    -59.5640104 -0.289949E-07  0.121E-03    3.27      14.8  T
   7    -59.5640104 -0.182664E-07  0.759E-04    3.27      23.7  T
   8    -59.5640104 -0.714103E-08  0.387E-04    3.27      46.4  T
     SCC iter.                  ...        0 min,  0.012 sec
     gradient                   ...        0 min,  0.073 sec
 * total energy  :   -58.9646336 Eh     change       -0.6546683E-04 Eh
   gradient norm :     0.0042839 Eh/α   predicted     0.0000000E+00 (-100.00%)
   displ. norm   :     0.0289346 α      lambda       -0.3963626E-04
   maximum displ.:     0.0119724 α      in ANC's #1, #8, #5, ...

........................................................................
.............................. CYCLE   44 ..............................
........................................................................

 iter      E             dE          RMSdq      gap      omega  full diag
   1    -59.5644001 -0.595644E+02  0.152E-02    3.27       0.0  T
   2    -59.5644002 -0.710456E-07  0.899E-03    3.27       2.0  T
   3    -59.5644002  0.539159E-07  0.158E-03    3.27      11.4  T
   4    -59.5644002 -0.775676E-07  0.415E-04    3.27      43.2  T
   5    -59.5644002 -0.113950E-08  0.241E-04    3.27      74.5  T
     SCC iter.                  ...        0 min,  0.007 sec
     gradient                   ...        0 min,  0.016 sec
 * total energy  :   -58.9646647 Eh     change       -0.3108079E-04 Eh
   gradient norm :     0.0017292 Eh/α   predicted    -0.2104599E-04 ( -32.29%)
   displ. norm   :     0.0765763 α      lambda       -0.3049578E-04
   maximum displ.:     0.0386558 α      in ANC's #1, #5, #7, ...

........................................................................
.............................. CYCLE   45 ..............................
........................................................................

 iter      E             dE          RMSdq      gap      omega  full diag
   1    -59.5647606 -0.595648E+02  0.317E-02    3.27       0.0  T
   2    -59.5647609 -0.270470E-06  0.189E-02    3.27       1.0  T
   3    -59.5647607  0.156813E-06  0.286E-03    3.27       6.3  T
   4    -59.5647610 -0.251775E-06  0.931E-04    3.27      19.3  T
   5    -59.5647610 -0.452874E-08  0.534E-04    3.27      33.6  T
     SCC iter.                  ...        0 min,  0.007 sec
     gradient                   ...        0 min,  0.016 sec
 * total energy  :   -58.9646890 Eh     change       -0.2427277E-04 Eh
   gradient norm :     0.0023590 Eh/α   predicted    -0.1656139E-04 ( -31.77%)
   displ. norm   :     0.0265843 α      lambda       -0.1003232E-04
   maximum displ.:     0.0159197 α      in ANC's #1, #5, #2, ...

........................................................................
.............................. CYCLE   46 ..............................
........................................................................

 iter      E             dE          RMSdq      gap      omega  full diag
   1    -59.5646790 -0.595647E+02  0.747E-03    3.27       0.0  T
   2    -59.5646790 -0.163502E-07  0.451E-03    3.27       4.0  T
   3    -59.5646790  0.170033E-08  0.649E-04    3.27      27.7  T
   4    -59.5646790 -0.775366E-08  0.280E-04    3.27      64.1  T
     SCC iter.                  ...        0 min,  0.006 sec
     gradient                   ...        0 min,  0.068 sec
 * total energy  :   -58.9646984 Eh     change       -0.9416029E-05 Eh
   gradient norm :     0.0016080 Eh/α   predicted    -0.5260730E-05 ( -44.13%)
   displ. norm   :     0.1563488 α      lambda       -0.3189145E-04
   maximum displ.:     0.0938536 α      in ANC's #1, #5, #2, ...

........................................................................
.............................. CYCLE   47 ..............................
........................................................................

 iter      E             dE          RMSdq      gap      omega  full diag
   1    -59.5642196 -0.595642E+02  0.423E-02    3.27       0.0  T
   2    -59.5642201 -0.455780E-06  0.256E-02    3.27       1.0  T
   3    -59.5642201 -0.694119E-08  0.313E-03    3.27       5.7  T
   4    -59.5642202 -0.164893E-06  0.141E-03    3.27      12.7  T
   5    -59.5642203 -0.141015E-07  0.618E-04    3.27      29.0  T
   6    -59.5642203 -0.365713E-08  0.211E-04    3.27      85.2  T
     SCC iter.                  ...        0 min,  0.009 sec
     gradient                   ...        0 min,  0.016 sec
 * total energy  :   -58.9647187 Eh     change       -0.2035591E-04 Eh
   gradient norm :     0.0023406 Eh/α   predicted    -0.1612151E-04 ( -20.80%)
   displ. norm   :     0.0120609 α      lambda       -0.6351175E-05
   maximum displ.:     0.0095602 α      in ANC's #1, #2, #6, ...

........................................................................
.............................. CYCLE   48 ..............................
........................................................................

 iter      E             dE          RMSdq      gap      omega  full diag
   1    -59.5644161 -0.595644E+02  0.338E-03    3.27       0.0  T
   2    -59.5644161 -0.581440E-08  0.199E-03    3.27       9.0  T
   3    -59.5644161 -0.118874E-09  0.323E-04    3.27      55.6  T
   4    -59.5644161 -0.157042E-08  0.153E-04    3.27     117.3  T
     SCC iter.                  ...        0 min,  0.006 sec
     gradient                   ...        0 min,  0.016 sec
 * total energy  :   -58.9647242 Eh     change       -0.5474323E-05 Eh
   gradient norm :     0.0014953 Eh/α   predicted    -0.3178962E-05 ( -41.93%)
   displ. norm   :     0.0627696 α      lambda       -0.1262062E-04
   maximum displ.:     0.0489046 α      in ANC's #1, #2, #6, ...

........................................................................
.............................. CYCLE   49 ..............................
........................................................................

 iter      E             dE          RMSdq      gap      omega  full diag
   1    -59.5649126 -0.595649E+02  0.153E-02    3.27       0.0  T
   2    -59.5649127 -0.900530E-07  0.901E-03    3.27       2.0  T
   3    -59.5649127 -0.104961E-07  0.116E-03    3.27      15.5  T
   4    -59.5649127 -0.168913E-07  0.625E-04    3.27      28.7  T
   5    -59.5649127 -0.210021E-08  0.408E-04    3.27      44.0  T
     SCC iter.                  ...        0 min,  0.007 sec
     gradient                   ...        0 min,  0.068 sec
 * total energy  :   -58.9647332 Eh     change       -0.8990990E-05 Eh
   gradient norm :     0.0013807 Eh/α   predicted    -0.6324238E-05 ( -29.66%)
   displ. norm   :     0.0346077 α      lambda       -0.3233485E-05
   maximum displ.:     0.0262549 α      in ANC's #1, #2, #5, ...

........................................................................
.............................. CYCLE   50 ..............................
........................................................................

 iter      E             dE          RMSdq      gap      omega  full diag
   1    -59.5647793 -0.595648E+02  0.749E-03    3.27       0.0  T
   2    -59.5647793 -0.136768E-07  0.444E-03    3.27       4.0  T
   3    -59.5647793 -0.360909E-08  0.476E-04    3.27      37.7  T
   4    -59.5647793 -0.223434E-08  0.296E-04    3.27      60.8  T
     SCC iter.                  ...        0 min,  0.006 sec
     gradient                   ...        0 min,  0.016 sec
 * total energy  :   -58.9647376 Eh     change       -0.4406768E-05 Eh
   gradient norm :     0.0009048 Eh/α   predicted    -0.1628473E-05 ( -63.05%)
   displ. norm   :     0.0519186 α      lambda       -0.5141483E-05
   maximum displ.:     0.0400213 α      in ANC's #1, #2, #6, ...

   *** GEOMETRY OPTIMIZATION CONVERGED AFTER 50 ITERATIONS ***

------------------------------------------------------------------------
 total energy gain   :        -0.0133867 Eh       -8.4003 kcal/mol
 total RMSD          :         1.6603521 a0        0.8786 Å
 total power (kW/mol):        -0.7029357 (step)  -10.9969 (real)
------------------------------------------------------------------------

 ANCopt (total)                0 d,  0 h,  0 min,  3.196 sec
 optimizer setup                ...        0 min,  0.000 sec (  0.002%)
 model hessian                  ...        0 min,  0.033 sec (  1.021%)
 ANC generation                 ...        0 min,  0.003 sec (  0.079%)
 coordinate transformation      ...        0 min,  0.000 sec (  0.007%)
 single point calculation       ...        0 min,  3.048 sec ( 95.361%)
 optimization log               ...        0 min,  0.108 sec (  3.384%)
 hessian update                 ...        0 min,  0.000 sec (  0.013%)
 rational function              ...        0 min,  0.003 sec (  0.088%)

================
 final structure:
================
31
 xtb: 6.7.1 (edcfbbe)
N            4.32586262379349        1.59994548985745       -1.39630444944396
C            3.51176167816001        0.85186506218530       -0.64238019451054
N            3.89157078438156        0.54982286107662        0.60298586476951
C            3.09115487306936       -0.18073094165707        1.35295745472657
Cl           3.65937637764035       -0.49904481433564        2.92987379189095
N            1.91621363340230       -0.69684840007273        1.06126096697260
C            1.52624028277360       -0.40794072298041       -0.18522695914576
C            2.26926809001356        0.36822424303428       -1.09244784739324
N            1.58243463006229        0.47717767837957       -2.27354573779939
C            0.49293000482841       -0.19954485298426       -2.08940844175712
N            0.38575433574192       -0.76143485714697       -0.84292431975176
C           -0.71247591704983       -1.61041308414471       -0.39275431613525
C           -0.96180369718906       -1.43805112278565        1.10182447267854
C           -1.81720227570719       -0.16585871977722        1.09288175882235
C           -2.64072505674460       -0.34456775840755       -0.19749182104078
O           -1.89311062032806       -1.22374566483515       -1.03533673400063
C           -2.94776753336576        0.98281999188974       -0.89417322642185
O           -3.89374853231046        1.72552921244767       -0.17587674654447
O           -2.68268788138726       -0.00333349624181        2.18394739756610
H            5.20835012372893        1.89558642434443       -1.01785295771038
H            4.05990005290968        1.81797535510763       -2.33909999373210
H           -0.28182247307423       -0.32101780891578       -2.81966636491937
H           -0.48878612915079       -2.64490087397664       -0.68664631425337
H           -0.03589709052685       -1.34775664897767        1.66470685818418
H           -1.55478597786713       -2.27459257786913        1.47275045046271
H           -1.15822501073714        0.71421652042887        0.99624145918692
H           -3.59194449092002       -0.83256645932507        0.05599766582795
H           -3.37703132832145        0.78821944945285       -1.87954815648861
H           -2.01468734263539        1.55381402359179       -1.02726520396867
H           -3.69939595807998        1.64956491084409        0.76697789006993
H           -2.16882017511183       -0.02221241819502        2.99924375386535

 Bond Distances (Angstroems)
 ---------------------------
N1-C2=1.3382         N1-H20=1.0047        N1-H21=1.0036        C2-N1=1.3382         C2-N3=1.3366         C2-C8=1.4072         
N3-C2=1.3366         N3-C4=1.3179         C4-N3=1.3179         C4-Cl5=1.7061        C4-N6=1.3160         Cl5-C4=1.7061        
N6-C4=1.3160         N6-C7=1.3376         C7-N6=1.3376         C7-C8=1.4063         C7-N11=1.3632        C8-C2=1.4072         
C8-C7=1.4063         C8-N9=1.3706         N9-C8=1.3706         N9-C10=1.2957        C10-N9=1.2957        C10-N11=1.3715       
C10-H22=1.0716       N11-C7=1.3632        N11-C10=1.3715       N11-C12=1.4593       C12-N11=1.4593       C12-C13=1.5250       
C12-O16=1.3987       C12-H23=1.0984       C13-C12=1.5250       C13-C14=1.5331       C13-H24=1.0873       C13-H25=1.0904       
C14-C13=1.5331       C14-C15=1.5412       C14-O19=1.4021       C14-H26=1.1037       C15-C14=1.5412       C15-O16=1.4261       
C15-C17=1.5302       C15-H27=1.0987       O16-C12=1.3987       O16-C15=1.4261       C17-C15=1.5302       C17-O18=1.4009       
C17-H28=1.0923       C17-H29=1.1020       O18-C17=1.4009       O18-H30=0.9657       O19-C14=1.4021       O19-H31=0.9639       
H20-N1=1.0047        H21-N1=1.0036        H22-C10=1.0716       H23-C12=1.0984       H24-C13=1.0873       H25-C13=1.0904       
H26-C14=1.1037       H27-C15=1.0987       H28-C17=1.0923       H29-C17=1.1020       H30-O18=0.9657       H31-O19=0.9639       
 C  H  Rav=1.0931 sigma=0.0097  Rmin=1.0716  Rmax=1.1037     8
 C  C  Rav=1.4905 sigma=0.0594  Rmin=1.4063  Rmax=1.5412     6
 N  H  Rav=1.0041 sigma=0.0006  Rmin=1.0036  Rmax=1.0047     2
 N  C  Rav=1.3507 sigma=0.0431  Rmin=1.2957  Rmax=1.4593    10
 O  H  Rav=0.9648 sigma=0.0009  Rmin=0.9639  Rmax=0.9657     2
 O  C  Rav=1.4070 sigma=0.0111  Rmin=1.3987  Rmax=1.4261     4
 Cl C  Rav=1.7061 sigma=0.0000  Rmin=1.7061  Rmax=1.7061     1

 selected bond angles (degree)
 --------------------
H20-N1-C2=119.12               H21-N1-C2=119.31               H21-N1-H20=121.52              N3-C2-N1=118.58                
C8-C2-N1=123.30                C8-C2-N3=118.11                C4-N3-C2=118.88                Cl5-C4-N3=115.28               
N6-C4-N3=129.31                N6-C4-Cl5=115.41               C7-N6-C4=112.47                C8-C7-N6=124.50                
N11-C7-N6=129.61               N11-C7-C8=105.90               C7-C8-C2=116.74                N9-C8-C2=133.69                
N9-C8-C7=109.57                C10-N9-C8=104.91               N11-C10-N9=114.13              H22-C10-N9=124.77              
H22-C10-N11=121.09             

 selected dihedral angles (degree)
 ---------------------------------
N3-C2-N1-H20=  1.51           N3-C2-N1-H21=178.79           C8-C2-N1-H20=181.28           C8-C2-N1-H21=358.57           
C4-N3-C2-N1=179.65            C4-N3-C2-C8=359.86            Cl5-C4-N3-C2=180.54           N6-C4-N3-C2=  0.37            
C7-N6-C4-N3=359.96            C7-N6-C4-Cl5=179.79           C8-C7-N6-C4=359.48            N11-C7-N6-C4=179.89           
C7-C8-C2-N1=179.87            C7-C8-C2-N3=359.65            N9-C8-C2-N1=  0.33            N9-C8-C2-N3=180.11            
C2-C8-C7-N6=  0.72            C2-C8-C7-N11=180.39           N9-C8-C7-N6=180.37            N9-C8-C7-N11=  0.04           
C10-N9-C8-C2=179.28           C10-N9-C8-C7=359.71           N11-C10-N9-C8=  0.45          H22-C10-N9-C8=179.78          
           -------------------------------------------------
          |                Final Singlepoint                |
           -------------------------------------------------

          ...................................................
          :                      SETUP                      :
          :.................................................:
          :  # basis functions                  94          :
          :  # atomic orbitals                  93          :
          :  # shells                           51          :
          :  # electrons                       102          :
          :  max. iterations                   250          :
          :  Hamiltonian                  GFN2-xTB          :
          :  restarted?                      false          :
[...]
     |                    University of Bonn                     |     
      -----------------------------------------------------------      

   * xtb version 6.7.1 (edcfbbe) compiled by 'conda@3ef47c1a292c' on 2024-11-25

   xtb is free software: you can redistribute it and/or modify it under
   the terms of the GNU Lesser General Public License as published by
   the Free Software Foundation, either version 3 of the License, or
   (at your option) any later version.
   
   xtb is distributed in the hope that it will be useful,
   but WITHOUT ANY WARRANTY; without even the implied warranty of
   MERCHANTABILITY or FITNESS FOR A PARTICULAR PURPOSE.  See the
   GNU Lesser General Public License for more details.
   
   Cite this work as:
   * C. Bannwarth, E. Caldeweyher, S. Ehlert, A. Hansen, P. Pracht,
     J. Seibert, S. Spicher, S. Grimme, WIREs Comput. Mol. Sci., 2020, 11,
     e01493. DOI: 10.1002/wcms.1493
   
   for GFN2-xTB:
   * C. Bannwarth, S. Ehlert and S. Grimme., J. Chem. Theory Comput., 2019,
     15, 1652-1671. DOI: 10.1021/acs.jctc.8b01176
   for GFN1-xTB:
   * S. Grimme, C. Bannwarth, P. Shushkov, J. Chem. Theory Comput., 2017,
     13, 1989-2009. DOI: 10.1021/acs.jctc.7b00118
   for GFN0-xTB:
   * P. Pracht, E. Caldeweyher, S. Ehlert, S. Grimme, ChemRxiv, 2019, preprint.
     DOI: 10.26434/chemrxiv.8326202.v1
   for GFN-FF:
   * S. Spicher and S. Grimme, Angew. Chem. Int. Ed., 2020, 59, 15665-15673.
     DOI: 10.1002/anie.202004239
   
   for ALPB and GBSA implicit solvation:
   * S. Ehlert, M. Stahn, S. Spicher, S. Grimme, J. Chem. Theory Comput.,
     2021, 17, 4250-4261. DOI: 10.1021/acs.jctc.1c00471
   
   for ddCOSMO and CPCM-X implicit solvation:
   * M. Stahn, S. Ehlert, S. Grimme, J. Phys. Chem. A,
     2023, XX, XXXX-XXXX. DOI: 10.1021/acs.jpca.3c04382
   
   for DFT-D4:
   * E. Caldeweyher, C. Bannwarth and S. Grimme, J. Chem. Phys., 2017,
     147, 034112. DOI: 10.1063/1.4993215
   * E. Caldeweyher, S. Ehlert, A. Hansen, H. Neugebauer, S. Spicher,
     C. Bannwarth and S. Grimme, J. Chem. Phys., 2019, 150, 154122.
     DOI: 10.1063/1.5090222
   * E. Caldeweyher, J.-M. Mewes, S. Ehlert and S. Grimme, Phys. Chem. Chem. Phys.
     2020, 22, 8499-8512. DOI: 10.1039/D0CP00502A
   
   for sTDA-xTB:
   * S. Grimme and C. Bannwarth, J. Chem. Phys., 2016, 145, 054103.
     DOI: 10.1063/1.4959605
   
   in the mass-spec context:
   * V. Asgeirsson, C. Bauer and S. Grimme, Chem. Sci., 2017, 8, 4879.
     DOI: 10.1039/c7sc00601b
   * J. Koopman and S. Grimme, ACS Omega 2019, 4, 12, 15120-15133.
     DOI: 10.1021/acsomega.9b02011
   
   for metadynamics refer to:
   * S. Grimme, J. Chem. Theory Comput., 2019, 155, 2847-2862
     DOI: 10.1021/acs.jctc.9b00143
   
   for SPH calculations refer to:
   * S. Spicher and S. Grimme, J. Chem. Theory Comput., 2021, 17, 1701-1714
     DOI: 10.1021/acs.jctc.0c01306
   
   for ONIOM refer to:
   * C. Plett, A. Katbashev, S. Ehlert, S. Grimme, M. Bursch,
     Phys. Chem. Chem. Phys., 2023, 25, 17860-17868. DOI: 10.1039/D3CP02178E
   
   for DIPRO refer to:
   * J. Kohn, N. Gildemeister, S. Grimme, D. Fazzi, A. Hansen,
     J. Chem. Phys., 2023, just accepted.
   
   for PTB refer to:
   * S. Grimme, M. Mueller, A. Hansen, J. Chem. Phys., 2023, 158, 124111.
     DOI: 10.1063/5.0137838
   
   with help from (in alphabetical order)
   P. Atkinson, C. Bannwarth, F. Bohle, G. Brandenburg, E. Caldeweyher
   M. Checinski, S. Dohm, S. Ehlert, S. Ehrlich, I. Gerasimov, C. Hölzer
   A. Katbashev, J. Kohn, J. Koopman, C. Lavigne, S. Lehtola, F. März, M. Müller,
   F. Musil, H. Neugebauer, J. Pisarek, C. Plett, P. Pracht, F. Pultar,
   J. Seibert, P. Shushkov, S. Spicher, M. Stahn, M. Steiner, T. Strunk,
   J. Stückrath, T. Rose, and J. Unsleber
   
 * started run on 2025/05/15 at 16:27:03.589     
   ID    Z sym.   atoms
    1    7 N      1, 3, 6, 9, 11
    2    6 C      2, 4, 7, 8, 10, 12-15, 17
    3   17 Cl     5
    4    8 O      16, 18, 19
    5    1 H      20-31

           -------------------------------------------------
          |                Calculation Setup                |
           -------------------------------------------------

          program call               : xtb /rds/general/user/hgt20/home/callum/QDESCP/Cladribine_rdkit_conf_19/Cladribine_rdkit_conf_19.xyz --acc 1 --gfn 2 --chrg 0 --uhf 2 --etemp 300 --input /rds/general/user/hgt20/home/callum/QDESCP/Cladribine_rdkit_conf_19/Cladribine_rdkit_conf_19_xtb.inp -P 1
          hostname                   : login-c
          coordinate file            : /rds/general/user/hgt20/home/callum/QDESCP/Cladribine_rdkit_conf_19/Cladribine_rdkit_conf_19.xyz
          omp threads                :                     1


           -------------------------------------------------
          |                 G F N 2 - x T B                 |
           -------------------------------------------------

        Reference                      10.1021/acs.jctc.8b01176
      * Hamiltonian:
        H0-scaling (s, p, d)           1.850000    2.230000    2.230000
        zeta-weighting                 0.500000
      * Dispersion:
        s8                             2.700000
        a1                             0.520000
        a2                             5.000000
        s9                             5.000000
      * Repulsion:
        kExp                           1.500000    1.000000
        rExp                           1.000000
      * Coulomb:
        alpha                          2.000000
        third order                    shell-resolved
        anisotropic                    true
        a3                             3.000000
        a5                             4.000000
        cn-shift                       1.200000
        cn-exp                         4.000000
        max-rad                        5.000000


          ...................................................
          :                      SETUP                      :
          :.................................................:
          :  # basis functions                  94          :
          :  # atomic orbitals                  93          :
          :  # shells                           51          :
          :  # electrons                       102          :
          :  max. iterations                   250          :
          :  Hamiltonian                  GFN2-xTB          :
          :  restarted?                      false          :
          :  GBSA solvation                  false          :
          :  PC potential                    false          :
          :  electronic temp.          300.0000000     K    :
          :  accuracy                    1.0000000          :
          :  -> integral cutoff          0.2500000E+02      :
          :  -> integral neglect         0.1000000E-07      :
          :  -> SCF convergence          0.1000000E-05 Eh   :
          :  -> wf. convergence          0.1000000E-03 e    :
          :  Broyden damping             0.4000000          :
          :  net charge                          0          :
          :  unpaired electrons                  2          :
          ...................................................

 iter      E             dE          RMSdq      gap      omega  full diag
   1    -59.1820948 -0.591821E+02  0.447E+00    0.36       0.0  T
   2    -59.3351089 -0.153014E+00  0.291E+00    0.83       1.0  T
   3    -59.3613031 -0.261942E-01  0.205E+00    0.57       1.0  T
   4    -59.3035329  0.577702E-01  0.170E+00    0.75       1.0  T
   5    -59.3837964 -0.802635E-01  0.113E+00    0.34       1.0  T
   6    -59.4291998 -0.454034E-01  0.443E-01    0.38       1.0  T
   7    -59.4325539 -0.335406E-02  0.249E-01    0.38       1.0  T
   8    -59.4343307 -0.177679E-02  0.124E-01    0.39       1.0  T
   9    -59.4346131 -0.282403E-03  0.767E-02    0.39       1.0  T
  10    -59.4346402 -0.271538E-04  0.525E-02    0.38       1.0  T
  11    -59.4347040 -0.637184E-04  0.288E-02    0.39       1.0  T
  12    -59.4347010  0.293365E-05  0.296E-02    0.38       1.0  T
  13    -59.4347108 -0.978076E-05  0.218E-02    0.39       1.0  T
  14    -59.4347199 -0.911373E-05  0.856E-03    0.38       2.1  T
  15    -59.4347215 -0.154848E-05  0.318E-03    0.38       5.6  T
  16    -59.4347215 -0.484739E-08  0.293E-03    0.38       6.1  T
  17    -59.4347217 -0.216591E-06  0.880E-04    0.38      20.4  T
  18    -59.4347217 -0.423407E-08  0.660E-04    0.38      27.2  T

   *** convergence criteria satisfied after 18 iterations ***

         #    Occupation            Energy/Eh            Energy/eV
      -------------------------------------------------------------
         1        2.0000           -1.0589287             -28.8149
       ...           ...                  ...                  ...
        46        2.0000           -0.4283543             -11.6561
        47        2.0000           -0.4261935             -11.5973
        48        2.0000           -0.4192390             -11.4081
        49        2.0000           -0.4157060             -11.3119
        50        1.5487           -0.3964780             -10.7887
        51        1.4513           -0.3961064             -10.7786
        52        0.9994           -0.2584908              -7.0339 (HOMO)
        53        0.0006           -0.2443635              -6.6495 (LUMO)
        54                         -0.2069114              -5.6303
        55                         -0.1400603              -3.8112
        56                         -0.1150713              -3.1312
        57                         -0.0491350              -1.3370
       ...                                ...                  ...
        93                          0.6404685              17.4280
      -------------------------------------------------------------
                  HL-Gap            0.0141273 Eh            0.3844 eV
             Fermi-level           -0.3238597 Eh           -8.8127 eV

 transition dipole moment (au) for excitation:          51          52
     X       Y       Z   
   0.2329   0.0816   0.0387  total (au/Debye):    0.250   0.635
 dE (eV)             :    3.745
 oscillator strength :  0.80973E-02

 SCC (total)                   0 d,  0 h,  0 min,  0.112 sec
 SCC setup                      ...        0 min,  0.000 sec (  0.224%)
 Dispersion                     ...        0 min,  0.000 sec (  0.247%)
 classical contributions        ...        0 min,  0.000 sec (  0.076%)
 integral evaluation            ...        0 min,  0.006 sec (  5.269%)
 iterations                     ...        0 min,  0.084 sec ( 75.145%)
 molecular gradient             ...        0 min,  0.016 sec ( 13.856%)
 printout                       ...        0 min,  0.006 sec (  5.178%)

         :::::::::::::::::::::::::::::::::::::::::::::::::::::
         ::                     SUMMARY                     ::
         :::::::::::::::::::::::::::::::::::::::::::::::::::::
         :: total energy             -58.834679939993 Eh    ::
         :: gradient norm              0.129587546940 Eh/a0 ::
         :: HOMO-LUMO gap              0.384423622216 eV    ::
         ::.................................................::
         :: SCC energy               -59.434305772089 Eh    ::
         :: -> isotropic ES            0.103214097917 Eh    ::
         :: -> anisotropic ES         -0.002075338976 Eh    ::
         :: -> anisotropic XC          0.010350156998 Eh    ::
         :: -> dispersion             -0.034320934862 Eh    ::
         :: repulsion energy           0.599625832095 Eh    ::
         :: add. restraining           0.000000000000 Eh    ::
         :: total charge              -0.000000000000 e     ::
         :::::::::::::::::::::::::::::::::::::::::::::::::::::

           -------------------------------------------------
          |                Property Printout                |
           -------------------------------------------------

    * Orbital Energies and Occupations

         #    Occupation            Energy/Eh            Energy/eV
      -------------------------------------------------------------
         1        2.0000           -1.0589287             -28.8149
       ...           ...                  ...                  ...
        40        2.0000           -0.4595685             -12.5055
        41        2.0000           -0.4567682             -12.4293
        42        2.0000           -0.4495888             -12.2339
        43        2.0000           -0.4447317             -12.1018
        44        2.0000           -0.4401730             -11.9777
        45        2.0000           -0.4354846             -11.8501
        46        2.0000           -0.4283543             -11.6561
        47        2.0000           -0.4261935             -11.5973
        48        2.0000           -0.4192390             -11.4081
        49        2.0000           -0.4157060             -11.3119
        50        1.5487           -0.3964780             -10.7887
        51        1.4513           -0.3961064             -10.7786
        52        0.9994           -0.2584908              -7.0339 (HOMO)
        53        0.0006           -0.2443635              -6.6495 (LUMO)
        54                         -0.2069114              -5.6303
        55                         -0.1400603              -3.8112
        56                         -0.1150713              -3.1312
        57                         -0.0491350              -1.3370
        58                         -0.0300525              -0.8178
        59                         -0.0017172              -0.0467
        60                          0.0075869               0.2064
        61                          0.0143218               0.3897
        62                          0.0144622               0.3935
        63                          0.0148311               0.4036
       ...                                ...                  ...
        93                          0.6404685              17.4280
      -------------------------------------------------------------
                  HL-Gap            0.0141273 Eh            0.3844 eV
             Fermi-level           -0.3238597 Eh           -8.8127 eV

     #   Z          covCN         q      C6AA      α(0)
     1   7 N        2.647    -0.226    25.942     7.565
     2   6 C        2.882     0.120    25.362     8.256
     3   7 N        1.927    -0.256    27.507     7.777
     4   6 C        2.911     0.226    23.263     7.909
     5  17 Cl       1.051    -0.124   103.025    15.529
     6   7 N        1.908    -0.289    28.344     7.893
     7   6 C        3.161     0.141    24.642     8.114
     8   6 C        3.226     0.032    26.512     8.365
     9   7 N        1.882    -0.246    27.265     7.741
    10   6 C        3.187     0.077    25.840     8.294
    11   7 N        2.825    -0.080    22.785     7.089
    12   6 C        3.740     0.179    17.819     6.023
    13   6 C        3.822    -0.095    22.294     6.719
    14   6 C        3.755     0.116    18.739     6.172
    15   6 C        3.787     0.089    19.121     6.228
    16   8 O        1.702    -0.316    19.274     5.927
    17   6 C        3.674     0.072    19.606     6.345
    18   8 O        1.656    -0.431    21.467     6.255
    19   8 O        1.656    -0.443    21.695     6.288
    20   1 H        0.860     0.202     1.098     1.641
    21   1 H        0.861     0.200     1.108     1.649
    22   1 H        0.926     0.057     2.231     2.336
    23   1 H        0.923     0.058     2.227     2.334
    24   1 H        0.925     0.082     1.959     2.189
    25   1 H        0.924     0.066     2.128     2.281
    26   1 H        0.923     0.018     2.769     2.602
    27   1 H        0.923     0.069     2.101     2.267
    28   1 H        0.924     0.067     2.118     2.276
    29   1 H        0.923     0.027     2.628     2.535
    30   1 H        0.805     0.305     0.707     1.321
    31   1 H        0.805     0.305     0.706     1.319

 Mol. C6AA /au·bohr⁶  :      12591.343207
 Mol. C8AA /au·bohr⁸  :     307972.432280
 Mol. α(0) /au        :        169.239529


Wiberg/Mayer (AO) data.
largest (>0.10) Wiberg bond orders for each atom

 ---------------------------------------------------------------------------
     #   Z sym  total        # sym  WBO       # sym  WBO       # sym  WBO
 ---------------------------------------------------------------------------
     1   7 N    3.272 --     2 C    1.223    21 H    0.944    20 H    0.941
     2   6 C    3.865 --     3 N    1.280     1 N    1.223     8 C    1.092
     3   7 N    3.044 --     4 C    1.405     2 C    1.280
     4   6 C    3.842 --     3 N    1.405     6 N    1.198     5 Cl   0.988
     5  17 Cl   1.145 --     4 C    0.988
     6   7 N    2.877 --     7 C    1.285     4 C    1.198
     7   6 C    3.902 --     6 N    1.285     8 C    1.218    11 N    1.189
     8   6 C    3.831 --     9 N    1.308     7 C    1.218     2 C    1.092
     9   7 N    3.014 --    10 C    1.397     8 C    1.308
    10   6 C    3.804 --     9 N    1.397    11 N    1.159    22 H    0.962
    11   7 N    3.572 --     7 C    1.189    10 C    1.159    12 C    0.946
    12   6 C    3.942 --    16 O    0.998    13 C    0.986    23 H    0.947
                            11 N    0.946
    13   6 C    3.983 --    12 C    0.986    14 C    0.983    25 H    0.972
                            24 H    0.958
    14   6 C    3.958 --    19 O    1.001    13 C    0.983    15 C    0.971
                            26 H    0.958
    15   6 C    3.939 --    17 C    0.981    14 C    0.971    16 O    0.957
                            27 H    0.956
    16   8 O    2.090 --    12 C    0.998    15 C    0.957
    17   6 C    3.961 --    18 O    1.014    15 C    0.981    28 H    0.968
                            29 H    0.964
    18   8 O    1.964 --    17 C    1.014    30 H    0.888
    19   8 O    1.965 --    14 C    1.001    31 H    0.890
    20   1 H    0.957 --     1 N    0.941
    21   1 H    0.959 --     1 N    0.944
    22   1 H    0.996 --    10 C    0.962
    23   1 H    0.994 --    12 C    0.947
    24   1 H    0.993 --    13 C    0.958
    25   1 H    0.995 --    13 C    0.972
    26   1 H    1.000 --    14 C    0.958
    27   1 H    0.995 --    15 C    0.956
    28   1 H    0.995 --    17 C    0.968
    29   1 H    0.999 --    17 C    0.964
    30   1 H    0.907 --    18 O    0.888
    31   1 H    0.907 --    19 O    0.890
 ---------------------------------------------------------------------------

Topologies differ in total number of bonds
Writing topology from bond orders to xtbtopo.mol

molecular dipole:
                 x           y           z       tot (Debye)
 q only:        0.365       0.146      -0.362
   full:        0.591      -0.093      -0.282       1.680
molecular quadrupole (traceless):
                xx          xy          yy          xz          yz          zz
 q only:       -3.707      13.456       3.089     -18.135      -2.126       0.617
  q+dip:       -8.053      17.234       7.923     -20.467      -0.503       0.129
   full:       -8.600      15.045       7.831     -21.039       0.365       0.770


           -------------------------------------------------
          | TOTAL ENERGY              -58.834679939993 Eh   |
          | GRADIENT NORM               0.129587546940 Eh/α |
          | HOMO-LUMO GAP               0.384423622216 eV   |
           -------------------------------------------------

------------------------------------------------------------------------
 * finished run on 2025/05/15 at 16:27:03.713     
------------------------------------------------------------------------
 total:
 * wall-time:     0 d,  0 h,  0 min,  0.124 sec
 *  cpu-time:     0 d,  0 h,  0 min,  0.065 sec
 * ratio c/w:     0.525 speedup
 SCF:
 * wall-time:     0 d,  0 h,  0 min,  0.113 sec
 *  cpu-time:     0 d,  0 h,  0 min,  0.055 sec
 * ratio c/w:     0.491 speedup


