33
 energy: -45.171883424455 gnorm: 0.000921929852 xtb: 6.7.1 (edcfbbe)
C            2.97798944233173        0.98728095423464        1.08194470225401
C            3.07034119338847        0.48261218311749       -0.35501578221355
C            2.34058051026454       -0.86327245145835       -0.50765675157031
C            0.86691951763924       -0.72705884939856       -0.25948887441169
C            0.28958048437581       -1.16337147051137        0.92493954891665
C           -1.06521417926294       -1.00249918774452        1.15647101276388
C           -1.87687768338070       -0.40314152381960        0.20473987553285
C           -3.36406793511968       -0.24784587118254        0.44584861091237
C           -3.68472568519336        1.22601285424021        0.32399376441332
O           -3.60433255274986        1.84637283688168        1.50916164772018
O           -3.94486354703075        1.81036506931847       -0.69245715090980
C           -4.17793544319184       -1.06459163592932       -0.55831550380468
C           -1.30347014991331        0.03921437731182       -0.98150870440414
C            0.04931480274614       -0.12306571997888       -1.20821740797620
C            4.52998754458449        0.34143841484324       -0.77835633075006
H            1.93863516238562        1.09067470763774        1.38545396413449
H            3.46881513031687        0.29202083922059        1.76030435493009
H            3.46234174451779        1.95671755273163        1.17627387138915
H            2.58341588378155        1.21262701510823       -1.01100600173865
H            2.50295697025285       -1.23564898866545       -1.52217452723821
H            2.77204661666597       -1.58252299644607        0.19141692012107
H            0.90519044526198       -1.63590100129368        1.67712721796272
H           -1.49373508366475       -1.34905435822727        2.08616665536284
H           -3.59269294021083       -0.55929249667603        1.46847217926401
H           -3.76683377762191        2.79761649697176        1.40649094484283
H           -4.04355482341375       -0.66482638416281       -1.55948801268855
H           -3.85185172620517       -2.10159622395244       -0.54410002367083
H           -5.23612558412118       -1.02258786801687       -0.31053788266486
H           -1.91998243208261        0.52162744931430       -1.72511709909435
H            0.47943308389070        0.22230010852018       -2.13756292528956
H            5.03912264917818       -0.38597038568023       -0.14918723192032
H            4.60289452776449        0.01121240041400       -1.81237290620037
H            5.04649783381862        1.29425415327624       -0.68634215397227
