----- Optimization -----
      -----------------------------------------------------------      
     |                   =====================                   |     
     |                           x T B                           |     
     |                   =====================                   |     
     |                         S. Grimme                         |     
     |          Mulliken Center for Theoretical Chemistry        |     
     |                    University of Bonn                     |     
      -----------------------------------------------------------      

   * xtb version 6.7.1 (edcfbbe) compiled by 'conda@3ef47c1a292c' on 2024-11-25

   xtb is free software: you can redistribute it and/or modify it under
   the terms of the GNU Lesser General Public License as published by
   the Free Software Foundation, either version 3 of the License, or
   (at your option) any later version.
   
   xtb is distributed in the hope that it will be useful,
   but WITHOUT ANY WARRANTY; without even the implied warranty of
   MERCHANTABILITY or FITNESS FOR A PARTICULAR PURPOSE.  See the
   GNU Lesser General Public License for more details.
   
   Cite this work as:
   * C. Bannwarth, E. Caldeweyher, S. Ehlert, A. Hansen, P. Pracht,
     J. Seibert, S. Spicher, S. Grimme, WIREs Comput. Mol. Sci., 2020, 11,
     e01493. DOI: 10.1002/wcms.1493
   
   for GFN2-xTB:
   * C. Bannwarth, S. Ehlert and S. Grimme., J. Chem. Theory Comput., 2019,
     15, 1652-1671. DOI: 10.1021/acs.jctc.8b01176
   for GFN1-xTB:
   * S. Grimme, C. Bannwarth, P. Shushkov, J. Chem. Theory Comput., 2017,
     13, 1989-2009. DOI: 10.1021/acs.jctc.7b00118
   for GFN0-xTB:
   * P. Pracht, E. Caldeweyher, S. Ehlert, S. Grimme, ChemRxiv, 2019, preprint.
     DOI: 10.26434/chemrxiv.8326202.v1
   for GFN-FF:
   * S. Spicher and S. Grimme, Angew. Chem. Int. Ed., 2020, 59, 15665-15673.
     DOI: 10.1002/anie.202004239
   
   for ALPB and GBSA implicit solvation:
   * S. Ehlert, M. Stahn, S. Spicher, S. Grimme, J. Chem. Theory Comput.,
     2021, 17, 4250-4261. DOI: 10.1021/acs.jctc.1c00471
   
   for ddCOSMO and CPCM-X implicit solvation:
   * M. Stahn, S. Ehlert, S. Grimme, J. Phys. Chem. A,
     2023, XX, XXXX-XXXX. DOI: 10.1021/acs.jpca.3c04382
   
   for DFT-D4:
   * E. Caldeweyher, C. Bannwarth and S. Grimme, J. Chem. Phys., 2017,
     147, 034112. DOI: 10.1063/1.4993215
   * E. Caldeweyher, S. Ehlert, A. Hansen, H. Neugebauer, S. Spicher,
     C. Bannwarth and S. Grimme, J. Chem. Phys., 2019, 150, 154122.
     DOI: 10.1063/1.5090222
   * E. Caldeweyher, J.-M. Mewes, S. Ehlert and S. Grimme, Phys. Chem. Chem. Phys.
     2020, 22, 8499-8512. DOI: 10.1039/D0CP00502A
   
   for sTDA-xTB:
   * S. Grimme and C. Bannwarth, J. Chem. Phys., 2016, 145, 054103.
     DOI: 10.1063/1.4959605
   
   in the mass-spec context:
   * V. Asgeirsson, C. Bauer and S. Grimme, Chem. Sci., 2017, 8, 4879.
     DOI: 10.1039/c7sc00601b
   * J. Koopman and S. Grimme, ACS Omega 2019, 4, 12, 15120-15133.
     DOI: 10.1021/acsomega.9b02011
   
   for metadynamics refer to:
   * S. Grimme, J. Chem. Theory Comput., 2019, 155, 2847-2862
     DOI: 10.1021/acs.jctc.9b00143
   
   for SPH calculations refer to:
   * S. Spicher and S. Grimme, J. Chem. Theory Comput., 2021, 17, 1701-1714
     DOI: 10.1021/acs.jctc.0c01306
   
   for ONIOM refer to:
   * C. Plett, A. Katbashev, S. Ehlert, S. Grimme, M. Bursch,
     Phys. Chem. Chem. Phys., 2023, 25, 17860-17868. DOI: 10.1039/D3CP02178E
   
   for DIPRO refer to:
   * J. Kohn, N. Gildemeister, S. Grimme, D. Fazzi, A. Hansen,
     J. Chem. Phys., 2023, just accepted.
   
   for PTB refer to:
   * S. Grimme, M. Mueller, A. Hansen, J. Chem. Phys., 2023, 158, 124111.
     DOI: 10.1063/5.0137838
   
   with help from (in alphabetical order)
   P. Atkinson, C. Bannwarth, F. Bohle, G. Brandenburg, E. Caldeweyher
   M. Checinski, S. Dohm, S. Ehlert, S. Ehrlich, I. Gerasimov, C. Hölzer
   A. Katbashev, J. Kohn, J. Koopman, C. Lavigne, S. Lehtola, F. März, M. Müller,
   F. Musil, H. Neugebauer, J. Pisarek, C. Plett, P. Pracht, F. Pultar,
   J. Seibert, P. Shushkov, S. Spicher, M. Stahn, M. Steiner, T. Strunk,
   J. Stückrath, T. Rose, and J. Unsleber
   
 * started run on 2025/05/15 at 16:27:46.691     
   ID    Z sym.   atoms
    1    7 N      1, 3, 6, 9, 11
    2    6 C      2, 4, 7, 8, 10, 12-15, 17
    3   17 Cl     5
    4    8 O      16, 18, 19
    5    1 H      20-31

           -------------------------------------------------
          |                Calculation Setup                |
           -------------------------------------------------

          program call               : xtb /rds/general/user/hgt20/home/callum/QDESCP/Cladribine_rdkit_conf_2/Cladribine_rdkit_conf_2.xyz --opt normal --acc 1 --gfn 2 --chrg 0 --uhf 0 -P 1
          hostname                   : login-c
          coordinate file            : /rds/general/user/hgt20/home/callum/QDESCP/Cladribine_rdkit_conf_2/Cladribine_rdkit_conf_2.xyz
          omp threads                :                     1


           -------------------------------------------------
          |                 G F N 2 - x T B                 |
           -------------------------------------------------

        Reference                      10.1021/acs.jctc.8b01176
      * Hamiltonian:
        H0-scaling (s, p, d)           1.850000    2.230000    2.230000
        zeta-weighting                 0.500000
      * Dispersion:
        s8                             2.700000
        a1                             0.520000
        a2                             5.000000
        s9                             5.000000
      * Repulsion:
        kExp                           1.500000    1.000000
        rExp                           1.000000
      * Coulomb:
        alpha                          2.000000
        third order                    shell-resolved
        anisotropic                    true
        a3                             3.000000
        a5                             4.000000
        cn-shift                       1.200000
        cn-exp                         4.000000
        max-rad                        5.000000


          ...................................................
          :                      SETUP                      :
          :.................................................:
          :  # basis functions                  94          :
          :  # atomic orbitals                  93          :
          :  # shells                           51          :
          :  # electrons                       102          :
          :  max. iterations                   250          :
          :  Hamiltonian                  GFN2-xTB          :
          :  restarted?                      false          :
          :  GBSA solvation                  false          :
          :  PC potential                    false          :
          :  electronic temp.          300.0000000     K    :
          :  accuracy                    1.0000000          :
          :  -> integral cutoff          0.2500000E+02      :
          :  -> integral neglect         0.1000000E-07      :
          :  -> SCF convergence          0.1000000E-05 Eh   :
          :  -> wf. convergence          0.1000000E-03 e    :
          :  Broyden damping             0.4000000          :
          :  net charge                          0          :
          :  unpaired electrons                  0          :
          ...................................................

 iter      E             dE          RMSdq      gap      omega  full diag
   1    -59.3788025 -0.593788E+02  0.446E+00    2.96       0.0  T
   2    -59.4992136 -0.120411E+00  0.270E+00    3.29       1.0  T
   3    -59.5113076 -0.120940E-01  0.130E+00    3.14       1.0  T
   4    -59.5167558 -0.544819E-02  0.289E-01    3.05       1.0  T
   5    -59.5180962 -0.134037E-02  0.121E-01    3.04       1.0  T
   6    -59.5182627 -0.166529E-03  0.495E-02    3.04       1.0  T
   7    -59.5182859 -0.232340E-04  0.261E-02    3.05       1.0  T
   8    -59.5182886 -0.271350E-05  0.961E-03    3.05       1.9  T
   9    -59.5182896 -0.972494E-06  0.611E-03    3.05       2.9  T
  10    -59.5182899 -0.276580E-06  0.413E-03    3.05       4.4  T
  11    -59.5182900 -0.145541E-06  0.273E-03    3.05       6.6  T
  12    -59.5182901 -0.863122E-07  0.166E-03    3.05      10.8  T
  13    -59.5182902 -0.365012E-07  0.626E-04    3.05      28.7  T
  14    -59.5182902 -0.354155E-08  0.337E-04    3.05      53.3  T

   *** convergence criteria satisfied after 14 iterations ***

         #    Occupation            Energy/Eh            Energy/eV
      -------------------------------------------------------------
         1        2.0000           -1.0565898             -28.7513
       ...           ...                  ...                  ...
        45        2.0000           -0.4277994             -11.6410
        46        2.0000           -0.4258977             -11.5893
        47        2.0000           -0.4228904             -11.5074
        48        2.0000           -0.4131764             -11.2431
        49        2.0000           -0.4018140             -10.9339
        50        2.0000           -0.3999408             -10.8829
        51        2.0000           -0.3914107             -10.6508 (HOMO)
        52                         -0.2793771              -7.6022 (LUMO)
        53                         -0.2516860              -6.8487
        54                         -0.2213585              -6.0235
        55                         -0.1435309              -3.9057
        56                         -0.1266790              -3.4471
       ...                                ...                  ...
        93                          0.6148879              16.7320
      -------------------------------------------------------------
                  HL-Gap            0.1120336 Eh            3.0486 eV
             Fermi-level           -0.3353939 Eh           -9.1265 eV

 SCC (total)                   0 d,  0 h,  0 min,  0.093 sec
 SCC setup                      ...        0 min,  0.000 sec (  0.291%)
 Dispersion                     ...        0 min,  0.000 sec (  0.279%)
 classical contributions        ...        0 min,  0.000 sec (  0.091%)
 integral evaluation            ...        0 min,  0.006 sec (  6.458%)
 iterations                     ...        0 min,  0.021 sec ( 23.071%)
 molecular gradient             ...        0 min,  0.064 sec ( 69.662%)
 printout                       ...        0 min,  0.000 sec (  0.141%)

         :::::::::::::::::::::::::::::::::::::::::::::::::::::
         ::                     SUMMARY                     ::
         :::::::::::::::::::::::::::::::::::::::::::::::::::::
         :: total energy             -58.955004986610 Eh    ::
         :: gradient norm              0.093869013665 Eh/a0 ::
         :: HOMO-LUMO gap              3.048589718678 eV    ::
         ::.................................................::
         :: SCC energy               -59.517967926707 Eh    ::
         :: -> isotropic ES            0.115267354455 Eh    ::
         :: -> anisotropic ES         -0.000616680418 Eh    ::
         :: -> anisotropic XC          0.019895789311 Eh    ::
         :: -> dispersion             -0.034905733573 Eh    ::
         :: repulsion energy           0.562962940097 Eh    ::
         :: add. restraining           0.000000000000 Eh    ::
         :: total charge               0.000000000000 e     ::
         :::::::::::::::::::::::::::::::::::::::::::::::::::::

      ----------------------------------------------------------- 
     |                   =====================                   |
     |                        A N C O P T                        |
     |                   =====================                   |
     |               Approximate Normal Coordinate               |
     |                Rational Function Optimizer                |
      ----------------------------------------------------------- 
      ----------------------------------------------------------- 
     |                   =====================                   |
     |                        A N C O P T                        |
     |                   =====================                   |
     |               Approximate Normal Coordinate               |
     |                Rational Function Optimizer                |
      ----------------------------------------------------------- 

          ...................................................
          :                      SETUP                      :
          :.................................................:
          :   optimization level            normal          :
          :   max. optcycles                   200          :
          :   ANC micro-cycles                  20          :
          :   degrees of freedom                87          :
          :.................................................:
          :   RF solver                   davidson          :
          :   write xtbopt.log                true          :
          :   linear?                        false          :
          :   energy convergence         0.5000000E-05 Eh   :
          :   grad. convergence          0.1000000E-02 Eh/α :
          :   maxmium RF displ.          1.0000000          :
          :   Hlow (freq-cutoff)         0.1000000E-01      :
          :   Hmax (freq-cutoff)         5.0000000          :
          :   S6 in model hess.         20.0000000          :
          ...................................................

generating ANC from exact Hessian ...
Using Lindh-Hessian (1995)
 Shifting diagonal of input Hessian by    8.9066834199039435E-003
 Lowest  eigenvalues of input Hessian
    0.000000    0.000000    0.000000    0.000000    0.000000    0.000000
    0.010000    0.010121    0.012148    0.014844    0.016542    0.016940
    0.017541    0.019291    0.019455    0.022295    0.027703    0.029050
 Highest eigenvalues
    1.782244    1.920307    2.061692    2.091848    2.170589    2.283918


........................................................................
.............................. CYCLE    1 ..............................
........................................................................

 iter      E             dE          RMSdq      gap      omega  full diag
   1    -59.5182902 -0.595183E+02  0.212E-04    3.05       0.0  T
   2    -59.5182902 -0.203983E-09  0.176E-04    3.05     101.8  T
   3    -59.5182902 -0.130576E-09  0.135E-04    3.05     133.3  T
     SCC iter.                  ...        0 min,  0.005 sec
     gradient                   ...        0 min,  0.015 sec
 * total energy  :   -58.9550050 Eh     change       -0.1466645E-08 Eh
   gradient norm :     0.0938696 Eh/α   predicted     0.0000000E+00 (-100.00%)
   displ. norm   :     0.2580828 α      lambda       -0.1220910E-01
   maximum displ.:     0.0832045 α      in ANC's #17, #9, #18, ...

........................................................................
.............................. CYCLE    2 ..............................
........................................................................

 iter      E             dE          RMSdq      gap      omega  full diag
   1    -59.5494314 -0.595494E+02  0.230E-01    3.16       0.0  T
   2    -59.5495952 -0.163806E-03  0.136E-01    3.13       1.0  T
   3    -59.5496044 -0.918214E-05  0.748E-02    3.15       1.0  T
   4    -59.5496508 -0.464562E-04  0.187E-02    3.14       1.0  T
   5    -59.5496566 -0.570108E-05  0.101E-02    3.14       1.8  T
   6    -59.5496571 -0.584183E-06  0.756E-03    3.14       2.4  T
   7    -59.5496576 -0.485732E-06  0.554E-03    3.14       3.2  T
   8    -59.5496581 -0.439059E-06  0.265E-03    3.14       6.8  T
   9    -59.5496581 -0.817231E-07  0.139E-03    3.14      12.9  T
  10    -59.5496582 -0.265937E-07  0.515E-04    3.14      34.8  T
  11    -59.5496582 -0.266758E-08  0.274E-04    3.14      65.4  T
     SCC iter.                  ...        0 min,  0.016 sec
     gradient                   ...        0 min,  0.015 sec
 * total energy  :   -58.9635080 Eh     change       -0.8502995E-02 Eh
   gradient norm :     0.0435101 Eh/α   predicted    -0.6513007E-02 ( -23.40%)
   displ. norm   :     0.2165940 α      lambda       -0.4253218E-02
   maximum displ.:     0.0945916 α      in ANC's #3, #9, #17, ...

........................................................................
.............................. CYCLE    3 ..............................
........................................................................

 iter      E             dE          RMSdq      gap      omega  full diag
   1    -59.5661304 -0.595661E+02  0.168E-01    3.22       0.0  T
   2    -59.5662711 -0.140678E-03  0.960E-02    3.19       1.0  T
   3    -59.5662934 -0.223229E-04  0.543E-02    3.20       1.0  T
   4    -59.5663096 -0.162020E-04  0.155E-02    3.20       1.2  T
   5    -59.5663137 -0.414923E-05  0.681E-03    3.20       2.6  T
   6    -59.5663140 -0.268012E-06  0.476E-03    3.20       3.8  T
   7    -59.5663142 -0.180847E-06  0.357E-03    3.20       5.0  T
   8    -59.5663144 -0.161615E-06  0.196E-03    3.20       9.2  T
   9    -59.5663144 -0.474565E-07  0.102E-03    3.20      17.7  T
  10    -59.5663144 -0.157747E-07  0.381E-04    3.20      47.1  T
  11    -59.5663144 -0.136644E-08  0.197E-04    3.20      91.4  T
     SCC iter.                  ...        0 min,  0.016 sec
     gradient                   ...        0 min,  0.054 sec
 * total energy  :   -58.9659319 Eh     change       -0.2423926E-02 Eh
   gradient norm :     0.0131621 Eh/α   predicted    -0.2227367E-02 (  -8.11%)
   displ. norm   :     0.1374278 α      lambda       -0.6035312E-03
   maximum displ.:     0.0975326 α      in ANC's #3, #9, #17, ...

........................................................................
.............................. CYCLE    4 ..............................
........................................................................

 iter      E             dE          RMSdq      gap      omega  full diag
   1    -59.5657680 -0.595658E+02  0.612E-02    3.21       0.0  T
   2    -59.5657795 -0.114957E-04  0.343E-02    3.20       1.0  T
   3    -59.5657787  0.833214E-06  0.179E-02    3.21       1.0  T
   4    -59.5657822 -0.352320E-05  0.454E-03    3.20       4.0  T
   5    -59.5657826 -0.399540E-06  0.211E-03    3.20       8.5  T
   6    -59.5657827 -0.243058E-07  0.111E-03    3.20      16.2  T
   7    -59.5657827 -0.923789E-08  0.714E-04    3.20      25.2  T
   8    -59.5657827 -0.393999E-08  0.453E-04    3.20      39.6  T
     SCC iter.                  ...        0 min,  0.012 sec
     gradient                   ...        0 min,  0.015 sec
 * total energy  :   -58.9663997 Eh     change       -0.4678197E-03 Eh
   gradient norm :     0.0107187 Eh/α   predicted    -0.3074841E-03 ( -34.27%)
   displ. norm   :     0.2472307 α      lambda       -0.6897154E-03
   maximum displ.:     0.1990163 α      in ANC's #3, #17, #9, ...

........................................................................
.............................. CYCLE    5 ..............................
........................................................................

 iter      E             dE          RMSdq      gap      omega  full diag
   1    -59.5634445 -0.595634E+02  0.934E-02    3.22       0.0  T
   2    -59.5634635 -0.189749E-04  0.539E-02    3.21       1.0  T
   3    -59.5634579  0.556706E-05  0.255E-02    3.21       1.0  T
   4    -59.5634688 -0.109433E-04  0.632E-03    3.21       2.8  T
   5    -59.5634695 -0.638231E-06  0.326E-03    3.21       5.5  T
   6    -59.5634695 -0.560944E-07  0.180E-03    3.21      10.0  T
   7    -59.5634696 -0.252040E-07  0.129E-03    3.21      13.9  T
   8    -59.5634696 -0.153542E-07  0.851E-04    3.21      21.1  T
   9    -59.5634696 -0.879385E-08  0.455E-04    3.21      39.5  T
     SCC iter.                  ...        0 min,  0.013 sec
     gradient                   ...        0 min,  0.015 sec
 * total energy  :   -58.9668586 Eh     change       -0.4588438E-03 Eh
   gradient norm :     0.0085302 Eh/α   predicted    -0.3659453E-03 ( -20.25%)
   displ. norm   :     0.2027982 α      lambda       -0.2994117E-03
   maximum displ.:     0.1730547 α      in ANC's #3, #1, #4, ...

........................................................................
.............................. CYCLE    6 ..............................
........................................................................

 iter      E             dE          RMSdq      gap      omega  full diag
   1    -59.5632306 -0.595632E+02  0.638E-02    3.22       0.0  T
   2    -59.5632369 -0.637881E-05  0.374E-02    3.22       1.0  T
   3    -59.5632335  0.341999E-05  0.158E-02    3.22       1.1  T
   4    -59.5632388 -0.532557E-05  0.387E-03    3.22       4.6  T
   5    -59.5632391 -0.235531E-06  0.195E-03    3.22       9.2  T
   6    -59.5632391 -0.164886E-07  0.956E-04    3.22      18.8  T
   7    -59.5632391 -0.691885E-08  0.687E-04    3.22      26.2  T
     SCC iter.                  ...        0 min,  0.010 sec
     gradient                   ...        0 min,  0.054 sec
 * total energy  :   -58.9670901 Eh     change       -0.2315371E-03 Eh
   gradient norm :     0.0071997 Eh/α   predicted    -0.1558635E-03 ( -32.68%)
   displ. norm   :     0.2354903 α      lambda       -0.2927747E-03
   maximum displ.:     0.1951467 α      in ANC's #3, #1, #2, ...

........................................................................
.............................. CYCLE    7 ..............................
........................................................................

 iter      E             dE          RMSdq      gap      omega  full diag
   1    -59.5645055 -0.595645E+02  0.694E-02    3.23       0.0  T
   2    -59.5645112 -0.570952E-05  0.411E-02    3.23       1.0  T
   3    -59.5645075  0.371903E-05  0.149E-02    3.23       1.2  T
   4    -59.5645128 -0.538016E-05  0.380E-03    3.23       4.7  T
   5    -59.5645131 -0.222769E-06  0.194E-03    3.23       9.3  T
   6    -59.5645131 -0.165375E-07  0.872E-04    3.23      20.6  T
   7    -59.5645131 -0.536102E-08  0.629E-04    3.23      28.6  T
     SCC iter.                  ...        0 min,  0.010 sec
     gradient                   ...        0 min,  0.015 sec
 * total energy  :   -58.9673137 Eh     change       -0.2236094E-03 Eh
   gradient norm :     0.0045726 Eh/α   predicted    -0.1545541E-03 ( -30.88%)
   displ. norm   :     0.2546136 α      lambda       -0.2119876E-03
   maximum displ.:     0.2018868 α      in ANC's #3, #1, #2, ...

........................................................................
.............................. CYCLE    8 ..............................
........................................................................

 iter      E             dE          RMSdq      gap      omega  full diag
   1    -59.5656667 -0.595657E+02  0.726E-02    3.24       0.0  T
   2    -59.5656716 -0.495454E-05  0.429E-02    3.24       1.0  T
   3    -59.5656685  0.309419E-05  0.136E-02    3.24       1.3  T
   4    -59.5656730 -0.450965E-05  0.374E-03    3.24       4.8  T
   5    -59.5656732 -0.198955E-06  0.204E-03    3.24       8.8  T
   6    -59.5656732 -0.195537E-07  0.995E-04    3.24      18.0  T
   7    -59.5656733 -0.700246E-08  0.728E-04    3.24      24.7  T
     SCC iter.                  ...        0 min,  0.061 sec
     gradient                   ...        0 min,  0.015 sec
 * total energy  :   -58.9674594 Eh     change       -0.1457289E-03 Eh
   gradient norm :     0.0037335 Eh/α   predicted    -0.1128663E-03 ( -22.55%)
   displ. norm   :     0.1785224 α      lambda       -0.8879612E-04
   maximum displ.:     0.1324871 α      in ANC's #3, #1, #2, ...

........................................................................
.............................. CYCLE    9 ..............................
........................................................................

 iter      E             dE          RMSdq      gap      omega  full diag
   1    -59.5668527 -0.595669E+02  0.482E-02    3.24       0.0  T
   2    -59.5668539 -0.126901E-05  0.288E-02    3.24       1.0  T
   3    -59.5668535  0.460064E-06  0.582E-03    3.24       3.1  T
   4    -59.5668543 -0.864660E-06  0.222E-03    3.24       8.1  T
   5    -59.5668544 -0.393834E-07  0.141E-03    3.24      12.7  T
   6    -59.5668544 -0.141603E-07  0.799E-04    3.24      22.5  T
   7    -59.5668544 -0.435683E-08  0.612E-04    3.24      29.3  T
     SCC iter.                  ...        0 min,  0.010 sec
     gradient                   ...        0 min,  0.015 sec
 * total energy  :   -58.9675188 Eh     change       -0.5930760E-04 Eh
   gradient norm :     0.0033965 Eh/α   predicted    -0.4582381E-04 ( -22.74%)
   displ. norm   :     0.1386308 α      lambda       -0.4970654E-04
   maximum displ.:     0.0926609 α      in ANC's #3, #1, #8, ...

........................................................................
.............................. CYCLE   10 ..............................
........................................................................

 iter      E             dE          RMSdq      gap      omega  full diag
   1    -59.5670680 -0.595671E+02  0.382E-02    3.24       0.0  T
   2    -59.5670686 -0.658424E-06  0.227E-02    3.24       1.0  T
   3    -59.5670683  0.334040E-06  0.466E-03    3.24       3.9  T
   4    -59.5670689 -0.604786E-06  0.183E-03    3.24       9.8  T
   5    -59.5670689 -0.206022E-07  0.120E-03    3.24      15.0  T
   6    -59.5670689 -0.997639E-08  0.682E-04    3.24      26.3  T
   7    -59.5670689 -0.311721E-08  0.521E-04    3.24      34.5  T
     SCC iter.                  ...        0 min,  0.010 sec
     gradient                   ...        0 min,  0.015 sec
 * total energy  :   -58.9675514 Eh     change       -0.3263367E-04 Eh
   gradient norm :     0.0036843 Eh/α   predicted    -0.2533844E-04 ( -22.35%)
   displ. norm   :     0.1190441 α      lambda       -0.4952548E-04
   maximum displ.:     0.0730010 α      in ANC's #1, #3, #4, ...

........................................................................
.............................. CYCLE   11 ..............................
........................................................................

 iter      E             dE          RMSdq      gap      omega  full diag
   1    -59.5677288 -0.595677E+02  0.328E-02    3.24       0.0  T
   2    -59.5677291 -0.359534E-06  0.197E-02    3.24       1.0  T
   3    -59.5677290  0.971165E-07  0.353E-03    3.24       5.1  T
   4    -59.5677293 -0.258465E-06  0.154E-03    3.24      11.7  T
   5    -59.5677293 -0.113726E-07  0.976E-04    3.24      18.4  T
   6    -59.5677293 -0.574496E-08  0.592E-04    3.24      30.3  T
     SCC iter.                  ...        0 min,  0.009 sec
     gradient                   ...        0 min,  0.060 sec
 * total energy  :   -58.9675815 Eh     change       -0.3015152E-04 Eh
   gradient norm :     0.0026655 Eh/α   predicted    -0.2511561E-04 ( -16.70%)
   displ. norm   :     0.0932923 α      lambda       -0.3057250E-04
   maximum displ.:     0.0666627 α      in ANC's #1, #3, #4, ...

........................................................................
.............................. CYCLE   12 ..............................
........................................................................

 iter      E             dE          RMSdq      gap      omega  full diag
   1    -59.5674930 -0.595675E+02  0.257E-02    3.24       0.0  T
   2    -59.5674932 -0.223197E-06  0.154E-02    3.24       1.2  T
   3    -59.5674932  0.343192E-07  0.258E-03    3.24       7.0  T
   4    -59.5674933 -0.134613E-06  0.123E-03    3.24      14.6  T
   5    -59.5674933 -0.850399E-08  0.768E-04    3.24      23.4  T
   6    -59.5674934 -0.363541E-08  0.457E-04    3.24      39.3  T
     SCC iter.                  ...        0 min,  0.009 sec
     gradient                   ...        0 min,  0.015 sec
 * total energy  :   -58.9676037 Eh     change       -0.2215084E-04 Eh
   gradient norm :     0.0024472 Eh/α   predicted    -0.1542067E-04 ( -30.38%)
   displ. norm   :     0.0772403 α      lambda       -0.2654002E-04
   maximum displ.:     0.0572579 α      in ANC's #1, #4, #11, ...

........................................................................
.............................. CYCLE   13 ..............................
........................................................................

 iter      E             dE          RMSdq      gap      omega  full diag
   1    -59.5669214 -0.595669E+02  0.210E-02    3.24       0.0  T
   2    -59.5669216 -0.214366E-06  0.126E-02    3.24       1.4  T
   3    -59.5669213  0.225523E-06  0.339E-03    3.24       5.3  T
   4    -59.5669217 -0.332178E-06  0.113E-03    3.24      15.9  T
   5    -59.5669217 -0.835821E-08  0.710E-04    3.24      25.3  T
   6    -59.5669217 -0.308830E-08  0.415E-04    3.24      43.3  T
     SCC iter.                  ...        0 min,  0.060 sec
     gradient                   ...        0 min,  0.015 sec
 * total energy  :   -58.9676224 Eh     change       -0.1870134E-04 Eh
   gradient norm :     0.0017794 Eh/α   predicted    -0.1335179E-04 ( -28.61%)
   displ. norm   :     0.1049627 α      lambda       -0.1975216E-04
   maximum displ.:     0.0779207 α      in ANC's #1, #11, #5, ...

........................................................................
.............................. CYCLE   14 ..............................
........................................................................

 iter      E             dE          RMSdq      gap      omega  full diag
   1    -59.5670610 -0.595671E+02  0.266E-02    3.24       0.0  T
   2    -59.5670614 -0.374460E-06  0.160E-02    3.24       1.1  T
   3    -59.5670614  0.370114E-07  0.308E-03    3.24       5.8  T
   4    -59.5670616 -0.187684E-06  0.148E-03    3.24      12.1  T
   5    -59.5670616 -0.135958E-07  0.936E-04    3.24      19.2  T
   6    -59.5670616 -0.704981E-08  0.599E-04    3.24      30.0  T
     SCC iter.                  ...        0 min,  0.009 sec
     gradient                   ...        0 min,  0.015 sec
 * total energy  :   -58.9676363 Eh     change       -0.1391193E-04 Eh
   gradient norm :     0.0028869 Eh/α   predicted    -0.9925402E-05 ( -28.66%)
   displ. norm   :     0.0297650 α      lambda       -0.1173257E-04
   maximum displ.:     0.0224809 α      in ANC's #1, #3, #2, ...

........................................................................
.............................. CYCLE   15 ..............................
........................................................................

 iter      E             dE          RMSdq      gap      omega  full diag
   1    -59.5667904 -0.595668E+02  0.889E-03    3.25       0.0  T
   2    -59.5667905 -0.106841E-06  0.511E-03    3.24       3.5  T
   3    -59.5667905  0.701637E-07  0.199E-03    3.25       9.0  T
   4    -59.5667906 -0.101129E-06  0.451E-04    3.25      39.8  T
   5    -59.5667906 -0.315723E-08  0.196E-04    3.25      91.7  T
     SCC iter.                  ...        0 min,  0.007 sec
     gradient                   ...        0 min,  0.015 sec
 * total energy  :   -58.9676452 Eh     change       -0.8918983E-05 Eh
   gradient norm :     0.0016100 Eh/α   predicted    -0.5873345E-05 ( -34.15%)
   displ. norm   :     0.0710458 α      lambda       -0.1639269E-04
   maximum displ.:     0.0543273 α      in ANC's #1, #8, #2, ...

........................................................................
.............................. CYCLE   16 ..............................
........................................................................

 iter      E             dE          RMSdq      gap      omega  full diag
   1    -59.5672904 -0.595673E+02  0.213E-02    3.25       0.0  T
   2    -59.5672907 -0.366156E-06  0.124E-02    3.25       1.4  T
   3    -59.5672906  0.123379E-06  0.322E-03    3.25       5.6  T
   4    -59.5672908 -0.227984E-06  0.115E-03    3.25      15.6  T
   5    -59.5672908 -0.978836E-08  0.715E-04    3.25      25.1  T
   6    -59.5672908 -0.310990E-08  0.482E-04    3.25      37.3  T
     SCC iter.                  ...        0 min,  0.009 sec
     gradient                   ...        0 min,  0.066 sec
 * total energy  :   -58.9676585 Eh     change       -0.1327762E-04 Eh
   gradient norm :     0.0016803 Eh/α   predicted    -0.8220217E-05 ( -38.09%)
   displ. norm   :     0.0466209 α      lambda       -0.6315637E-05
   maximum displ.:     0.0408368 α      in ANC's #1, #2, #4, ...

........................................................................
.............................. CYCLE   17 ..............................
........................................................................

 iter      E             dE          RMSdq      gap      omega  full diag
   1    -59.5671119 -0.595671E+02  0.112E-02    3.25       0.0  T
   2    -59.5671120 -0.872316E-07  0.655E-03    3.25       2.7  T
   3    -59.5671119  0.515093E-07  0.212E-03    3.25       8.5  T
   4    -59.5671120 -0.903205E-07  0.708E-04    3.25      25.4  T
   5    -59.5671120 -0.311852E-08  0.507E-04    3.25      35.4  T
     SCC iter.                  ...        0 min,  0.008 sec
     gradient                   ...        0 min,  0.015 sec
 * total energy  :   -58.9676659 Eh     change       -0.7420266E-05 Eh
   gradient norm :     0.0011962 Eh/α   predicted    -0.3163854E-05 ( -57.36%)
   displ. norm   :     0.0440134 α      lambda       -0.6374210E-05
   maximum displ.:     0.0375289 α      in ANC's #1, #2, #3, ...

........................................................................
.............................. CYCLE   18 ..............................
........................................................................

 iter      E             dE          RMSdq      gap      omega  full diag
   1    -59.5672607 -0.595673E+02  0.111E-02    3.24       0.0  T
   2    -59.5672608 -0.108656E-06  0.646E-03    3.24       2.8  T
   3    -59.5672607  0.754348E-07  0.212E-03    3.24       8.5  T
   4    -59.5672608 -0.111806E-06  0.581E-04    3.24      30.9  T
   5    -59.5672608 -0.356659E-08  0.335E-04    3.24      53.6  T
     SCC iter.                  ...        0 min,  0.007 sec
     gradient                   ...        0 min,  0.061 sec
 * total energy  :   -58.9676728 Eh     change       -0.6880328E-05 Eh
   gradient norm :     0.0009618 Eh/α   predicted    -0.3193925E-05 ( -53.58%)
   displ. norm   :     0.0462243 α      lambda       -0.4898927E-05
   maximum displ.:     0.0398759 α      in ANC's #1, #2, #7, ...

........................................................................
.............................. CYCLE   19 ..............................
........................................................................

 iter      E             dE          RMSdq      gap      omega  full diag
   1    -59.5670971 -0.595671E+02  0.109E-02    3.24       0.0  T
   2    -59.5670972 -0.655569E-07  0.639E-03    3.24       2.8  T
   3    -59.5670972  0.798727E-08  0.117E-03    3.24      15.4  T
   4    -59.5670972 -0.299712E-07  0.541E-04    3.24      33.2  T
   5    -59.5670972 -0.234741E-08  0.317E-04    3.24      56.6  T
     SCC iter.                  ...        0 min,  0.007 sec
     gradient                   ...        0 min,  0.015 sec
 * total energy  :   -58.9676788 Eh     change       -0.5963834E-05 Eh
   gradient norm :     0.0011782 Eh/α   predicted    -0.2455751E-05 ( -58.82%)
   displ. norm   :     0.0581689 α      lambda       -0.5531103E-05
   maximum displ.:     0.0517253 α      in ANC's #1, #2, #7, ...

........................................................................
.............................. CYCLE   20 ..............................
........................................................................

 iter      E             dE          RMSdq      gap      omega  full diag
   1    -59.5670953 -0.595671E+02  0.130E-02    3.24       0.0  T
   2    -59.5670954 -0.753440E-07  0.761E-03    3.24       2.4  T
   3    -59.5670954 -0.206722E-07  0.899E-04    3.24      20.0  T
   4    -59.5670954 -0.650445E-08  0.528E-04    3.24      34.0  T
     SCC iter.                  ...        0 min,  0.057 sec
     gradient                   ...        0 min,  0.015 sec
 * total energy  :   -58.9676858 Eh     change       -0.6999088E-05 Eh
   gradient norm :     0.0010488 Eh/α   predicted    -0.2770895E-05 ( -60.41%)
   displ. norm   :     0.0726401 α      lambda       -0.6089931E-05
   maximum displ.:     0.0638109 α      in ANC's #1, #2, #7, ...
 * RMSD in coord.:     0.3543826 α      energy gain  -0.1268078E-01 Eh

generating ANC from exact Hessian ...
Using Lindh-Hessian (1995)
 Shifting diagonal of input Hessian by    8.9196322092915288E-003
 Lowest  eigenvalues of input Hessian
    0.000000    0.000000    0.000000    0.000000    0.000000    0.000000
    0.010000    0.010193    0.012081    0.015054    0.016787    0.017262
    0.018633    0.019909    0.020960    0.025705    0.029148    0.029608
 Highest eigenvalues
    1.944760    2.012631    2.152859    2.204980    2.323324    2.346994


........................................................................
.............................. CYCLE   21 ..............................
........................................................................

 iter      E             dE          RMSdq      gap      omega  full diag
   1    -59.5670931 -0.595671E+02  0.156E-02    3.24       0.0  T
   2    -59.5670933 -0.143890E-06  0.915E-03    3.24       2.0  T
   3    -59.5670932  0.238924E-07  0.184E-03    3.24       9.7  T
   4    -59.5670933 -0.735677E-07  0.831E-04    3.24      21.6  T
   5    -59.5670933 -0.489512E-08  0.527E-04    3.24      34.1  T
     SCC iter.                  ...        0 min,  0.064 sec
     gradient                   ...        0 min,  0.015 sec
 * total energy  :   -58.9676931 Eh     change       -0.7369452E-05 Eh
   gradient norm :     0.0007067 Eh/α   predicted     0.0000000E+00 (-100.00%)
   displ. norm   :     0.0156996 α      lambda       -0.2199499E-05
   maximum displ.:     0.0123210 α      in ANC's #1, #10, #2, ...

........................................................................
.............................. CYCLE   22 ..............................
........................................................................

 iter      E             dE          RMSdq      gap      omega  full diag
   1    -59.5672768 -0.595673E+02  0.444E-03    3.24       0.0  T
   2    -59.5672768 -0.173076E-07  0.265E-03    3.24       6.8  T
   3    -59.5672768  0.152498E-07  0.810E-04    3.25      22.2  T
   4    -59.5672768 -0.207426E-07  0.200E-04    3.24      90.0  T
     SCC iter.                  ...        0 min,  0.006 sec
     gradient                   ...        0 min,  0.016 sec
 * total energy  :   -58.9676957 Eh     change       -0.2548410E-05 Eh
   gradient norm :     0.0003171 Eh/α   predicted    -0.1139502E-05 ( -55.29%)
   displ. norm   :     0.0275071 α      lambda       -0.2376109E-05
   maximum displ.:     0.0211750 α      in ANC's #1, #2, #3, ...

   *** GEOMETRY OPTIMIZATION CONVERGED AFTER 22 ITERATIONS ***

------------------------------------------------------------------------
 total energy gain   :        -0.0126907 Eh       -7.9635 kcal/mol
 total RMSD          :         0.3558231 a0        0.1883 Å
 total power (kW/mol):        -1.5145189 (step)  -24.8549 (real)
------------------------------------------------------------------------

 ANCopt (total)                0 d,  0 h,  0 min,  1.341 sec
 optimizer setup                ...        0 min,  0.000 sec (  0.005%)
 model hessian                  ...        0 min,  0.027 sec (  1.987%)
 ANC generation                 ...        0 min,  0.002 sec (  0.132%)
 coordinate transformation      ...        0 min,  0.000 sec (  0.008%)
 single point calculation       ...        0 min,  1.307 sec ( 97.496%)
 optimization log               ...        0 min,  0.003 sec (  0.213%)
 hessian update                 ...        0 min,  0.000 sec (  0.014%)
 rational function              ...        0 min,  0.001 sec (  0.096%)

================
 final structure:
================
31
 xtb: 6.7.1 (edcfbbe)
N            4.68734103124957        1.71426448902506       -0.04359621951226
C            3.36248129065817        1.55473655335523        0.05297885156853
N            2.60497096279547        2.62951423396611        0.29240184076659
C            1.29986474101977        2.48412294130139        0.39936128388364
Cl           0.42503867237182        3.91469360674230        0.70630182154293
N            0.57803659591177        1.38377563428813        0.30527729801450
C            1.32203007277045        0.30186074898663        0.05548362827425
C            2.72110385310969        0.30959441753034       -0.07915868255796
N            3.16553372789650       -0.96296240018478       -0.32992908877177
C            2.09384392562098       -1.69009033266594       -0.35171302353066
N            0.93727463982219       -0.99533418695691       -0.11336924436127
C           -0.40575067117785       -1.51399879027967       -0.12602511452785
C           -1.14769296803148       -1.31734747834177        1.20121092686002
C           -2.60705616414298       -1.24539642981452        0.73906488047836
C           -2.48737892780436       -0.62357682835075       -0.66211615018963
O           -1.14983619720945       -0.84169074729801       -1.10536598086029
C           -2.81394349207211        0.88117958812044       -0.65833724630604
O           -2.27800161093218        1.55798395339263        0.43900433556733
O           -3.20294642445428       -2.51510650397769        0.61272280370930
H            5.26428707847314        0.91936140557525       -0.25087497414231
H            5.07534269154389        2.63681964533424        0.04122822143322
H            2.08963612624728       -2.74752328730964       -0.52959760899828
H           -0.32962639482163       -2.58539052387627       -0.37924136417604
H           -0.96561504449305       -2.13309128409562        1.89845754458654
H           -0.85503939215037       -0.36844849583406        1.64905029434481
H           -3.20337324350451       -0.59811207323824        1.39239219782966
H           -3.16068218246273       -1.14489488490032       -1.35263931982736
H           -2.46126843629500        1.30530716990520       -1.60714622809626
H           -3.89880789556141        1.00295517099099       -0.59697968690311
H           -1.30393546112611        1.56967457291901        0.35889757875543
H           -3.35593090325186       -2.88297988430825        1.48995642514579

 Bond Distances (Angstroems)
 ---------------------------
N1-C2=1.3379         N1-H20=1.0038        N1-H21=1.0044        C2-N1=1.3379         C2-N3=1.3365         C2-C8=1.4068         
N3-C2=1.3365         N3-C4=1.3175         C4-N3=1.3175         C4-Cl5=1.7047        C4-N6=1.3193         Cl5-C4=1.7047        
N6-C4=1.3193         N6-C7=1.3366         C7-N6=1.3366         C7-C8=1.4056         C7-N11=1.3635        C8-C2=1.4068         
C8-C7=1.4056         C8-N9=1.3711         N9-C8=1.3711         N9-C10=1.2953        C10-N9=1.2953        C10-N11=1.3701       
C10-H22=1.0723       N11-C7=1.3635        N11-C10=1.3701       N11-C12=1.4398       C12-N11=1.4398       C12-C13=1.5332       
C12-O16=1.4017       C12-H23=1.1035       C13-C12=1.5332       C13-C14=1.5325       C13-H24=1.0885       C13-H25=1.0893       
C14-C13=1.5325       C14-C15=1.5376       C14-O19=1.4083       C14-H26=1.0961       C15-C14=1.5376       C15-O16=1.4259       
C15-C17=1.5398       C15-H27=1.0963       O16-C12=1.4017       O16-C15=1.4259       C17-C15=1.5398       C17-O18=1.3962       
C17-H28=1.0975       C17-H29=1.0934       O18-C17=1.3962       O18-H30=0.9774       O19-C14=1.4083       O19-H31=0.9635       
H20-N1=1.0038        H21-N1=1.0044        H22-C10=1.0723       H23-C12=1.1035       H24-C13=1.0885       H25-C13=1.0893       
H26-C14=1.0961       H27-C15=1.0963       H28-C17=1.0975       H29-C17=1.0934       H30-O18=0.9774       H31-O19=0.9635       
 C  H  Rav=1.0921 sigma=0.0087  Rmin=1.0723  Rmax=1.1035     8
 C  C  Rav=1.4926 sigma=0.0611  Rmin=1.4056  Rmax=1.5398     6
 N  H  Rav=1.0041 sigma=0.0003  Rmin=1.0038  Rmax=1.0044     2
 N  C  Rav=1.3488 sigma=0.0382  Rmin=1.2953  Rmax=1.4398    10
 O  H  Rav=0.9704 sigma=0.0070  Rmin=0.9635  Rmax=0.9774     2
 O  C  Rav=1.4080 sigma=0.0111  Rmin=1.3962  Rmax=1.4259     4
 Cl C  Rav=1.7047 sigma=0.0000  Rmin=1.7047  Rmax=1.7047     1

 selected bond angles (degree)
 --------------------
H20-N1-C2=119.32               H21-N1-C2=119.07               H21-N1-H20=121.52              N3-C2-N1=118.57                
C8-C2-N1=123.38                C8-C2-N3=118.04                C4-N3-C2=119.16                Cl5-C4-N3=115.49               
N6-C4-N3=128.92                N6-C4-Cl5=115.59               C7-N6-C4=112.57                C8-C7-N6=124.58                
N11-C7-N6=129.51               N11-C7-C8=105.92               C7-C8-C2=116.72                N9-C8-C2=133.70                
N9-C8-C7=109.58                C10-N9-C8=104.83               N11-C10-N9=114.26              H22-C10-N9=124.03              
H22-C10-N11=121.71             

 selected dihedral angles (degree)
 ---------------------------------
N3-C2-N1-H20=181.85           N3-C2-N1-H21=358.38           C8-C2-N1-H20=  2.12           C8-C2-N1-H21=178.65           
C4-N3-C2-N1=180.49            C4-N3-C2-C8=  0.23            Cl5-C4-N3-C2=179.95           N6-C4-N3-C2=  0.15            
C7-N6-C4-N3=359.37            C7-N6-C4-Cl5=179.58           C8-C7-N6-C4=  0.75            N11-C7-N6-C4=180.40           
C7-C8-C2-N1=179.64            C7-C8-C2-N3=359.91            N9-C8-C2-N1=359.13            N9-C8-C2-N3=179.40            
C2-C8-C7-N6=359.56            C2-C8-C7-N11=179.84           N9-C8-C7-N6=179.95            N9-C8-C7-N11=  0.23           
C10-N9-C8-C2=180.81           C10-N9-C8-C7=  0.33           N11-C10-N9-C8=359.20          H22-C10-N9-C8=179.76          
           -------------------------------------------------
          |                Final Singlepoint                |
           -------------------------------------------------

          ...................................................
          :                      SETUP                      :
          :.................................................:
          :  # basis functions                  94          :
          :  # atomic orbitals                  93          :
          :  # shells                           51          :
          :  # electrons                       102          :
          :  max. iterations                   250          :
          :  Hamiltonian                  GFN2-xTB          :
          :  restarted?                      false          :
          :  GBSA solvation                  false          :
          :  PC potential                    false          :
          :  electronic temp.          300.0000000     K    :
          :  accuracy                    1.0000000          :
          :  -> integral cutoff          0.2500000E+02      :
          :  -> integral neglect         0.1000000E-07      :
          :  -> SCF convergence          0.1000000E-05 Eh   :
          :  -> wf. convergence          0.1000000E-03 e    :
          :  Broyden damping             0.4000000          :
          :  net charge                          0          :
          :  unpaired electrons                  0          :
          ...................................................

 iter      E             dE          RMSdq      gap      omega  full diag
   1    -59.5672768 -0.595673E+02  0.105E-04    3.24       0.0  T
   2    -59.5672768 -0.540368E-10  0.707E-05    3.24     254.0  T
   3    -59.5672768 -0.236895E-10  0.516E-05    3.24     347.9  T

   *** convergence criteria satisfied after 3 iterations ***

         #    Occupation            Energy/Eh            Energy/eV
      -------------------------------------------------------------
         1        2.0000           -1.0548232             -28.7032
       ...           ...                  ...                  ...
        45        2.0000           -0.4257731             -11.5859
        46        2.0000           -0.4238801             -11.5344
        47        2.0000           -0.4216834             -11.4746
        48        2.0000           -0.4101994             -11.1621
        49        2.0000           -0.3975520             -10.8179
        50        2.0000           -0.3957791             -10.7697
        51        2.0000           -0.3865966             -10.5198 (HOMO)
        52                         -0.2673473              -7.2749 (LUMO)
        53                         -0.2436237              -6.6293
        54                         -0.2119282              -5.7669
        55                         -0.1376037              -3.7444
        56                         -0.1158952              -3.1537
       ...                                ...                  ...
        93                          0.6422300              17.4760
      -------------------------------------------------------------
                  HL-Gap            0.1192493 Eh            3.2449 eV
             Fermi-level           -0.3269720 Eh           -8.8974 eV

 SCC (total)                   0 d,  0 h,  0 min,  0.074 sec
 SCC setup                      ...        0 min,  0.000 sec (  0.272%)
 Dispersion                     ...        0 min,  0.000 sec (  0.220%)
 classical contributions        ...        0 min,  0.000 sec (  0.105%)
 integral evaluation            ...        0 min,  0.054 sec ( 72.432%)
 iterations                     ...        0 min,  0.004 sec (  5.992%)
 molecular gradient             ...        0 min,  0.015 sec ( 20.825%)
 printout                       ...        0 min,  0.000 sec (  0.145%)

         :::::::::::::::::::::::::::::::::::::::::::::::::::::
         ::                     SUMMARY                     ::
         :::::::::::::::::::::::::::::::::::::::::::::::::::::
         :: total energy             -58.967695682575 Eh    ::
         :: gradient norm              0.000319189996 Eh/a0 ::
         :: HOMO-LUMO gap              3.244937602499 eV    ::
         ::.................................................::
         :: SCC energy               -59.566923089495 Eh    ::
         :: -> isotropic ES            0.113921956934 Eh    ::
         :: -> anisotropic ES         -0.002334427909 Eh    ::
         :: -> anisotropic XC          0.017903730094 Eh    ::
         :: -> dispersion             -0.035342271719 Eh    ::
         :: repulsion energy           0.599227406919 Eh    ::
         :: add. restraining           0.000000000000 Eh    ::
         :: total charge              -0.000000000000 e     ::
         :::::::::::::::::::::::::::::::::::::::::::::::::::::

           -------------------------------------------------
          |                Property Printout                |
           -------------------------------------------------

    * Orbital Energies and Occupations

         #    Occupation            Energy/Eh            Energy/eV
      -------------------------------------------------------------
         1        2.0000           -1.0548232             -28.7032
       ...           ...                  ...                  ...
        39        2.0000           -0.4618402             -12.5673
        40        2.0000           -0.4580666             -12.4646
        41        2.0000           -0.4531952             -12.3321
        42        2.0000           -0.4440628             -12.0836
        43        2.0000           -0.4385856             -11.9345
        44        2.0000           -0.4289198             -11.6715
        45        2.0000           -0.4257731             -11.5859
        46        2.0000           -0.4238801             -11.5344
        47        2.0000           -0.4216834             -11.4746
        48        2.0000           -0.4101994             -11.1621
        49        2.0000           -0.3975520             -10.8179
        50        2.0000           -0.3957791             -10.7697
        51        2.0000           -0.3865966             -10.5198 (HOMO)
        52                         -0.2673473              -7.2749 (LUMO)
        53                         -0.2436237              -6.6293
        54                         -0.2119282              -5.7669
        55                         -0.1376037              -3.7444
        56                         -0.1158952              -3.1537
        57                         -0.0318774              -0.8674
        58                         -0.0038177              -0.1039
        59                          0.0044367               0.1207
        60                          0.0152499               0.4150
        61                          0.0168702               0.4591
        62                          0.0171910               0.4678
       ...                                ...                  ...
        93                          0.6422300              17.4760
      -------------------------------------------------------------
                  HL-Gap            0.1192493 Eh            3.2449 eV
             Fermi-level           -0.3269720 Eh           -8.8974 eV

     #   Z          covCN         q      C6AA      α(0)
     1   7 N        2.647    -0.228    25.992     7.572
     2   6 C        2.880     0.175    24.245     8.072
     3   7 N        1.926    -0.300    28.609     7.931
     4   6 C        2.905     0.261    22.613     7.797
     5  17 Cl       1.048    -0.113   102.678    15.503
     6   7 N        1.906    -0.313    28.951     7.977
     7   6 C        3.162     0.145    24.559     8.100
     8   6 C        3.228     0.010    26.998     8.439
     9   7 N        1.883    -0.265    27.733     7.807
    10   6 C        3.192     0.099    25.333     8.209
    11   7 N        2.825    -0.059    22.380     7.026
    12   6 C        3.724     0.186    17.743     6.015
    13   6 C        3.818    -0.085    22.102     6.691
    14   6 C        3.746     0.113    18.788     6.183
    15   6 C        3.778     0.092    19.082     6.223
    16   8 O        1.702    -0.318    19.303     5.932
    17   6 C        3.674     0.070    19.633     6.349
    18   8 O        1.655    -0.452    21.882     6.315
    19   8 O        1.656    -0.443    21.710     6.290
    20   1 H        0.861     0.205     1.080     1.628
    21   1 H        0.860     0.206     1.075     1.624
    22   1 H        0.926     0.053     2.281     2.362
    23   1 H        0.923     0.039     2.456     2.451
    24   1 H        0.925     0.046     2.371     2.408
    25   1 H        0.925     0.072     2.066     2.248
    26   1 H        0.924     0.043     2.410     2.428
    27   1 H        0.924     0.058     2.222     2.331
    28   1 H        0.924     0.038     2.472     2.459
    29   1 H        0.924     0.049     2.330     2.387
    30   1 H        0.803     0.317     0.672     1.288
    31   1 H        0.805     0.296     0.733     1.344

 Mol. C6AA /au·bohr⁶  :      12617.315376
 Mol. C8AA /au·bohr⁸  :     308188.581931
 Mol. α(0) /au        :        169.388071


Wiberg/Mayer (AO) data.
largest (>0.10) Wiberg bond orders for each atom

 ---------------------------------------------------------------------------
     #   Z sym  total        # sym  WBO       # sym  WBO       # sym  WBO
 ---------------------------------------------------------------------------
     1   7 N    3.407 --     2 C    1.286    20 H    0.941    21 H    0.938
     2   6 C    3.972 --     3 N    1.315     1 N    1.286     8 C    1.219
     3   7 N    3.037 --     4 C    1.393     2 C    1.315
     4   6 C    3.939 --     6 N    1.402     3 N    1.393     5 Cl   1.006
     5  17 Cl   1.177 --     4 C    1.006
     6   7 N    3.060 --     4 C    1.402     7 C    1.278
     7   6 C    3.960 --     6 N    1.278     8 C    1.276    11 N    1.178
     8   6 C    3.972 --     7 C    1.276     2 C    1.219     9 N    1.208
     9   7 N    3.025 --    10 C    1.606     8 C    1.208    11 N    0.105
    10   6 C    3.950 --     9 N    1.606    11 N    1.195    22 H    0.961
    11   7 N    3.608 --    10 C    1.195     7 C    1.178    12 C    0.967
                             9 N    0.105
    12   6 C    3.943 --    16 O    0.987    13 C    0.975    11 N    0.967
                            23 H    0.951
    13   6 C    3.992 --    14 C    0.984    24 H    0.977    12 C    0.975
                            25 H    0.969
    14   6 C    3.957 --    19 O    0.995    13 C    0.984    15 C    0.973
                            26 H    0.961
    15   6 C    3.940 --    14 C    0.973    17 C    0.971    27 H    0.959
                            16 O    0.954
    16   8 O    2.081 --    12 C    0.987    15 C    0.954
    17   6 C    3.968 --    18 O    1.025    15 C    0.971    29 H    0.970
                            28 H    0.966
    18   8 O    1.958 --    17 C    1.025    30 H    0.842
    19   8 O    1.962 --    14 C    0.995    31 H    0.896
    20   1 H    0.957 --     1 N    0.941
    21   1 H    0.957 --     1 N    0.938
    22   1 H    0.996 --    10 C    0.961
    23   1 H    0.998 --    12 C    0.951
    24   1 H    0.998 --    13 C    0.977
    25   1 H    0.995 --    13 C    0.969
    26   1 H    0.998 --    14 C    0.961
    27   1 H    0.996 --    15 C    0.959
    28   1 H    0.999 --    17 C    0.966
    29   1 H    0.997 --    17 C    0.970
    30   1 H    0.899 --    18 O    0.842
    31   1 H    0.912 --    19 O    0.896
 ---------------------------------------------------------------------------

Topologies differ in total number of bonds
Writing topology from bond orders to xtbtopo.mol

molecular dipole:
                 x           y           z       tot (Debye)
 q only:        1.138      -1.050       0.425
   full:        1.147      -1.492       0.515       4.960
molecular quadrupole (traceless):
                xx          xy          yy          xz          yz          zz
 q only:       17.881       9.916     -12.593      -2.958      -8.349      -5.289
  q+dip:       14.012      11.832     -12.234      -4.155     -11.216      -1.778
   full:       13.072      11.258     -13.259      -3.695     -11.675       0.187

           -------------------------------------------------
          |                Geometry Summary                 |
           -------------------------------------------------

      molecular mass/u    :      285.6873164
   center of mass at/Å    :        0.2995852       0.5160183       0.1215294
  moments of inertia/u·Å² :        0.9228943E+03   0.1851352E+04   0.2596494E+04
rotational constants/cm⁻¹ :        0.1826605E-01   0.9105579E-02   0.6492460E-02

 * 33 selected distances

     #   Z          #   Z                                           value/Å
     1   7 N        2   6 C                                       1.3379199
     2   6 C        3   7 N                                       1.3365226
     3   7 N        4   6 C                                       1.3175286
     4   6 C        5  17 Cl                                      1.7047188 (max)
     4   6 C        6   7 N                                       1.3193378
     6   7 N        7   6 C                                       1.3365864
     2   6 C        8   6 C                                       1.4068421
     7   6 C        8   6 C                                       1.4055590
     8   6 C        9   7 N                                       1.3710598
     9   7 N       10   6 C                                       1.2952640
     7   6 C       11   7 N                                       1.3635480
    10   6 C       11   7 N                                       1.3700900
    11   7 N       12   6 C                                       1.4397536
    12   6 C       13   6 C                                       1.5332012
    13   6 C       14   6 C                                       1.5324808
    14   6 C       15   6 C                                       1.5376251
    12   6 C       16   8 O                                       1.4017026
    15   6 C       16   8 O                                       1.4258559
    15   6 C       17   6 C                                       1.5397893
    17   6 C       18   8 O                                       1.3962295
    14   6 C       19   8 O                                       1.4082654
     1   7 N       20   1 H                                       1.0038438
     1   7 N       21   1 H                                       1.0044146
    10   6 C       22   1 H                                       1.0722991
    12   6 C       23   1 H                                       1.1035370
    13   6 C       24   1 H                                       1.0884592
    13   6 C       25   1 H                                       1.0893189
    14   6 C       26   1 H                                       1.0960875
    15   6 C       27   1 H                                       1.0963267
    17   6 C       28   1 H                                       1.0974983
    17   6 C       29   1 H                                       1.0934007
    18   8 O       30   1 H                                       0.9774246
    19   8 O       31   1 H                                       0.9634698 (min)

 * 7 distinct bonds (by element types)

   Z      Z             #   av. dist./Å        max./Å        min./Å
   1 H    6 C           8     1.0921159     1.1035370     1.0722991
   6 C    6 C           6     1.4925829     1.5397893     1.4055590
   1 H    7 N           2     1.0041292     1.0044146     1.0038438
   6 C    7 N          10     1.3487611     1.4397536     1.2952640
   1 H    8 O           2     0.9704472     0.9774246     0.9634698
   6 C    8 O           4     1.4080134     1.4258559     1.3962295
   6 C   17 Cl          1     1.7047188     1.7047188     1.7047188


optimized geometry written to: xtbopt.xyz


           -------------------------------------------------
          | TOTAL ENERGY              -58.967695682575 Eh   |
          | GRADIENT NORM               0.000319189996 Eh/α |
          | HOMO-LUMO GAP               3.244937602499 eV   |
           -------------------------------------------------

------------------------------------------------------------------------
 * finished run on 2025/05/15 at 16:27:48.212     
------------------------------------------------------------------------
 total:
 * wall-time:     0 d,  0 h,  0 min,  1.520 sec
 *  cpu-time:     0 d,  0 h,  0 min,  0.790 sec
 * ratio c/w:     0.519 speedup
 SCF:
 * wall-time:     0 d,  0 h,  0 min,  0.093 sec
 *  cpu-time:     0 d,  0 h,  0 min,  0.043 sec
 * ratio c/w:     0.468 speedup
 ANC optimizer:
 * wall-time:     0 d,  0 h,  0 min,  1.416 sec
 *  cpu-time:     0 d,  0 h,  0 min,  0.736 sec
 * ratio c/w:     0.520 speedup



----- Single-point -----
      -----------------------------------------------------------      
     |                   =====================                   |     
     |                           x T B                           |     
     |                   =====================                   |     
     |                         S. Grimme                         |     
     |          Mulliken Center for Theoretical Chemistry        |     
     |                    University of Bonn                     |     
      -----------------------------------------------------------      

   * xtb version 6.7.1 (edcfbbe) compiled by 'conda@3ef47c1a292c' on 2024-11-25

   xtb is free software: you can redistribute it and/or modify it under
   the terms of the GNU Lesser General Public License as published by
   the Free Software Foundation, either version 3 of the License, or
   (at your option) any later version.
   
   xtb is distributed in the hope that it will be useful,
   but WITHOUT ANY WARRANTY; without even the implied warranty of
   MERCHANTABILITY or FITNESS FOR A PARTICULAR PURPOSE.  See the
   GNU Lesser General Public License for more details.
   
   Cite this work as:
   * C. Bannwarth, E. Caldeweyher, S. Ehlert, A. Hansen, P. Pracht,
     J. Seibert, S. Spicher, S. Grimme, WIREs Comput. Mol. Sci., 2020, 11,
     e01493. DOI: 10.1002/wcms.1493
   
   for GFN2-xTB:
   * C. Bannwarth, S. Ehlert and S. Grimme., J. Chem. Theory Comput., 2019,
     15, 1652-1671. DOI: 10.1021/acs.jctc.8b01176
   for GFN1-xTB:
   * S. Grimme, C. Bannwarth, P. Shushkov, J. Chem. Theory Comput., 2017,
     13, 1989-2009. DOI: 10.1021/acs.jctc.7b00118
   for GFN0-xTB:
   * P. Pracht, E. Caldeweyher, S. Ehlert, S. Grimme, ChemRxiv, 2019, preprint.
     DOI: 10.26434/chemrxiv.8326202.v1
   for GFN-FF:
   * S. Spicher and S. Grimme, Angew. Chem. Int. Ed., 2020, 59, 15665-15673.
     DOI: 10.1002/anie.202004239
   
   for ALPB and GBSA implicit solvation:
   * S. Ehlert, M. Stahn, S. Spicher, S. Grimme, J. Chem. Theory Comput.,
     2021, 17, 4250-4261. DOI: 10.1021/acs.jctc.1c00471
   
   for ddCOSMO and CPCM-X implicit solvation:
   * M. Stahn, S. Ehlert, S. Grimme, J. Phys. Chem. A,
     2023, XX, XXXX-XXXX. DOI: 10.1021/acs.jpca.3c04382
   
   for DFT-D4:
   * E. Caldeweyher, C. Bannwarth and S. Grimme, J. Chem. Phys., 2017,
     147, 034112. DOI: 10.1063/1.4993215
   * E. Caldeweyher, S. Ehlert, A. Hansen, H. Neugebauer, S. Spicher,
     C. Bannwarth and S. Grimme, J. Chem. Phys., 2019, 150, 154122.
     DOI: 10.1063/1.5090222
   * E. Caldeweyher, J.-M. Mewes, S. Ehlert and S. Grimme, Phys. Chem. Chem. Phys.
     2020, 22, 8499-8512. DOI: 10.1039/D0CP00502A
   
   for sTDA-xTB:
   * S. Grimme and C. Bannwarth, J. Chem. Phys., 2016, 145, 054103.
     DOI: 10.1063/1.4959605
   
   in the mass-spec context:
   * V. Asgeirsson, C. Bauer and S. Grimme, Chem. Sci., 2017, 8, 4879.
     DOI: 10.1039/c7sc00601b
   * J. Koopman and S. Grimme, ACS Omega 2019, 4, 12, 15120-15133.
     DOI: 10.1021/acsomega.9b02011
   
   for metadynamics refer to:
   * S. Grimme, J. Chem. Theory Comput., 2019, 155, 2847-2862
     DOI: 10.1021/acs.jctc.9b00143
   
   for SPH calculations refer to:
   * S. Spicher and S. Grimme, J. Chem. Theory Comput., 2021, 17, 1701-1714
     DOI: 10.1021/acs.jctc.0c01306
   
   for ONIOM refer to:
   * C. Plett, A. Katbashev, S. Ehlert, S. Grimme, M. Bursch,
     Phys. Chem. Chem. Phys., 2023, 25, 17860-17868. DOI: 10.1039/D3CP02178E
   
   for DIPRO refer to:
   * J. Kohn, N. Gildemeister, S. Grimme, D. Fazzi, A. Hansen,
     J. Chem. Phys., 2023, just accepted.
   
   for PTB refer to:
   * S. Grimme, M. Mueller, A. Hansen, J. Chem. Phys., 2023, 158, 124111.
     DOI: 10.1063/5.0137838
   
   with help from (in alphabetical order)
   P. Atkinson, C. Bannwarth, F. Bohle, G. Brandenburg, E. Caldeweyher
   M. Checinski, S. Dohm, S. Ehlert, S. Ehrlich, I. Gerasimov, C. Hölzer
   A. Katbashev, J. Kohn, J. Koopman, C. Lavigne, S. Lehtola, F. März, M. Müller,
   F. Musil, H. Neugebauer, J. Pisarek, C. Plett, P. Pracht, F. Pultar,
   J. Seibert, P. Shushkov, S. Spicher, M. Stahn, M. Steiner, T. Strunk,
   J. Stückrath, T. Rose, and J. Unsleber
   
 * started run on 2025/05/15 at 16:27:48.284     
   ID    Z sym.   atoms
    1    7 N      1, 3, 6, 9, 11
    2    6 C      2, 4, 7, 8, 10, 12-15, 17
    3   17 Cl     5
    4    8 O      16, 18, 19
    5    1 H      20-31

           -------------------------------------------------
          |                Calculation Setup                |
           -------------------------------------------------

          program call               : xtb /rds/general/user/hgt20/home/callum/QDESCP/Cladribine_rdkit_conf_2/Cladribine_rdkit_conf_2.xyz --acc 1 --gfn 2 --chrg 0 --uhf 0 --etemp 300 --input /rds/general/user/hgt20/home/callum/QDESCP/Cladribine_rdkit_conf_2/Cladribine_rdkit_conf_2_xtb.inp -P 1
          hostname                   : login-c
          coordinate file            : /rds/general/user/hgt20/home/callum/QDESCP/Cladribine_rdkit_conf_2/Cladribine_rdkit_conf_2.xyz
          omp threads                :                     1


           -------------------------------------------------
          |                 G F N 2 - x T B                 |
           -------------------------------------------------

        Reference                      10.1021/acs.jctc.8b01176
      * Hamiltonian:
        H0-scaling (s, p, d)           1.850000    2.230000    2.230000
        zeta-weighting                 0.500000
      * Dispersion:
        s8                             2.700000
        a1                             0.520000
        a2                             5.000000
        s9                             5.000000
      * Repulsion:
        kExp                           1.500000    1.000000
        rExp                           1.000000
      * Coulomb:
        alpha                          2.000000
        third order                    shell-resolved
        anisotropic                    true
        a3                             3.000000
        a5                             4.000000
        cn-shift                       1.200000
        cn-exp                         4.000000
        max-rad                        5.000000

q/qsh data taken from xtbrestart
CAMM data taken from xtbrestart

          ...................................................
          :                      SETUP                      :
          :.................................................:
          :  # basis functions                  94          :
          :  # atomic orbitals                  93          :
          :  # shells                           51          :
          :  # electrons                       102          :
          :  max. iterations                   250          :
          :  Hamiltonian                  GFN2-xTB          :
          :  restarted?                       true          :
          :  GBSA solvation                  false          :
          :  PC potential                    false          :
          :  electronic temp.          300.0000000     K    :
          :  accuracy                    1.0000000          :
          :  -> integral cutoff          0.2500000E+02      :
          :  -> integral neglect         0.1000000E-07      :
          :  -> SCF convergence          0.1000000E-05 Eh   :
          :  -> wf. convergence          0.1000000E-03 e    :
          :  Broyden damping             0.4000000          :
          :  net charge                          0          :
          :  unpaired electrons                  0          :
          ...................................................

 iter      E             dE          RMSdq      gap      omega  full diag
   1    -59.5672768 -0.595673E+02  0.256E-05    3.24       0.0  T
   2    -59.5672768 -0.291323E-11  0.208E-05    3.24     864.7  T
   3    -59.5672768 -0.121503E-11  0.163E-05    3.24    1101.2  T

   *** convergence criteria satisfied after 3 iterations ***

         #    Occupation            Energy/Eh            Energy/eV
      -------------------------------------------------------------
         1        2.0000           -1.0548233             -28.7032
       ...           ...                  ...                  ...
        45        2.0000           -0.4257731             -11.5859
        46        2.0000           -0.4238801             -11.5344
        47        2.0000           -0.4216835             -11.4746
        48        2.0000           -0.4101995             -11.1621
        49        2.0000           -0.3975520             -10.8179
        50        2.0000           -0.3957791             -10.7697
        51        2.0000           -0.3865966             -10.5198 (HOMO)
        52                         -0.2673473              -7.2749 (LUMO)
        53                         -0.2436237              -6.6293
        54                         -0.2119281              -5.7669
        55                         -0.1376036              -3.7444
        56                         -0.1158954              -3.1537
       ...                                ...                  ...
        93                          0.6422299              17.4760
      -------------------------------------------------------------
                  HL-Gap            0.1192493 Eh            3.2449 eV
             Fermi-level           -0.3269720 Eh           -8.8974 eV

 SCC (total)                   0 d,  0 h,  0 min,  0.028 sec
 SCC setup                      ...        0 min,  0.000 sec (  0.925%)
 Dispersion                     ...        0 min,  0.000 sec (  0.939%)
 classical contributions        ...        0 min,  0.000 sec (  0.307%)
 integral evaluation            ...        0 min,  0.006 sec ( 21.351%)
 iterations                     ...        0 min,  0.006 sec ( 20.484%)
 molecular gradient             ...        0 min,  0.016 sec ( 55.364%)
 printout                       ...        0 min,  0.000 sec (  0.607%)

         :::::::::::::::::::::::::::::::::::::::::::::::::::::
         ::                     SUMMARY                     ::
         :::::::::::::::::::::::::::::::::::::::::::::::::::::
         :: total energy             -58.967695682602 Eh    ::
         :: gradient norm              0.000319354302 Eh/a0 ::
         :: HOMO-LUMO gap              3.244937925179 eV    ::
         ::.................................................::
         :: SCC energy               -59.566923089521 Eh    ::
         :: -> isotropic ES            0.113922226434 Eh    ::
         :: -> anisotropic ES         -0.002334386525 Eh    ::
         :: -> anisotropic XC          0.017903743974 Eh    ::
         :: -> dispersion             -0.035342271163 Eh    ::
         :: repulsion energy           0.599227406919 Eh    ::
         :: add. restraining           0.000000000000 Eh    ::
         :: total charge              -0.000000000000 e     ::
         :::::::::::::::::::::::::::::::::::::::::::::::::::::

           -------------------------------------------------
          |                Property Printout                |
           -------------------------------------------------

    * Orbital Energies and Occupations

         #    Occupation            Energy/Eh            Energy/eV
      -------------------------------------------------------------
         1        2.0000           -1.0548233             -28.7032
       ...           ...                  ...                  ...
        39        2.0000           -0.4618402             -12.5673
        40        2.0000           -0.4580666             -12.4646
        41        2.0000           -0.4531952             -12.3321
        42        2.0000           -0.4440628             -12.0836
        43        2.0000           -0.4385857             -11.9345
        44        2.0000           -0.4289198             -11.6715
        45        2.0000           -0.4257731             -11.5859
        46        2.0000           -0.4238801             -11.5344
        47        2.0000           -0.4216835             -11.4746
        48        2.0000           -0.4101995             -11.1621
        49        2.0000           -0.3975520             -10.8179
        50        2.0000           -0.3957791             -10.7697
        51        2.0000           -0.3865966             -10.5198 (HOMO)
        52                         -0.2673473              -7.2749 (LUMO)
        53                         -0.2436237              -6.6293
        54                         -0.2119281              -5.7669
        55                         -0.1376036              -3.7444
        56                         -0.1158954              -3.1537
        57                         -0.0318772              -0.8674
        58                         -0.0038178              -0.1039
        59                          0.0044367               0.1207
        60                          0.0152499               0.4150
        61                          0.0168700               0.4591
        62                          0.0171909               0.4678
       ...                                ...                  ...
        93                          0.6422299              17.4760
      -------------------------------------------------------------
                  HL-Gap            0.1192493 Eh            3.2449 eV
             Fermi-level           -0.3269720 Eh           -8.8974 eV

     #   Z          covCN         q      C6AA      α(0)
     1   7 N        2.647    -0.228    25.992     7.572
     2   6 C        2.880     0.175    24.245     8.072
     3   7 N        1.926    -0.300    28.609     7.931
     4   6 C        2.905     0.261    22.613     7.797
     5  17 Cl       1.048    -0.113   102.678    15.503
     6   7 N        1.906    -0.313    28.951     7.977
     7   6 C        3.162     0.145    24.559     8.100
     8   6 C        3.228     0.010    26.998     8.439
     9   7 N        1.883    -0.265    27.733     7.807
    10   6 C        3.192     0.099    25.333     8.209
    11   7 N        2.825    -0.059    22.380     7.026
    12   6 C        3.724     0.186    17.743     6.015
    13   6 C        3.818    -0.085    22.102     6.691
    14   6 C        3.746     0.113    18.788     6.183
    15   6 C        3.778     0.092    19.082     6.223
    16   8 O        1.702    -0.318    19.303     5.932
    17   6 C        3.674     0.070    19.633     6.349
    18   8 O        1.655    -0.452    21.882     6.315
    19   8 O        1.656    -0.443    21.709     6.290
    20   1 H        0.861     0.205     1.080     1.628
    21   1 H        0.860     0.206     1.075     1.624
    22   1 H        0.926     0.053     2.281     2.362
    23   1 H        0.923     0.039     2.456     2.451
    24   1 H        0.925     0.046     2.371     2.408
    25   1 H        0.925     0.072     2.066     2.248
    26   1 H        0.924     0.043     2.410     2.428
    27   1 H        0.924     0.058     2.222     2.331
    28   1 H        0.924     0.038     2.472     2.459
    29   1 H        0.924     0.049     2.330     2.387
    30   1 H        0.803     0.317     0.672     1.288
    31   1 H        0.805     0.296     0.733     1.344

 Mol. C6AA /au·bohr⁶  :      12617.315131
 Mol. C8AA /au·bohr⁸  :     308188.581965
 Mol. α(0) /au        :        169.388070


Wiberg/Mayer (AO) data.
largest (>0.10) Wiberg bond orders for each atom

 ---------------------------------------------------------------------------
     #   Z sym  total        # sym  WBO       # sym  WBO       # sym  WBO
 ---------------------------------------------------------------------------
     1   7 N    3.407 --     2 C    1.286    20 H    0.941    21 H    0.938
     2   6 C    3.972 --     3 N    1.315     1 N    1.286     8 C    1.219
     3   7 N    3.037 --     4 C    1.393     2 C    1.315
     4   6 C    3.939 --     6 N    1.402     3 N    1.393     5 Cl   1.006
     5  17 Cl   1.177 --     4 C    1.006
     6   7 N    3.060 --     4 C    1.402     7 C    1.278
     7   6 C    3.960 --     6 N    1.278     8 C    1.276    11 N    1.178
     8   6 C    3.972 --     7 C    1.276     2 C    1.219     9 N    1.208
     9   7 N    3.025 --    10 C    1.606     8 C    1.208    11 N    0.105
    10   6 C    3.950 --     9 N    1.606    11 N    1.195    22 H    0.961
    11   7 N    3.608 --    10 C    1.195     7 C    1.178    12 C    0.967
                             9 N    0.105
    12   6 C    3.943 --    16 O    0.987    13 C    0.975    11 N    0.967
[...]
     |          Mulliken Center for Theoretical Chemistry        |     
     |                    University of Bonn                     |     
      -----------------------------------------------------------      

   * xtb version 6.7.1 (edcfbbe) compiled by 'conda@3ef47c1a292c' on 2024-11-25

   xtb is free software: you can redistribute it and/or modify it under
   the terms of the GNU Lesser General Public License as published by
   the Free Software Foundation, either version 3 of the License, or
   (at your option) any later version.
   
   xtb is distributed in the hope that it will be useful,
   but WITHOUT ANY WARRANTY; without even the implied warranty of
   MERCHANTABILITY or FITNESS FOR A PARTICULAR PURPOSE.  See the
   GNU Lesser General Public License for more details.
   
   Cite this work as:
   * C. Bannwarth, E. Caldeweyher, S. Ehlert, A. Hansen, P. Pracht,
     J. Seibert, S. Spicher, S. Grimme, WIREs Comput. Mol. Sci., 2020, 11,
     e01493. DOI: 10.1002/wcms.1493
   
   for GFN2-xTB:
   * C. Bannwarth, S. Ehlert and S. Grimme., J. Chem. Theory Comput., 2019,
     15, 1652-1671. DOI: 10.1021/acs.jctc.8b01176
   for GFN1-xTB:
   * S. Grimme, C. Bannwarth, P. Shushkov, J. Chem. Theory Comput., 2017,
     13, 1989-2009. DOI: 10.1021/acs.jctc.7b00118
   for GFN0-xTB:
   * P. Pracht, E. Caldeweyher, S. Ehlert, S. Grimme, ChemRxiv, 2019, preprint.
     DOI: 10.26434/chemrxiv.8326202.v1
   for GFN-FF:
   * S. Spicher and S. Grimme, Angew. Chem. Int. Ed., 2020, 59, 15665-15673.
     DOI: 10.1002/anie.202004239
   
   for ALPB and GBSA implicit solvation:
   * S. Ehlert, M. Stahn, S. Spicher, S. Grimme, J. Chem. Theory Comput.,
     2021, 17, 4250-4261. DOI: 10.1021/acs.jctc.1c00471
   
   for ddCOSMO and CPCM-X implicit solvation:
   * M. Stahn, S. Ehlert, S. Grimme, J. Phys. Chem. A,
     2023, XX, XXXX-XXXX. DOI: 10.1021/acs.jpca.3c04382
   
   for DFT-D4:
   * E. Caldeweyher, C. Bannwarth and S. Grimme, J. Chem. Phys., 2017,
     147, 034112. DOI: 10.1063/1.4993215
   * E. Caldeweyher, S. Ehlert, A. Hansen, H. Neugebauer, S. Spicher,
     C. Bannwarth and S. Grimme, J. Chem. Phys., 2019, 150, 154122.
     DOI: 10.1063/1.5090222
   * E. Caldeweyher, J.-M. Mewes, S. Ehlert and S. Grimme, Phys. Chem. Chem. Phys.
     2020, 22, 8499-8512. DOI: 10.1039/D0CP00502A
   
   for sTDA-xTB:
   * S. Grimme and C. Bannwarth, J. Chem. Phys., 2016, 145, 054103.
     DOI: 10.1063/1.4959605
   
   in the mass-spec context:
   * V. Asgeirsson, C. Bauer and S. Grimme, Chem. Sci., 2017, 8, 4879.
     DOI: 10.1039/c7sc00601b
   * J. Koopman and S. Grimme, ACS Omega 2019, 4, 12, 15120-15133.
     DOI: 10.1021/acsomega.9b02011
   
   for metadynamics refer to:
   * S. Grimme, J. Chem. Theory Comput., 2019, 155, 2847-2862
     DOI: 10.1021/acs.jctc.9b00143
   
   for SPH calculations refer to:
   * S. Spicher and S. Grimme, J. Chem. Theory Comput., 2021, 17, 1701-1714
     DOI: 10.1021/acs.jctc.0c01306
   
   for ONIOM refer to:
   * C. Plett, A. Katbashev, S. Ehlert, S. Grimme, M. Bursch,
     Phys. Chem. Chem. Phys., 2023, 25, 17860-17868. DOI: 10.1039/D3CP02178E
   
   for DIPRO refer to:
   * J. Kohn, N. Gildemeister, S. Grimme, D. Fazzi, A. Hansen,
     J. Chem. Phys., 2023, just accepted.
   
   for PTB refer to:
   * S. Grimme, M. Mueller, A. Hansen, J. Chem. Phys., 2023, 158, 124111.
     DOI: 10.1063/5.0137838
   
   with help from (in alphabetical order)
   P. Atkinson, C. Bannwarth, F. Bohle, G. Brandenburg, E. Caldeweyher
   M. Checinski, S. Dohm, S. Ehlert, S. Ehrlich, I. Gerasimov, C. Hölzer
   A. Katbashev, J. Kohn, J. Koopman, C. Lavigne, S. Lehtola, F. März, M. Müller,
   F. Musil, H. Neugebauer, J. Pisarek, C. Plett, P. Pracht, F. Pultar,
   J. Seibert, P. Shushkov, S. Spicher, M. Stahn, M. Steiner, T. Strunk,
   J. Stückrath, T. Rose, and J. Unsleber
   
 * started run on 2025/05/15 at 16:27:50.139     
   ID    Z sym.   atoms
    1    7 N      1, 3, 6, 9, 11
    2    6 C      2, 4, 7, 8, 10, 12-15, 17
    3   17 Cl     5
    4    8 O      16, 18, 19
    5    1 H      20-31

           -------------------------------------------------
          |                Calculation Setup                |
           -------------------------------------------------

          program call               : xtb /rds/general/user/hgt20/home/callum/QDESCP/Cladribine_rdkit_conf_2/Cladribine_rdkit_conf_2.xyz --acc 1 --gfn 2 --chrg 0 --uhf 2 --etemp 300 --input /rds/general/user/hgt20/home/callum/QDESCP/Cladribine_rdkit_conf_2/Cladribine_rdkit_conf_2_xtb.inp -P 1
          hostname                   : login-c
          coordinate file            : /rds/general/user/hgt20/home/callum/QDESCP/Cladribine_rdkit_conf_2/Cladribine_rdkit_conf_2.xyz
          omp threads                :                     1


           -------------------------------------------------
          |                 G F N 2 - x T B                 |
           -------------------------------------------------

        Reference                      10.1021/acs.jctc.8b01176
      * Hamiltonian:
        H0-scaling (s, p, d)           1.850000    2.230000    2.230000
        zeta-weighting                 0.500000
      * Dispersion:
        s8                             2.700000
        a1                             0.520000
        a2                             5.000000
        s9                             5.000000
      * Repulsion:
        kExp                           1.500000    1.000000
        rExp                           1.000000
      * Coulomb:
        alpha                          2.000000
        third order                    shell-resolved
        anisotropic                    true
        a3                             3.000000
        a5                             4.000000
        cn-shift                       1.200000
        cn-exp                         4.000000
        max-rad                        5.000000


          ...................................................
          :                      SETUP                      :
          :.................................................:
          :  # basis functions                  94          :
          :  # atomic orbitals                  93          :
          :  # shells                           51          :
          :  # electrons                       102          :
          :  max. iterations                   250          :
          :  Hamiltonian                  GFN2-xTB          :
          :  restarted?                      false          :
          :  GBSA solvation                  false          :
          :  PC potential                    false          :
          :  electronic temp.          300.0000000     K    :
          :  accuracy                    1.0000000          :
          :  -> integral cutoff          0.2500000E+02      :
          :  -> integral neglect         0.1000000E-07      :
          :  -> SCF convergence          0.1000000E-05 Eh   :
          :  -> wf. convergence          0.1000000E-03 e    :
          :  Broyden damping             0.4000000          :
          :  net charge                          0          :
          :  unpaired electrons                  2          :
          ...................................................

 iter      E             dE          RMSdq      gap      omega  full diag
   1    -59.1812291 -0.591812E+02  0.458E+00    0.35       0.0  T
   2    -59.3419803 -0.160751E+00  0.303E+00    0.88       1.0  T
   3    -59.3853734 -0.433930E-01  0.200E+00    0.54       1.0  T
   4    -59.3245015  0.608718E-01  0.167E+00    0.74       1.0  T
   5    -59.3904447 -0.659432E-01  0.125E+00    0.36       1.0  T
   6    -59.4332427 -0.427980E-01  0.397E-01    0.41       1.0  T
   7    -59.4377355 -0.449285E-02  0.177E-01    0.42       1.0  T
   8    -59.4382204 -0.484838E-03  0.836E-02    0.41       1.0  T
   9    -59.4382538 -0.334477E-04  0.555E-02    0.41       1.0  T
  10    -59.4382869 -0.331249E-04  0.368E-02    0.41       1.0  T
  11    -59.4383205 -0.335593E-04  0.164E-02    0.41       1.1  T
  12    -59.4383217 -0.118495E-05  0.138E-02    0.41       1.3  T
  13    -59.4383244 -0.267780E-05  0.774E-03    0.41       2.3  T
  14    -59.4383253 -0.903666E-06  0.470E-03    0.41       3.8  T
  15    -59.4383256 -0.292333E-06  0.190E-03    0.41       9.5  T
  16    -59.4383256 -0.313209E-07  0.992E-04    0.41      18.1  T
  17    -59.4383256 -0.133163E-07  0.513E-04    0.41      35.0  T

   *** convergence criteria satisfied after 17 iterations ***

         #    Occupation            Energy/Eh            Energy/eV
      -------------------------------------------------------------
         1        2.0000           -1.0530734             -28.6556
       ...           ...                  ...                  ...
        46        2.0000           -0.4232689             -11.5177
        47        2.0000           -0.4219451             -11.4817
        48        2.0000           -0.4146826             -11.2841
        49        2.0000           -0.4032454             -10.9729
        50        1.5711           -0.3931553             -10.6983
        51        1.4289           -0.3926110             -10.6835
        52        0.9996           -0.2561229              -6.9695 (HOMO)
        53        0.0004           -0.2411138              -6.5610 (LUMO)
        54                         -0.2054294              -5.5900
        55                         -0.1339042              -3.6437
        56                         -0.1118800              -3.0444
        57                         -0.0320764              -0.8728
       ...                                ...                  ...
        93                          0.6444577              17.5366
      -------------------------------------------------------------
                  HL-Gap            0.0150091 Eh            0.4084 eV
             Fermi-level           -0.3207507 Eh           -8.7281 eV

 transition dipole moment (au) for excitation:          51          52
     X       Y       Z   
  -0.1651  -0.2392   0.0034  total (au/Debye):    0.291   0.739
 dE (eV)             :    3.714
 oscillator strength :  0.10871E-01

 SCC (total)                   0 d,  0 h,  0 min,  0.080 sec
 SCC setup                      ...        0 min,  0.000 sec (  0.312%)
 Dispersion                     ...        0 min,  0.000 sec (  0.348%)
 classical contributions        ...        0 min,  0.000 sec (  0.105%)
 integral evaluation            ...        0 min,  0.006 sec (  7.531%)
 iterations                     ...        0 min,  0.051 sec ( 63.692%)
 molecular gradient             ...        0 min,  0.016 sec ( 20.414%)
 printout                       ...        0 min,  0.006 sec (  7.590%)

         :::::::::::::::::::::::::::::::::::::::::::::::::::::
         ::                     SUMMARY                     ::
         :::::::::::::::::::::::::::::::::::::::::::::::::::::
         :: total energy             -58.838744459448 Eh    ::
         :: gradient norm              0.127976696014 Eh/a0 ::
         :: HOMO-LUMO gap              0.408417129008 eV    ::
         ::.................................................::
         :: SCC energy               -59.437971866367 Eh    ::
         :: -> isotropic ES            0.104743483801 Eh    ::
         :: -> anisotropic ES         -0.001297255450 Eh    ::
         :: -> anisotropic XC          0.010855116808 Eh    ::
         :: -> dispersion             -0.035275958786 Eh    ::
         :: repulsion energy           0.599227406919 Eh    ::
         :: add. restraining           0.000000000000 Eh    ::
         :: total charge              -0.000000000000 e     ::
         :::::::::::::::::::::::::::::::::::::::::::::::::::::

           -------------------------------------------------
          |                Property Printout                |
           -------------------------------------------------

    * Orbital Energies and Occupations

         #    Occupation            Energy/Eh            Energy/eV
      -------------------------------------------------------------
         1        2.0000           -1.0530734             -28.6556
       ...           ...                  ...                  ...
        40        2.0000           -0.4582918             -12.4708
        41        2.0000           -0.4558443             -12.4042
        42        2.0000           -0.4461692             -12.1409
        43        2.0000           -0.4409046             -11.9976
        44        2.0000           -0.4321114             -11.7583
        45        2.0000           -0.4272876             -11.6271
        46        2.0000           -0.4232689             -11.5177
        47        2.0000           -0.4219451             -11.4817
        48        2.0000           -0.4146826             -11.2841
        49        2.0000           -0.4032454             -10.9729
        50        1.5711           -0.3931553             -10.6983
        51        1.4289           -0.3926110             -10.6835
        52        0.9996           -0.2561229              -6.9695 (HOMO)
        53        0.0004           -0.2411138              -6.5610 (LUMO)
        54                         -0.2054294              -5.5900
        55                         -0.1339042              -3.6437
        56                         -0.1118800              -3.0444
        57                         -0.0320764              -0.8728
        58                         -0.0005112              -0.0139
        59                          0.0031076               0.0846
        60                          0.0165016               0.4490
        61                          0.0184430               0.5019
        62                          0.0188864               0.5139
        63                          0.0204734               0.5571
       ...                                ...                  ...
        93                          0.6444577              17.5366
      -------------------------------------------------------------
                  HL-Gap            0.0150091 Eh            0.4084 eV
             Fermi-level           -0.3207507 Eh           -8.7281 eV

     #   Z          covCN         q      C6AA      α(0)
     1   7 N        2.647    -0.227    25.970     7.569
     2   6 C        2.880     0.122    25.327     8.250
     3   7 N        1.926    -0.255    27.469     7.771
     4   6 C        2.905     0.222    23.335     7.921
     5  17 Cl       1.048    -0.115   102.749    15.508
     6   7 N        1.906    -0.292    28.410     7.902
     7   6 C        3.162     0.150    24.451     8.083
     8   6 C        3.228     0.032    26.511     8.363
     9   7 N        1.883    -0.247    27.298     7.745
    10   6 C        3.192     0.070    25.960     8.310
    11   7 N        2.825    -0.065    22.492     7.044
    12   6 C        3.724     0.185    17.759     6.018
    13   6 C        3.818    -0.085    22.112     6.692
    14   6 C        3.746     0.113    18.795     6.184
    15   6 C        3.778     0.092    19.078     6.223
    16   8 O        1.702    -0.313    19.218     5.919
    17   6 C        3.674     0.069    19.641     6.351
    18   8 O        1.655    -0.441    21.655     6.282
    19   8 O        1.656    -0.443    21.698     6.288
    20   1 H        0.861     0.199     1.113     1.653
    21   1 H        0.860     0.201     1.100     1.643
    22   1 H        0.926     0.044     2.393     2.419
    23   1 H        0.923     0.047     2.358     2.402
    24   1 H        0.925     0.049     2.338     2.391
    25   1 H        0.925     0.071     2.077     2.254
    26   1 H        0.924     0.043     2.408     2.427
    27   1 H        0.924     0.062     2.180     2.309
    28   1 H        0.924     0.042     2.419     2.432
    29   1 H        0.924     0.055     2.256     2.349
    30   1 H        0.803     0.318     0.671     1.287
    31   1 H        0.805     0.297     0.729     1.341

 Mol. C6AA /au·bohr⁶  :      12603.244548
 Mol. C8AA /au·bohr⁸  :     308066.568959
 Mol. α(0) /au        :        169.326895


Wiberg/Mayer (AO) data.
largest (>0.10) Wiberg bond orders for each atom

 ---------------------------------------------------------------------------
     #   Z sym  total        # sym  WBO       # sym  WBO       # sym  WBO
 ---------------------------------------------------------------------------
     1   7 N    3.274 --     2 C    1.223    20 H    0.944    21 H    0.941
     2   6 C    3.870 --     3 N    1.285     1 N    1.223     8 C    1.094
     3   7 N    3.047 --     4 C    1.404     2 C    1.285
     4   6 C    3.843 --     3 N    1.404     6 N    1.191     5 Cl   0.995
     5  17 Cl   1.154 --     4 C    0.995
     6   7 N    2.913 --     7 C    1.289     4 C    1.191
     7   6 C    3.905 --     6 N    1.289     8 C    1.222    11 N    1.183
     8   6 C    3.832 --     9 N    1.304     7 C    1.222     2 C    1.094
     9   7 N    3.011 --    10 C    1.402     8 C    1.304
    10   6 C    3.802 --     9 N    1.402    11 N    1.152    22 H    0.963
    11   7 N    3.579 --     7 C    1.183    10 C    1.152    12 C    0.972
    12   6 C    3.942 --    16 O    0.985    13 C    0.973    11 N    0.972
                            23 H    0.946
    13   6 C    3.989 --    14 C    0.984    24 H    0.976    12 C    0.973
                            25 H    0.969
    14   6 C    3.958 --    19 O    0.995    13 C    0.984    15 C    0.973
                            26 H    0.961
    15   6 C    3.935 --    14 C    0.973    17 C    0.966    16 O    0.957
                            27 H    0.957
    16   8 O    2.084 --    12 C    0.985    15 C    0.957
    17   6 C    3.960 --    18 O    1.026    28 H    0.966    15 C    0.966
                            29 H    0.966
    18   8 O    1.956 --    17 C    1.026    30 H    0.839
    19   8 O    1.962 --    14 C    0.995    31 H    0.895
    20   1 H    0.960 --     1 N    0.944
    21   1 H    0.957 --     1 N    0.941
    22   1 H    0.997 --    10 C    0.963
    23   1 H    0.992 --    12 C    0.946
    24   1 H    0.998 --    13 C    0.976
    25   1 H    0.995 --    13 C    0.969
    26   1 H    0.998 --    14 C    0.961
    27   1 H    0.994 --    15 C    0.957
    28   1 H    0.998 --    17 C    0.966
    29   1 H    0.992 --    17 C    0.966
    30   1 H    0.899 --    18 O    0.839
    31   1 H    0.911 --    19 O    0.895
 ---------------------------------------------------------------------------

Topologies differ in total number of bonds
Writing topology from bond orders to xtbtopo.mol

molecular dipole:
                 x           y           z       tot (Debye)
 q only:        0.749      -1.038       0.419
   full:        0.809      -1.450       0.507       4.413
molecular quadrupole (traceless):
                xx          xy          yy          xz          yz          zz
 q only:       17.150       9.492     -12.599      -2.665      -8.525      -4.552
  q+dip:       14.173      11.564     -12.917      -3.944     -11.441      -1.255
   full:       13.664      11.258     -13.730      -3.545     -11.789       0.066


           -------------------------------------------------
          | TOTAL ENERGY              -58.838744459448 Eh   |
          | GRADIENT NORM               0.127976696014 Eh/α |
          | HOMO-LUMO GAP               0.408417129008 eV   |
           -------------------------------------------------

------------------------------------------------------------------------
 * finished run on 2025/05/15 at 16:27:50.231     
------------------------------------------------------------------------
 total:
 * wall-time:     0 d,  0 h,  0 min,  0.091 sec
 *  cpu-time:     0 d,  0 h,  0 min,  0.065 sec
 * ratio c/w:     0.713 speedup
 SCF:
 * wall-time:     0 d,  0 h,  0 min,  0.080 sec
 *  cpu-time:     0 d,  0 h,  0 min,  0.055 sec
 * ratio c/w:     0.684 speedup


