31
 energy: -58.967695682575 gnorm: 0.000319189996 xtb: 6.7.1 (edcfbbe)
N            4.68734103124957        1.71426448902506       -0.04359621951226
C            3.36248129065817        1.55473655335523        0.05297885156853
N            2.60497096279547        2.62951423396611        0.29240184076659
C            1.29986474101977        2.48412294130139        0.39936128388364
Cl           0.42503867237182        3.91469360674230        0.70630182154293
N            0.57803659591177        1.38377563428813        0.30527729801450
C            1.32203007277045        0.30186074898663        0.05548362827425
C            2.72110385310969        0.30959441753034       -0.07915868255796
N            3.16553372789650       -0.96296240018478       -0.32992908877177
C            2.09384392562098       -1.69009033266594       -0.35171302353066
N            0.93727463982219       -0.99533418695691       -0.11336924436127
C           -0.40575067117785       -1.51399879027967       -0.12602511452785
C           -1.14769296803148       -1.31734747834177        1.20121092686002
C           -2.60705616414298       -1.24539642981452        0.73906488047836
C           -2.48737892780436       -0.62357682835075       -0.66211615018963
O           -1.14983619720945       -0.84169074729801       -1.10536598086029
C           -2.81394349207211        0.88117958812044       -0.65833724630604
O           -2.27800161093218        1.55798395339263        0.43900433556733
O           -3.20294642445428       -2.51510650397769        0.61272280370930
H            5.26428707847314        0.91936140557525       -0.25087497414231
H            5.07534269154389        2.63681964533424        0.04122822143322
H            2.08963612624728       -2.74752328730964       -0.52959760899828
H           -0.32962639482163       -2.58539052387627       -0.37924136417604
H           -0.96561504449305       -2.13309128409562        1.89845754458654
H           -0.85503939215037       -0.36844849583406        1.64905029434481
H           -3.20337324350451       -0.59811207323824        1.39239219782966
H           -3.16068218246273       -1.14489488490032       -1.35263931982736
H           -2.46126843629500        1.30530716990520       -1.60714622809626
H           -3.89880789556141        1.00295517099099       -0.59697968690311
H           -1.30393546112611        1.56967457291901        0.35889757875543
H           -3.35593090325186       -2.88297988430825        1.48995642514579
