----- Optimization -----
      -----------------------------------------------------------      
     |                   =====================                   |     
     |                           x T B                           |     
     |                   =====================                   |     
     |                         S. Grimme                         |     
     |          Mulliken Center for Theoretical Chemistry        |     
     |                    University of Bonn                     |     
      -----------------------------------------------------------      

   * xtb version 6.7.1 (edcfbbe) compiled by 'conda@3ef47c1a292c' on 2024-11-25

   xtb is free software: you can redistribute it and/or modify it under
   the terms of the GNU Lesser General Public License as published by
   the Free Software Foundation, either version 3 of the License, or
   (at your option) any later version.
   
   xtb is distributed in the hope that it will be useful,
   but WITHOUT ANY WARRANTY; without even the implied warranty of
   MERCHANTABILITY or FITNESS FOR A PARTICULAR PURPOSE.  See the
   GNU Lesser General Public License for more details.
   
   Cite this work as:
   * C. Bannwarth, E. Caldeweyher, S. Ehlert, A. Hansen, P. Pracht,
     J. Seibert, S. Spicher, S. Grimme, WIREs Comput. Mol. Sci., 2020, 11,
     e01493. DOI: 10.1002/wcms.1493
   
   for GFN2-xTB:
   * C. Bannwarth, S. Ehlert and S. Grimme., J. Chem. Theory Comput., 2019,
     15, 1652-1671. DOI: 10.1021/acs.jctc.8b01176
   for GFN1-xTB:
   * S. Grimme, C. Bannwarth, P. Shushkov, J. Chem. Theory Comput., 2017,
     13, 1989-2009. DOI: 10.1021/acs.jctc.7b00118
   for GFN0-xTB:
   * P. Pracht, E. Caldeweyher, S. Ehlert, S. Grimme, ChemRxiv, 2019, preprint.
     DOI: 10.26434/chemrxiv.8326202.v1
   for GFN-FF:
   * S. Spicher and S. Grimme, Angew. Chem. Int. Ed., 2020, 59, 15665-15673.
     DOI: 10.1002/anie.202004239
   
   for ALPB and GBSA implicit solvation:
   * S. Ehlert, M. Stahn, S. Spicher, S. Grimme, J. Chem. Theory Comput.,
     2021, 17, 4250-4261. DOI: 10.1021/acs.jctc.1c00471
   
   for ddCOSMO and CPCM-X implicit solvation:
   * M. Stahn, S. Ehlert, S. Grimme, J. Phys. Chem. A,
     2023, XX, XXXX-XXXX. DOI: 10.1021/acs.jpca.3c04382
   
   for DFT-D4:
   * E. Caldeweyher, C. Bannwarth and S. Grimme, J. Chem. Phys., 2017,
     147, 034112. DOI: 10.1063/1.4993215
   * E. Caldeweyher, S. Ehlert, A. Hansen, H. Neugebauer, S. Spicher,
     C. Bannwarth and S. Grimme, J. Chem. Phys., 2019, 150, 154122.
     DOI: 10.1063/1.5090222
   * E. Caldeweyher, J.-M. Mewes, S. Ehlert and S. Grimme, Phys. Chem. Chem. Phys.
     2020, 22, 8499-8512. DOI: 10.1039/D0CP00502A
   
   for sTDA-xTB:
   * S. Grimme and C. Bannwarth, J. Chem. Phys., 2016, 145, 054103.
     DOI: 10.1063/1.4959605
   
   in the mass-spec context:
   * V. Asgeirsson, C. Bauer and S. Grimme, Chem. Sci., 2017, 8, 4879.
     DOI: 10.1039/c7sc00601b
   * J. Koopman and S. Grimme, ACS Omega 2019, 4, 12, 15120-15133.
     DOI: 10.1021/acsomega.9b02011
   
   for metadynamics refer to:
   * S. Grimme, J. Chem. Theory Comput., 2019, 155, 2847-2862
     DOI: 10.1021/acs.jctc.9b00143
   
   for SPH calculations refer to:
   * S. Spicher and S. Grimme, J. Chem. Theory Comput., 2021, 17, 1701-1714
     DOI: 10.1021/acs.jctc.0c01306
   
   for ONIOM refer to:
   * C. Plett, A. Katbashev, S. Ehlert, S. Grimme, M. Bursch,
     Phys. Chem. Chem. Phys., 2023, 25, 17860-17868. DOI: 10.1039/D3CP02178E
   
   for DIPRO refer to:
   * J. Kohn, N. Gildemeister, S. Grimme, D. Fazzi, A. Hansen,
     J. Chem. Phys., 2023, just accepted.
   
   for PTB refer to:
   * S. Grimme, M. Mueller, A. Hansen, J. Chem. Phys., 2023, 158, 124111.
     DOI: 10.1063/5.0137838
   
   with help from (in alphabetical order)
   P. Atkinson, C. Bannwarth, F. Bohle, G. Brandenburg, E. Caldeweyher
   M. Checinski, S. Dohm, S. Ehlert, S. Ehrlich, I. Gerasimov, C. Hölzer
   A. Katbashev, J. Kohn, J. Koopman, C. Lavigne, S. Lehtola, F. März, M. Müller,
   F. Musil, H. Neugebauer, J. Pisarek, C. Plett, P. Pracht, F. Pultar,
   J. Seibert, P. Shushkov, S. Spicher, M. Stahn, M. Steiner, T. Strunk,
   J. Stückrath, T. Rose, and J. Unsleber
   
 * started run on 2025/05/15 at 16:09:36.135     
   ID    Z sym.   atoms
    1    8 O      1, 3, 21
    2    6 C      2, 4, 5, 7-9, 11, 12, 14-16, 18-20, 22-24
    3    7 N      6, 10, 13
    4    9 F      17
    5    1 H      25-42

           -------------------------------------------------
          |                Calculation Setup                |
           -------------------------------------------------

          program call               : xtb /rds/general/user/hgt20/home/callum/QDESCP/Ciprofloxacin_rdkit_conf_16/Ciprofloxacin_rdkit_conf_16.xyz --opt normal --acc 1 --gfn 2 --chrg 0 --uhf 0 -P 1
          hostname                   : login-c
          coordinate file            : /rds/general/user/hgt20/home/callum/QDESCP/Ciprofloxacin_rdkit_conf_16/Ciprofloxacin_rdkit_conf_16.xyz
          omp threads                :                     1


           -------------------------------------------------
          |                 G F N 2 - x T B                 |
           -------------------------------------------------

        Reference                      10.1021/acs.jctc.8b01176
      * Hamiltonian:
        H0-scaling (s, p, d)           1.850000    2.230000    2.230000
        zeta-weighting                 0.500000
      * Dispersion:
        s8                             2.700000
        a1                             0.520000
        a2                             5.000000
        s9                             5.000000
      * Repulsion:
        kExp                           1.500000    1.000000
        rExp                           1.000000
      * Coulomb:
        alpha                          2.000000
        third order                    shell-resolved
        anisotropic                    true
        a3                             3.000000
        a5                             4.000000
        cn-shift                       1.200000
        cn-exp                         4.000000
        max-rad                        5.000000


          ...................................................
          :                      SETUP                      :
          :.................................................:
          :  # basis functions                 114          :
          :  # atomic orbitals                 114          :
          :  # shells                           66          :
          :  # electrons                       126          :
          :  max. iterations                   250          :
          :  Hamiltonian                  GFN2-xTB          :
          :  restarted?                      false          :
          :  GBSA solvation                  false          :
          :  PC potential                    false          :
          :  electronic temp.          300.0000000     K    :
          :  accuracy                    1.0000000          :
          :  -> integral cutoff          0.2500000E+02      :
          :  -> integral neglect         0.1000000E-07      :
          :  -> SCF convergence          0.1000000E-05 Eh   :
          :  -> wf. convergence          0.1000000E-03 e    :
          :  Broyden damping             0.4000000          :
          :  net charge                          0          :
          :  unpaired electrons                  0          :
          ...................................................

 iter      E             dE          RMSdq      gap      omega  full diag
   1    -71.9782294 -0.719782E+02  0.412E+00    2.21       0.0  T
   2    -72.0976483 -0.119419E+00  0.250E+00    2.33       1.0  T
   3    -72.1085465 -0.108982E-01  0.144E+00    2.29       1.0  T
   4    -72.1252244 -0.166779E-01  0.466E-01    2.20       1.0  T
   5    -72.1319815 -0.675715E-02  0.112E-01    2.18       1.0  T
   6    -72.1322069 -0.225422E-03  0.528E-02    2.18       1.0  T
   7    -72.1322385 -0.315308E-04  0.228E-02    2.19       1.0  T
   8    -72.1322409 -0.247020E-05  0.913E-03    2.19       1.7  T
   9    -72.1322426 -0.164649E-05  0.406E-03    2.19       3.8  T
  10    -72.1322427 -0.113310E-06  0.156E-03    2.19       9.9  T
  11    -72.1322427 -0.446516E-07  0.692E-04    2.19      22.3  T
  12    -72.1322427 -0.552544E-08  0.263E-04    2.19      58.7  T

   *** convergence criteria satisfied after 12 iterations ***

         #    Occupation            Energy/Eh            Energy/eV
      -------------------------------------------------------------
         1        2.0000           -0.8240830             -22.4244
       ...           ...                  ...                  ...
        57        2.0000           -0.4364549             -11.8765
        58        2.0000           -0.4251547             -11.5690
        59        2.0000           -0.4178088             -11.3692
        60        2.0000           -0.3961151             -10.7788
        61        2.0000           -0.3871527             -10.5350
        62        2.0000           -0.3784479             -10.2981
        63        2.0000           -0.3579133              -9.7393 (HOMO)
        64                         -0.2773655              -7.5475 (LUMO)
        65                         -0.2641559              -7.1880
        66                         -0.2330511              -6.3416
        67                         -0.2123034              -5.7771
        68                         -0.1491550              -4.0587
       ...                                ...                  ...
       114                          0.6943115              18.8932
      -------------------------------------------------------------
                  HL-Gap            0.0805478 Eh            2.1918 eV
             Fermi-level           -0.3176394 Eh           -8.6434 eV

 SCC (total)                   0 d,  0 h,  0 min,  0.089 sec
 SCC setup                      ...        0 min,  0.000 sec (  0.412%)
 Dispersion                     ...        0 min,  0.000 sec (  0.525%)
 classical contributions        ...        0 min,  0.000 sec (  0.166%)
 integral evaluation            ...        0 min,  0.008 sec (  9.037%)
 iterations                     ...        0 min,  0.056 sec ( 63.203%)
 molecular gradient             ...        0 min,  0.024 sec ( 26.422%)
 printout                       ...        0 min,  0.000 sec (  0.227%)

         :::::::::::::::::::::::::::::::::::::::::::::::::::::
         ::                     SUMMARY                     ::
         :::::::::::::::::::::::::::::::::::::::::::::::::::::
         :: total energy             -71.290942420966 Eh    ::
         :: gradient norm              0.082548448145 Eh/a0 ::
         :: HOMO-LUMO gap              2.191815869668 eV    ::
         ::.................................................::
         :: SCC energy               -72.132068842567 Eh    ::
         :: -> isotropic ES            0.106946872998 Eh    ::
         :: -> anisotropic ES          0.008396737378 Eh    ::
         :: -> anisotropic XC          0.020319550236 Eh    ::
         :: -> dispersion             -0.045952180290 Eh    ::
         :: repulsion energy           0.841126421601 Eh    ::
         :: add. restraining           0.000000000000 Eh    ::
         :: total charge              -0.000000000000 e     ::
         :::::::::::::::::::::::::::::::::::::::::::::::::::::

      ----------------------------------------------------------- 
     |                   =====================                   |
     |                        A N C O P T                        |
     |                   =====================                   |
     |               Approximate Normal Coordinate               |
     |                Rational Function Optimizer                |
      ----------------------------------------------------------- 
      ----------------------------------------------------------- 
     |                   =====================                   |
     |                        A N C O P T                        |
     |                   =====================                   |
     |               Approximate Normal Coordinate               |
     |                Rational Function Optimizer                |
      ----------------------------------------------------------- 

          ...................................................
          :                      SETUP                      :
          :.................................................:
          :   optimization level            normal          :
          :   max. optcycles                   200          :
          :   ANC micro-cycles                  20          :
          :   degrees of freedom               120          :
          :.................................................:
          :   RF solver                   davidson          :
          :   write xtbopt.log                true          :
          :   linear?                        false          :
          :   energy convergence         0.5000000E-05 Eh   :
          :   grad. convergence          0.1000000E-02 Eh/α :
          :   maxmium RF displ.          1.0000000          :
          :   Hlow (freq-cutoff)         0.1000000E-01      :
          :   Hmax (freq-cutoff)         5.0000000          :
          :   S6 in model hess.         20.0000000          :
          ...................................................

generating ANC from exact Hessian ...
Using Lindh-Hessian (1995)
 Shifting diagonal of input Hessian by    9.5843688136534669E-003
 Lowest  eigenvalues of input Hessian
    0.000000    0.000000    0.000000    0.000000    0.000000    0.000000
    0.010000    0.010057    0.011008    0.011470    0.011891    0.012122
    0.012852    0.014436    0.015913    0.016667    0.018776    0.020296
 Highest eigenvalues
    1.870221    1.996595    2.025104    2.089596    2.212661    2.340912


........................................................................
.............................. CYCLE    1 ..............................
........................................................................

 iter      E             dE          RMSdq      gap      omega  full diag
   1    -72.1322427 -0.721322E+02  0.122E-04    2.19       0.0  T
   2    -72.1322427 -0.122810E-09  0.793E-05    2.19     194.7  T
   3    -72.1322427 -0.119911E-09  0.466E-05    2.19     331.4  T
     SCC iter.                  ...        0 min,  0.007 sec
     gradient                   ...        0 min,  0.024 sec
 * total energy  :   -71.2909424 Eh     change       -0.1018051E-08 Eh
   gradient norm :     0.0825496 Eh/α   predicted     0.0000000E+00 (-100.00%)
   displ. norm   :     0.3674328 α      lambda       -0.1611952E-01
   maximum displ.:     0.1398745 α      in ANC's #25, #14, #15, ...

........................................................................
.............................. CYCLE    2 ..............................
........................................................................

 iter      E             dE          RMSdq      gap      omega  full diag
   1    -72.1711430 -0.721711E+02  0.253E-01    2.15       0.0  T
   2    -72.1715235 -0.380531E-03  0.171E-01    2.18       1.0  T
   3    -72.1716438 -0.120318E-03  0.965E-02    2.17       1.0  T
   4    -72.1717464 -0.102551E-03  0.269E-02    2.17       1.0  T
   5    -72.1717692 -0.227965E-04  0.568E-03    2.17       2.7  T
   6    -72.1717697 -0.523038E-06  0.279E-03    2.17       5.5  T
   7    -72.1717697 -0.578358E-07  0.993E-04    2.17      15.5  T
   8    -72.1717698 -0.606489E-08  0.410E-04    2.17      37.6  T
     SCC iter.                  ...        0 min,  0.017 sec
     gradient                   ...        0 min,  0.048 sec
 * total energy  :   -71.3021474 Eh     change       -0.1120498E-01 Eh
   gradient norm :     0.0353581 Eh/α   predicted    -0.9152553E-02 ( -18.32%)
   displ. norm   :     0.3467551 α      lambda       -0.5634935E-02
   maximum displ.:     0.1388940 α      in ANC's #14, #15, #25, ...

........................................................................
.............................. CYCLE    3 ..............................
........................................................................

 iter      E             dE          RMSdq      gap      omega  full diag
   1    -72.1967473 -0.721967E+02  0.177E-01    2.15       0.0  T
   2    -72.1970355 -0.288259E-03  0.122E-01    2.20       1.0  T
   3    -72.1971569 -0.121366E-03  0.682E-02    2.19       1.0  T
   4    -72.1971792 -0.223137E-04  0.228E-02    2.19       1.0  T
   5    -72.1971943 -0.151460E-04  0.485E-03    2.20       3.2  T
   6    -72.1971949 -0.510791E-06  0.207E-03    2.20       7.4  T
   7    -72.1971949 -0.370939E-07  0.752E-04    2.19      20.5  T
   8    -72.1971949 -0.340066E-08  0.334E-04    2.19      46.1  T
     SCC iter.                  ...        0 min,  0.017 sec
     gradient                   ...        0 min,  0.024 sec
 * total energy  :   -71.3054380 Eh     change       -0.3290605E-02 Eh
   gradient norm :     0.0112953 Eh/α   predicted    -0.3159013E-02 (  -4.00%)
   displ. norm   :     0.2078446 α      lambda       -0.8666724E-03
   maximum displ.:     0.0868212 α      in ANC's #4, #14, #15, ...

........................................................................
.............................. CYCLE    4 ..............................
........................................................................

 iter      E             dE          RMSdq      gap      omega  full diag
   1    -72.2010673 -0.722011E+02  0.636E-02    2.18       0.0  T
   2    -72.2010945 -0.272135E-04  0.385E-02    2.20       1.0  T
   3    -72.2010985 -0.399209E-05  0.222E-02    2.20       1.0  T
   4    -72.2011042 -0.568214E-05  0.553E-03    2.20       2.8  T
   5    -72.2011052 -0.952483E-06  0.170E-03    2.20       9.1  T
   6    -72.2011052 -0.583511E-07  0.812E-04    2.20      19.0  T
   7    -72.2011052 -0.663570E-08  0.265E-04    2.20      58.2  T
     SCC iter.                  ...        0 min,  0.041 sec
     gradient                   ...        0 min,  0.024 sec
 * total energy  :   -71.3060650 Eh     change       -0.6270132E-03 Eh
   gradient norm :     0.0073175 Eh/α   predicted    -0.4520776E-03 ( -27.90%)
   displ. norm   :     0.2698129 α      lambda       -0.6246784E-03
   maximum displ.:     0.1555808 α      in ANC's #4, #2, #7, ...

........................................................................
.............................. CYCLE    5 ..............................
........................................................................

 iter      E             dE          RMSdq      gap      omega  full diag
   1    -72.2020020 -0.722020E+02  0.705E-02    2.19       0.0  T
   2    -72.2020235 -0.214467E-04  0.416E-02    2.21       1.0  T
   3    -72.2020209  0.254942E-05  0.229E-02    2.21       1.0  T
   4    -72.2020305 -0.961671E-05  0.432E-03    2.21       3.6  T
   5    -72.2020311 -0.573303E-06  0.158E-03    2.21       9.8  T
   6    -72.2020311 -0.339628E-07  0.786E-04    2.21      19.6  T
   7    -72.2020312 -0.994437E-08  0.296E-04    2.21      52.2  T
     SCC iter.                  ...        0 min,  0.015 sec
     gradient                   ...        0 min,  0.057 sec
 * total energy  :   -71.3064667 Eh     change       -0.4016911E-03 Eh
   gradient norm :     0.0042241 Eh/α   predicted    -0.3350810E-03 ( -16.58%)
   displ. norm   :     0.2017709 α      lambda       -0.2339261E-03
   maximum displ.:     0.1397181 α      in ANC's #4, #2, #7, ...

........................................................................
.............................. CYCLE    6 ..............................
........................................................................

 iter      E             dE          RMSdq      gap      omega  full diag
   1    -72.2016893 -0.722017E+02  0.420E-02    2.21       0.0  T
   2    -72.2016924 -0.310893E-05  0.247E-02    2.22       1.0  T
   3    -72.2016895  0.290730E-05  0.110E-02    2.21       1.4  T
   4    -72.2016935 -0.403101E-05  0.176E-03    2.22       8.8  T
   5    -72.2016936 -0.824792E-07  0.799E-04    2.22      19.3  T
   6    -72.2016936 -0.460318E-08  0.374E-04    2.22      41.3  T
     SCC iter.                  ...        0 min,  0.013 sec
     gradient                   ...        0 min,  0.024 sec
 * total energy  :   -71.3066419 Eh     change       -0.1752293E-03 Eh
   gradient norm :     0.0039441 Eh/α   predicted    -0.1217237E-03 ( -30.53%)
   displ. norm   :     0.2081759 α      lambda       -0.2067019E-03
   maximum displ.:     0.1431507 α      in ANC's #4, #2, #7, ...

........................................................................
.............................. CYCLE    7 ..............................
........................................................................

 iter      E             dE          RMSdq      gap      omega  full diag
   1    -72.2014361 -0.722014E+02  0.407E-02    2.22       0.0  T
   2    -72.2014372 -0.113046E-05  0.239E-02    2.22       1.0  T
   3    -72.2014354  0.179555E-05  0.739E-03    2.22       2.1  T
   4    -72.2014377 -0.225146E-05  0.141E-03    2.22      10.9  T
   5    -72.2014377 -0.365730E-07  0.759E-04    2.22      20.3  T
   6    -72.2014377 -0.386471E-08  0.341E-04    2.22      45.2  T
     SCC iter.                  ...        0 min,  0.013 sec
     gradient                   ...        0 min,  0.024 sec
 * total energy  :   -71.3068133 Eh     change       -0.1713885E-03 Eh
   gradient norm :     0.0036242 Eh/α   predicted    -0.1078415E-03 ( -37.08%)
   displ. norm   :     0.2798690 α      lambda       -0.2464117E-03
   maximum displ.:     0.1880806 α      in ANC's #4, #2, #7, ...

........................................................................
.............................. CYCLE    8 ..............................
........................................................................

 iter      E             dE          RMSdq      gap      omega  full diag
   1    -72.2010181 -0.722010E+02  0.529E-02    2.22       0.0  T
   2    -72.2010196 -0.151598E-05  0.313E-02    2.22       1.0  T
   3    -72.2010148  0.478664E-05  0.120E-02    2.22       1.3  T
   4    -72.2010206 -0.581983E-05  0.186E-03    2.22       8.3  T
   5    -72.2010207 -0.375964E-07  0.102E-03    2.22      15.1  T
   6    -72.2010207 -0.512665E-08  0.426E-04    2.22      36.2  T
   7    -72.2010207 -0.376799E-08  0.145E-04    2.22     106.6  T
     SCC iter.                  ...        0 min,  0.015 sec
     gradient                   ...        0 min,  0.051 sec
 * total energy  :   -71.3070122 Eh     change       -0.1989073E-03 Eh
   gradient norm :     0.0038573 Eh/α   predicted    -0.1328564E-03 ( -33.21%)
   displ. norm   :     0.3346524 α      lambda       -0.2318683E-03
   maximum displ.:     0.2246919 α      in ANC's #4, #2, #1, ...

........................................................................
.............................. CYCLE    9 ..............................
........................................................................

 iter      E             dE          RMSdq      gap      omega  full diag
   1    -72.2003904 -0.722004E+02  0.662E-02    2.22       0.0  T
   2    -72.2003946 -0.426024E-05  0.391E-02    2.23       1.0  T
   3    -72.2003860  0.859471E-05  0.170E-02    2.23       1.0  T
   4    -72.2003966 -0.106059E-04  0.281E-03    2.23       5.5  T
   5    -72.2003968 -0.157249E-06  0.130E-03    2.23      11.9  T
   6    -72.2003968 -0.195746E-08  0.705E-04    2.23      21.9  T
   7    -72.2003968 -0.865123E-08  0.185E-04    2.23      83.3  T
     SCC iter.                  ...        0 min,  0.015 sec
     gradient                   ...        0 min,  0.024 sec
 * total energy  :   -71.3071912 Eh     change       -0.1789161E-03 Eh
   gradient norm :     0.0037526 Eh/α   predicted    -0.1289178E-03 ( -27.95%)
   displ. norm   :     0.3381236 α      lambda       -0.1811632E-03
   maximum displ.:     0.2267798 α      in ANC's #4, #2, #13, ...

........................................................................
.............................. CYCLE   10 ..............................
........................................................................

 iter      E             dE          RMSdq      gap      omega  full diag
   1    -72.2004301 -0.722004E+02  0.675E-02    2.23       0.0  T
   2    -72.2004344 -0.436595E-05  0.397E-02    2.23       1.0  T
   3    -72.2004262  0.820066E-05  0.168E-02    2.23       1.0  T
   4    -72.2004364 -0.102046E-04  0.292E-03    2.23       5.3  T
   5    -72.2004366 -0.176707E-06  0.138E-03    2.23      11.2  T
   6    -72.2004366 -0.510774E-08  0.763E-04    2.23      20.2  T
   7    -72.2004366 -0.809877E-08  0.194E-04    2.23      79.5  T
     SCC iter.                  ...        0 min,  0.015 sec
     gradient                   ...        0 min,  0.024 sec
 * total energy  :   -71.3073235 Eh     change       -0.1323505E-03 Eh
   gradient norm :     0.0034606 Eh/α   predicted    -0.1009381E-03 ( -23.73%)
   displ. norm   :     0.2625040 α      lambda       -0.1110752E-03
   maximum displ.:     0.1710509 α      in ANC's #4, #2, #13, ...

........................................................................
.............................. CYCLE   11 ..............................
........................................................................

 iter      E             dE          RMSdq      gap      omega  full diag
   1    -72.2013644 -0.722014E+02  0.551E-02    2.23       0.0  T
   2    -72.2013692 -0.483867E-05  0.320E-02    2.24       1.0  T
   3    -72.2013658  0.344394E-05  0.126E-02    2.24       1.2  T
   4    -72.2013702 -0.441356E-05  0.310E-03    2.24       5.0  T
   5    -72.2013705 -0.312918E-06  0.115E-03    2.24      13.5  T
   6    -72.2013705 -0.770426E-08  0.671E-04    2.24      23.0  T
   7    -72.2013705 -0.488208E-08  0.181E-04    2.24      85.1  T
     SCC iter.                  ...        0 min,  0.015 sec
     gradient                   ...        0 min,  0.045 sec
 * total energy  :   -71.3074029 Eh     change       -0.7944484E-04 Eh
   gradient norm :     0.0024825 Eh/α   predicted    -0.5936776E-04 ( -25.27%)
   displ. norm   :     0.1922693 α      lambda       -0.6047381E-04
   maximum displ.:     0.1219539 α      in ANC's #2, #4, #13, ...

........................................................................
.............................. CYCLE   12 ..............................
........................................................................

 iter      E             dE          RMSdq      gap      omega  full diag
   1    -72.2024084 -0.722024E+02  0.406E-02    2.24       0.0  T
   2    -72.2024104 -0.200219E-05  0.236E-02    2.24       1.0  T
   3    -72.2024083  0.216744E-05  0.910E-03    2.24       1.7  T
   4    -72.2024111 -0.281009E-05  0.181E-03    2.24       8.5  T
   5    -72.2024112 -0.882847E-07  0.837E-04    2.24      18.4  T
   6    -72.2024112 -0.348039E-08  0.472E-04    2.24      32.7  T
     SCC iter.                  ...        0 min,  0.013 sec
     gradient                   ...        0 min,  0.024 sec
 * total energy  :   -71.3074455 Eh     change       -0.4254463E-04 Eh
   gradient norm :     0.0019664 Eh/α   predicted    -0.3135515E-04 ( -26.30%)
   displ. norm   :     0.2017004 α      lambda       -0.3199979E-04
   maximum displ.:     0.1320909 α      in ANC's #2, #4, #6, ...

........................................................................
.............................. CYCLE   13 ..............................
........................................................................

 iter      E             dE          RMSdq      gap      omega  full diag
   1    -72.2030275 -0.722030E+02  0.433E-02    2.24       0.0  T
   2    -72.2030304 -0.291126E-05  0.251E-02    2.25       1.0  T
   3    -72.2030284  0.204916E-05  0.923E-03    2.25       1.7  T
   4    -72.2030311 -0.270122E-05  0.209E-03    2.25       7.4  T
   5    -72.2030312 -0.147007E-06  0.866E-04    2.25      17.8  T
   6    -72.2030312 -0.399469E-08  0.475E-04    2.25      32.5  T
     SCC iter.                  ...        0 min,  0.038 sec
     gradient                   ...        0 min,  0.024 sec
 * total energy  :   -71.3074742 Eh     change       -0.2872951E-04 Eh
   gradient norm :     0.0019121 Eh/α   predicted    -0.1629245E-04 ( -43.29%)
   displ. norm   :     0.0885277 α      lambda       -0.1683454E-04
   maximum displ.:     0.0530384 α      in ANC's #2, #3, #6, ...

........................................................................
.............................. CYCLE   14 ..............................
........................................................................

 iter      E             dE          RMSdq      gap      omega  full diag
   1    -72.2033962 -0.722034E+02  0.173E-02    2.25       0.0  T
   2    -72.2033968 -0.542564E-06  0.102E-02    2.25       1.5  T
   3    -72.2033964  0.360886E-06  0.357E-03    2.25       4.3  T
   4    -72.2033969 -0.454424E-06  0.965E-04    2.25      16.0  T
   5    -72.2033969 -0.349850E-07  0.341E-04    2.25      45.3  T
     SCC iter.                  ...        0 min,  0.011 sec
     gradient                   ...        0 min,  0.054 sec
 * total energy  :   -71.3074910 Eh     change       -0.1673556E-04 Eh
   gradient norm :     0.0016428 Eh/α   predicted    -0.8447554E-05 ( -49.52%)
   displ. norm   :     0.1672052 α      lambda       -0.2646204E-04
   maximum displ.:     0.1000792 α      in ANC's #2, #6, #3, ...

........................................................................
.............................. CYCLE   15 ..............................
........................................................................

 iter      E             dE          RMSdq      gap      omega  full diag
   1    -72.2017198 -0.722017E+02  0.366E-02    2.25       0.0  T
   2    -72.2017211 -0.130479E-05  0.215E-02    2.25       1.0  T
   3    -72.2017197  0.136109E-05  0.700E-03    2.25       2.2  T
   4    -72.2017215 -0.182671E-05  0.163E-03    2.25       9.5  T
   5    -72.2017216 -0.561378E-07  0.834E-04    2.25      18.5  T
   6    -72.2017216 -0.352470E-08  0.312E-04    2.25      49.5  T
     SCC iter.                  ...        0 min,  0.013 sec
     gradient                   ...        0 min,  0.024 sec
 * total energy  :   -71.3075046 Eh     change       -0.1362415E-04 Eh
   gradient norm :     0.0032921 Eh/α   predicted    -0.1339625E-04 (  -1.67%)
   displ. norm   :     0.0616650 α      lambda       -0.2312672E-04
   maximum displ.:     0.0369247 α      in ANC's #4, #1, #3, ...

........................................................................
.............................. CYCLE   16 ..............................
........................................................................

 iter      E             dE          RMSdq      gap      omega  full diag
   1    -72.2025184 -0.722025E+02  0.133E-02    2.25       0.0  T
   2    -72.2025199 -0.152168E-05  0.841E-03    2.25       1.8  T
   3    -72.2025201 -0.208765E-06  0.454E-03    2.25       3.4  T
   4    -72.2025202 -0.900820E-07  0.180E-03    2.25       8.6  T
   5    -72.2025203 -0.997553E-07  0.327E-04    2.25      47.2  T
   6    -72.2025203 -0.205453E-08  0.153E-04    2.25     101.2  T
     SCC iter.                  ...        0 min,  0.013 sec
     gradient                   ...        0 min,  0.051 sec
 * total energy  :   -71.3075154 Eh     change       -0.1082883E-04 Eh
   gradient norm :     0.0019418 Eh/α   predicted    -0.1161008E-04 (   7.21%)
   displ. norm   :     0.0327179 α      lambda       -0.1102044E-04
   maximum displ.:     0.0193866 α      in ANC's #1, #4, #2, ...

........................................................................
.............................. CYCLE   17 ..............................
........................................................................

 iter      E             dE          RMSdq      gap      omega  full diag
   1    -72.2027827 -0.722028E+02  0.970E-03    2.25       0.0  T
   2    -72.2027830 -0.303272E-06  0.565E-03    2.25       2.7  T
   3    -72.2027830  0.410070E-07  0.223E-03    2.25       6.9  T
   4    -72.2027831 -0.592562E-07  0.748E-04    2.25      20.6  T
   5    -72.2027831 -0.179418E-07  0.207E-04    2.25      74.5  T
     SCC iter.                  ...        0 min,  0.011 sec
     gradient                   ...        0 min,  0.024 sec
 * total energy  :   -71.3075265 Eh     change       -0.1112594E-04 Eh
   gradient norm :     0.0009695 Eh/α   predicted    -0.5515255E-05 ( -50.43%)
   displ. norm   :     0.0734939 α      lambda       -0.9443526E-05
   maximum displ.:     0.0426701 α      in ANC's #1, #2, #4, ...

........................................................................
.............................. CYCLE   18 ..............................
........................................................................

 iter      E             dE          RMSdq      gap      omega  full diag
   1    -72.2027711 -0.722028E+02  0.170E-02    2.25       0.0  T
   2    -72.2027713 -0.148420E-06  0.100E-02    2.25       1.5  T
   3    -72.2027710  0.264066E-06  0.282E-03    2.25       5.5  T
   4    -72.2027713 -0.333689E-06  0.634E-04    2.25      24.3  T
   5    -72.2027713 -0.700004E-08  0.329E-04    2.25      46.9  T
     SCC iter.                  ...        0 min,  0.011 sec
     gradient                   ...        0 min,  0.024 sec
 * total energy  :   -71.3075373 Eh     change       -0.1080850E-04 Eh
   gradient norm :     0.0008129 Eh/α   predicted    -0.4733693E-05 ( -56.20%)
   displ. norm   :     0.1053157 α      lambda       -0.9696547E-05
   maximum displ.:     0.0613221 α      in ANC's #2, #1, #4, ...

........................................................................
.............................. CYCLE   19 ..............................
........................................................................

 iter      E             dE          RMSdq      gap      omega  full diag
   1    -72.2024146 -0.722024E+02  0.250E-02    2.25       0.0  T
   2    -72.2024149 -0.310550E-06  0.146E-02    2.25       1.1  T
   3    -72.2024148  0.729828E-07  0.225E-03    2.25       6.8  T
   4    -72.2024150 -0.152662E-06  0.877E-04    2.25      17.6  T
   5    -72.2024150 -0.148056E-07  0.444E-04    2.25      34.8  T
     SCC iter.                  ...        0 min,  0.011 sec
     gradient                   ...        0 min,  0.057 sec
 * total energy  :   -71.3075472 Eh     change       -0.9860587E-05 Eh
   gradient norm :     0.0015586 Eh/α   predicted    -0.4876665E-05 ( -50.54%)
   displ. norm   :     0.0942640 α      lambda       -0.7304086E-05
   maximum displ.:     0.0577842 α      in ANC's #2, #1, #4, ...

........................................................................
.............................. CYCLE   20 ..............................
........................................................................

 iter      E             dE          RMSdq      gap      omega  full diag
   1    -72.2022936 -0.722023E+02  0.220E-02    2.25       0.0  T
   2    -72.2022938 -0.238426E-06  0.129E-02    2.25       1.2  T
   3    -72.2022936  0.217742E-06  0.260E-03    2.25       5.9  T
   4    -72.2022939 -0.298083E-06  0.817E-04    2.25      18.9  T
   5    -72.2022939 -0.138423E-07  0.412E-04    2.25      37.5  T
     SCC iter.                  ...        0 min,  0.011 sec
     gradient                   ...        0 min,  0.024 sec
 * total energy  :   -71.3075543 Eh     change       -0.7119429E-05 Eh
   gradient norm :     0.0014041 Eh/α   predicted    -0.3668247E-05 ( -48.48%)
   displ. norm   :     0.0804659 α      lambda       -0.5608674E-05
   maximum displ.:     0.0532395 α      in ANC's #2, #1, #4, ...
 * RMSD in coord.:     0.4183764 α      energy gain  -0.1661190E-01 Eh

generating ANC from exact Hessian ...
Using Lindh-Hessian (1995)
 Shifting diagonal of input Hessian by    9.5240496928924862E-003
 Lowest  eigenvalues of input Hessian
    0.000000    0.000000    0.000000    0.000000    0.000000    0.000000
    0.010000    0.010048    0.011084    0.011629    0.012226    0.012370
    0.013445    0.015044    0.016192    0.016848    0.020039    0.021047
 Highest eigenvalues
    1.971458    2.080618    2.114502    2.199819    2.298798    2.397143


........................................................................
.............................. CYCLE   21 ..............................
........................................................................

 iter      E             dE          RMSdq      gap      omega  full diag
   1    -72.2025265 -0.722025E+02  0.195E-02    2.25       0.0  T
   2    -72.2025267 -0.134996E-06  0.115E-02    2.25       1.3  T
   3    -72.2025267 -0.120936E-07  0.115E-03    2.25      13.5  T
   4    -72.2025267 -0.342062E-07  0.519E-04    2.25      29.7  T
   5    -72.2025267 -0.199078E-08  0.318E-04    2.25      48.5  T
     SCC iter.                  ...        0 min,  0.011 sec
     gradient                   ...        0 min,  0.024 sec
 * total energy  :   -71.3075607 Eh     change       -0.6361773E-05 Eh
   gradient norm :     0.0010651 Eh/α   predicted     0.0000000E+00 (-100.00%)
   displ. norm   :     0.0172434 α      lambda       -0.1931898E-05
   maximum displ.:     0.0083692 α      in ANC's #3, #2, #8, ...

........................................................................
.............................. CYCLE   22 ..............................
........................................................................

 iter      E             dE          RMSdq      gap      omega  full diag
   1    -72.2026787 -0.722027E+02  0.531E-03    2.25       0.0  T
   2    -72.2026788 -0.960623E-07  0.311E-03    2.25       5.0  T
   3    -72.2026788  0.504836E-08  0.948E-04    2.25      16.3  T
   4    -72.2026788 -0.862977E-08  0.285E-04    2.25      54.1  T
     SCC iter.                  ...        0 min,  0.009 sec
     gradient                   ...        0 min,  0.051 sec
 * total energy  :   -71.3075640 Eh     change       -0.3317260E-05 Eh
   gradient norm :     0.0003306 Eh/α   predicted    -0.1503749E-05 ( -54.67%)
   displ. norm   :     0.0421469 α      lambda       -0.3934839E-05
   maximum displ.:     0.0217053 α      in ANC's #3, #2, #8, ...

   *** GEOMETRY OPTIMIZATION CONVERGED AFTER 22 ITERATIONS ***

------------------------------------------------------------------------
 total energy gain   :        -0.0166216 Eh      -10.4302 kcal/mol
 total RMSD          :         0.4191613 a0        0.2218 Å
 total power (kW/mol):        -1.9836344 (step)  -29.8246 (real)
------------------------------------------------------------------------

 ANCopt (total)                0 d,  0 h,  0 min,  1.463 sec
 optimizer setup                ...        0 min,  0.000 sec (  0.005%)
 model hessian                  ...        0 min,  0.061 sec (  4.194%)
 ANC generation                 ...        0 min,  0.003 sec (  0.203%)
 coordinate transformation      ...        0 min,  0.000 sec (  0.012%)
 single point calculation       ...        0 min,  1.391 sec ( 95.049%)
 optimization log               ...        0 min,  0.004 sec (  0.302%)
 hessian update                 ...        0 min,  0.000 sec (  0.019%)
 rational function              ...        0 min,  0.002 sec (  0.165%)

================
 final structure:
================
42
 xtb: 6.7.1 (edcfbbe)
O           -6.07352146746926        0.81172586611850       -0.24747271107724
C           -5.17511116282966        1.62479963680580       -0.30985572842145
O           -5.40378409875542        2.91828417611081       -0.51402612060066
C           -3.75255557818735        1.26934625702879       -0.16045249429789
C           -3.49231781826543       -0.01398159219534        0.21551074987385
N           -2.26500153106027       -0.53162552794658        0.39219881407710
C           -1.15288528214459        0.28525662298050        0.24564223177237
C            0.12801904635348       -0.19321808916388        0.49829567232702
C            1.27514772819615        0.59628715941435        0.35395308305982
N            2.50493646179113        0.07089355039778        0.65116339105417
C            3.67928178611470        0.87314037623568        0.92833431415259
C            4.61471083423013        0.91791298501830       -0.28982847192943
N            4.99166661311244       -0.41569791245280       -0.72332444805662
C            3.81702637400249       -1.23153241465886       -0.94850948112139
C            2.86957490161098       -1.27754309068464        0.26915097379465
C            1.05088809699623        1.92886442802536       -0.05673279643197
F            2.09466973088189        2.77073518558544       -0.27528493540034
C           -0.20400144845633        2.42249673863291       -0.28900715137746
C           -1.33737698010979        1.62098427170349       -0.14642550925324
C           -2.66156749758854        2.21117818885786       -0.41035136089591
O           -2.79085309223051        3.35942104522727       -0.79473664628011
C           -2.12408924906920       -1.90431009906258        0.77980940073274
C           -1.49855002908776       -2.87864825209142       -0.17852171446820
C           -2.96569931657081       -2.94697444309927        0.10865142202759
H           -6.35475939964177        3.07569868818285       -0.62021464291044
H           -4.32792551454915       -0.67806945172891        0.39258646753919
H            0.24654226124649       -1.20458510281851        0.84684547336366
H            4.20611628044483        0.38941796015994        1.76317176342881
H            3.39661833561779        1.87243077848781        1.24783989540453
H            5.51732206566597        1.48245853274919       -0.05280240496359
H            4.10614621536135        1.40972259112454       -1.12280726543680
H            5.58248020998407       -0.84973909069973       -0.01897387234148
H            3.27679361447047       -0.80229995631353       -1.79834989739103
H            4.13345195984461       -2.24286773831447       -1.21161091939646
H            1.98690054688632       -1.85956473919799        0.01266579244904
H            3.37782316923283       -1.75860989894493        1.11496949485534
H           -0.33496539561091        3.44479177894648       -0.60892053911837
H           -1.91210455947091       -2.02926053077161        1.83810947138706
H           -1.19418542317156       -2.50233603594695       -1.14315013192427
H           -0.85042783230838       -3.64486183351824        0.21904208435450
H           -3.64282863515732       -2.63283756087598       -0.66995395142707
H           -3.34160492030882       -3.75748345730654        0.71317269886945

 Bond Distances (Angstroems)
 ---------------------------
O1-C2=1.2133         C2-O1=1.2133         C2-O3=1.3293         C2-C4=1.4739         O3-C2=1.3293         O3-H25=0.9697        
C4-C2=1.4739         C4-C5=1.3624         C4-C20=1.4628        C5-C4=1.3624         C5-N6=1.3437         C5-H26=1.0819        
N6-C5=1.3437         N6-C7=1.3877         N6-C22=1.4333        C7-N6=1.3877         C7-C8=1.3905         C7-C19=1.4043        
C8-C7=1.3905         C8-C9=1.4000         C8-H27=1.0763        C9-C8=1.4000         C9-N10=1.3699        C9-C16=1.4123        
N10-C9=1.3699        N10-C11=1.4490       N10-C15=1.4482       C11-N10=1.4490       C11-C12=1.5365       C11-H28=1.0993       
C11-H29=1.0865       C12-C11=1.5365       C12-N13=1.4521       C12-H30=1.0907       C12-H31=1.0929       N13-C12=1.4521       
N13-C14=1.4478       N13-H32=1.0166       C14-N13=1.4478       C14-C15=1.5435       C14-H33=1.0947       C14-H34=1.0919       
C15-N10=1.4482       C15-C14=1.5435       C15-H35=1.0880       C15-H36=1.0978       C16-C9=1.4123        C16-F17=1.3587       
C16-C18=1.3683       F17-C16=1.3587       C18-C16=1.3683       C18-C19=1.3955       C18-H37=1.0792       C19-C7=1.4043        
C19-C18=1.3955       C19-C20=1.4736       C20-C4=1.4628        C20-C19=1.4736       C20-O21=1.2178       O21-C20=1.2178       
C22-N6=1.4333        C22-C23=1.5030       C22-C24=1.4986       C22-H38=1.0865       C23-C22=1.5030       C23-C24=1.4966       
C23-H39=1.0792       C23-H40=1.0794       C24-C22=1.4986       C24-C23=1.4966       C24-H41=1.0786       C24-H42=1.0787       
H25-O3=0.9697        H26-C5=1.0819        H27-C8=1.0763        H28-C11=1.0993       H29-C11=1.0865       H30-C12=1.0907       
H31-C12=1.0929       H32-N13=1.0166       H33-C14=1.0947       H34-C14=1.0919       H35-C15=1.0880       H36-C15=1.0978       
H37-C18=1.0792       H38-C22=1.0865       H39-C23=1.0792       H40-C23=1.0794       H41-C24=1.0786       H42-C24=1.0787       
 C  H  Rav=1.0864 sigma=0.0073  Rmin=1.0763  Rmax=1.0993    16
 C  C  Rav=1.4481 sigma=0.0587  Rmin=1.3624  Rmax=1.5435    15
 N  H  Rav=1.0166 sigma=0.0000  Rmin=1.0166  Rmax=1.0166     1
 N  C  Rav=1.4164 sigma=0.0401  Rmin=1.3437  Rmax=1.4521     8
 O  H  Rav=0.9697 sigma=0.0000  Rmin=0.9697  Rmax=0.9697     1
 O  C  Rav=1.2535 sigma=0.0537  Rmin=1.2133  Rmax=1.3293     3
 F  C  Rav=1.3587 sigma=0.0000  Rmin=1.3587  Rmax=1.3587     1

 selected bond angles (degree)
 --------------------
O3-C2-O1=122.18                C4-C2-O1=123.22                C4-C2-O3=114.60                H25-O3-C2=110.09               
C5-C4-C2=116.07                C20-C4-C2=123.18               C20-C4-C5=120.74               N6-C5-C4=125.01                
H26-C5-C4=118.41               H26-C5-N6=116.58               C7-N6-C5=119.43                C22-N6-C5=119.62               
C22-N6-C7=120.90               C8-C7-N6=121.10                C19-C7-N6=118.96               C19-C7-C8=119.94               
C9-C8-C7=122.82                H27-C8-C7=118.92               H27-C8-C9=118.23               N10-C9-C8=119.79               
C16-C9-C8=115.59               C16-C9-N10=124.57              C11-N10-C9=123.83              C15-N10-C9=121.73              
C15-N10-C11=111.22             

 selected dihedral angles (degree)
 ---------------------------------
H25-O3-C2-O1=358.58           H25-O3-C2-C4=178.88           C5-C4-C2-O1=352.37            C5-C4-C2-O3=172.07            
C20-C4-C2-O1=171.61           C20-C4-C2-O3=351.30           N6-C5-C4-C2=179.37            N6-C5-C4-C20=  0.11           
H26-C5-C4-C2=359.13           H26-C5-C4-C20=179.87          C7-N6-C5-C4=  2.93            C7-N6-C5-H26=183.16           
C22-N6-C5-C4=180.51           C22-N6-C5-H26=  0.74          C8-C7-N6-C5=176.12            C8-C7-N6-C22=358.57           
C19-C7-N6-C5=357.03           C19-C7-N6-C22=179.48          C9-C8-C7-N6=179.58            C9-C8-C7-C19=358.66           
H27-C8-C7-N6=357.79           H27-C8-C7-C19=176.87          N10-C9-C8-C7=178.41           N10-C9-C8-H27=  0.19          
C16-C9-C8-C7=  0.58           C16-C9-C8-H27=182.36          C11-N10-C9-C8=199.40          C11-N10-C9-C16= 17.03         
C15-N10-C9-C8= 41.49          C15-N10-C9-C16=219.11         
           -------------------------------------------------
          |                Final Singlepoint                |
           -------------------------------------------------

          ...................................................
          :                      SETUP                      :
          :.................................................:
          :  # basis functions                 114          :
          :  # atomic orbitals                 114          :
          :  # shells                           66          :
          :  # electrons                       126          :
          :  max. iterations                   250          :
          :  Hamiltonian                  GFN2-xTB          :
          :  restarted?                      false          :
          :  GBSA solvation                  false          :
          :  PC potential                    false          :
          :  electronic temp.          300.0000000     K    :
          :  accuracy                    1.0000000          :
          :  -> integral cutoff          0.2500000E+02      :
          :  -> integral neglect         0.1000000E-07      :
          :  -> SCF convergence          0.1000000E-05 Eh   :
          :  -> wf. convergence          0.1000000E-03 e    :
          :  Broyden damping             0.4000000          :
          :  net charge                          0          :
          :  unpaired electrons                  0          :
          ...................................................

 iter      E             dE          RMSdq      gap      omega  full diag
   1    -72.2026788 -0.722027E+02  0.108E-04    2.25       0.0  T
   2    -72.2026788 -0.942606E-10  0.745E-05    2.25     207.0  T
   3    -72.2026788 -0.124132E-09  0.418E-05    2.25     368.8  T

   *** convergence criteria satisfied after 3 iterations ***

         #    Occupation            Energy/Eh            Energy/eV
      -------------------------------------------------------------
         1        2.0000           -0.8167015             -22.2236
       ...           ...                  ...                  ...
        57        2.0000           -0.4379703             -11.9178
        58        2.0000           -0.4235513             -11.5254
        59        2.0000           -0.4109698             -11.1831
        60        2.0000           -0.3937766             -10.7152
        61        2.0000           -0.3837268             -10.4417
        62        2.0000           -0.3710970             -10.0981
        63        2.0000           -0.3546749              -9.6512 (HOMO)
        64                         -0.2720560              -7.4030 (LUMO)
        65                         -0.2589697              -7.0469
        66                         -0.2233445              -6.0775
        67                         -0.2016253              -5.4865
        68                         -0.1358326              -3.6962
       ...                                ...                  ...
       114                          0.7164092              19.4945
      -------------------------------------------------------------
                  HL-Gap            0.0826189 Eh            2.2482 eV
             Fermi-level           -0.3133655 Eh           -8.5271 eV

 SCC (total)                   0 d,  0 h,  0 min,  0.039 sec
 SCC setup                      ...        0 min,  0.000 sec (  0.782%)
 Dispersion                     ...        0 min,  0.000 sec (  0.770%)
 classical contributions        ...        0 min,  0.000 sec (  0.364%)
 integral evaluation            ...        0 min,  0.008 sec ( 20.023%)
 iterations                     ...        0 min,  0.007 sec ( 16.770%)
 molecular gradient             ...        0 min,  0.024 sec ( 60.877%)
 printout                       ...        0 min,  0.000 sec (  0.396%)

         :::::::::::::::::::::::::::::::::::::::::::::::::::::
         ::                     SUMMARY                     ::
         :::::::::::::::::::::::::::::::::::::::::::::::::::::
         :: total energy             -71.307564005719 Eh    ::
         :: gradient norm              0.000332842679 Eh/a0 ::
         :: HOMO-LUMO gap              2.248173498880 eV    ::
         ::.................................................::
         :: SCC energy               -72.202520413353 Eh    ::
         :: -> isotropic ES            0.108395501366 Eh    ::
         :: -> anisotropic ES          0.008259697637 Eh    ::
         :: -> anisotropic XC          0.018433465945 Eh    ::
         :: -> dispersion             -0.046632247301 Eh    ::
         :: repulsion energy           0.894956407634 Eh    ::
         :: add. restraining           0.000000000000 Eh    ::
         :: total charge              -0.000000000000 e     ::
         :::::::::::::::::::::::::::::::::::::::::::::::::::::

           -------------------------------------------------
          |                Property Printout                |
           -------------------------------------------------

    * Orbital Energies and Occupations

         #    Occupation            Energy/Eh            Energy/eV
      -------------------------------------------------------------
         1        2.0000           -0.8167015             -22.2236
       ...           ...                  ...                  ...
        51        2.0000           -0.4629546             -12.5976
        52        2.0000           -0.4602032             -12.5228
        53        2.0000           -0.4576220             -12.4525
        54        2.0000           -0.4566869             -12.4271
        55        2.0000           -0.4531781             -12.3316
        56        2.0000           -0.4483345             -12.1998
        57        2.0000           -0.4379703             -11.9178
        58        2.0000           -0.4235513             -11.5254
        59        2.0000           -0.4109698             -11.1831
        60        2.0000           -0.3937766             -10.7152
        61        2.0000           -0.3837268             -10.4417
        62        2.0000           -0.3710970             -10.0981
        63        2.0000           -0.3546749              -9.6512 (HOMO)
        64                         -0.2720560              -7.4030 (LUMO)
        65                         -0.2589697              -7.0469
        66                         -0.2233445              -6.0775
        67                         -0.2016253              -5.4865
        68                         -0.1358326              -3.6962
        69                         -0.0961594              -2.6166
        70                         -0.0756140              -2.0576
        71                         -0.0302615              -0.8235
        72                         -0.0173192              -0.4713
        73                          0.0340777               0.9273
        74                          0.0400692               1.0903
       ...                                ...                  ...
       114                          0.7164092              19.4945
      -------------------------------------------------------------
                  HL-Gap            0.0826189 Eh            2.2482 eV
             Fermi-level           -0.3133655 Eh           -8.5271 eV

     #   Z          covCN         q      C6AA      α(0)
     1   8 O        0.857    -0.454    22.799     6.402
     2   6 C        2.704     0.359    20.901     7.483
     3   8 O        1.660    -0.349    19.883     6.019
     4   6 C        2.956    -0.079    29.977     8.980
     5   6 C        2.883     0.030    27.335     8.571
     6   7 N        2.745    -0.006    21.384     6.868
     7   6 C        2.933     0.051    26.858     8.499
     8   6 C        2.932    -0.091    30.274     9.024
     9   6 C        2.901     0.055    26.761     8.482
    10   7 N        2.739    -0.092    23.029     7.127
    11   6 C        3.755    -0.004    20.712     6.489
    12   6 C        3.752     0.003    20.582     6.469
    13   7 N        2.678    -0.254    26.589     7.658
    14   6 C        3.752     0.005    20.545     6.464
    15   6 C        3.756    -0.008    20.772     6.498
    16   6 C        2.782     0.137    24.990     8.188
    17   9 F        0.787    -0.235    11.604     4.024
    18   6 C        2.922    -0.041    29.010     8.833
    19   6 C        2.982    -0.043    29.049     8.841
    20   6 C        2.830     0.223    23.318     7.913
    21   8 O        0.857    -0.397    21.617     6.234
    22   6 C        3.811     0.028    20.092     6.380
    23   6 C        3.806    -0.068    21.800     6.647
    24   6 C        3.806    -0.070    21.836     6.652
    25   1 H        0.805     0.327     0.646     1.262
    26   1 H        0.925     0.083     1.951     2.184
    27   1 H        0.926     0.045     2.377     2.411
    28   1 H        0.923     0.032     2.556     2.500
    29   1 H        0.925     0.062     2.173     2.305
    30   1 H        0.924     0.041     2.430     2.438
    31   1 H        0.924     0.056     2.247     2.344
    32   1 H        0.860     0.136     1.501     1.919
    33   1 H        0.924     0.044     2.397     2.421
    34   1 H        0.924     0.038     2.471     2.458
    35   1 H        0.925     0.044     2.390     2.418
    36   1 H        0.924     0.036     2.506     2.476
    37   1 H        0.926     0.092     1.864     2.135
    38   1 H        0.925     0.048     2.347     2.395
    39   1 H        0.926     0.053     2.286     2.364
    40   1 H        0.926     0.047     2.363     2.404
    41   1 H        0.926     0.060     2.196     2.317
    42   1 H        0.926     0.054     2.269     2.355

 Mol. C6AA /au·bohr⁶  :      20022.196155
 Mol. C8AA /au·bohr⁸  :     469089.270855
 Mol. α(0) /au        :        215.854714


Wiberg/Mayer (AO) data.
largest (>0.10) Wiberg bond orders for each atom

 ---------------------------------------------------------------------------
     #   Z sym  total        # sym  WBO       # sym  WBO       # sym  WBO
 ---------------------------------------------------------------------------
     1   8 O    1.983 --     2 C    1.683     3 O    0.168
     2   6 C    3.919 --     1 O    1.683     3 O    1.150     4 C    1.030
     3   8 O    2.227 --     2 C    1.150    25 H    0.868     1 O    0.168
     4   6 C    3.970 --     5 C    1.546    20 C    1.079     2 C    1.030
     5   6 C    3.961 --     4 C    1.546     6 N    1.264    26 H    0.951
     6   7 N    3.618 --     5 C    1.264     7 C    1.099    22 C    0.982
     7   6 C    3.962 --     8 C    1.377    19 C    1.293     6 N    1.099
     8   6 C    3.970 --     7 C    1.377     9 C    1.349    27 H    0.958
     9   6 C    3.977 --     8 C    1.349    16 C    1.255    10 N    1.179
    10   7 N    3.401 --     9 C    1.179    11 C    0.993    15 C    0.992
    11   6 C    3.975 --    10 N    0.993    12 C    0.983    29 H    0.970
                            28 H    0.966
    12   6 C    3.982 --    13 N    1.017    11 C    0.983    30 H    0.974
                            31 H    0.970
    13   7 N    3.080 --    14 C    1.024    12 C    1.017    32 H    0.957
    14   6 C    3.985 --    13 N    1.024    15 C    0.975    34 H    0.973
                            33 H    0.972
    15   6 C    3.977 --    10 N    0.992    14 C    0.975    36 H    0.969
                            35 H    0.968
    16   6 C    3.873 --    18 C    1.475     9 C    1.255    17 F    0.943
    17   9 F    1.070 --    16 C    0.943
    18   6 C    3.983 --    16 C    1.475    19 C    1.344    37 H    0.957
    19   6 C    3.975 --    18 C    1.344     7 C    1.293    20 C    1.054
    20   6 C    3.954 --    21 O    1.715     4 C    1.079    19 C    1.054
    21   8 O    2.023 --    20 C    1.715
    22   6 C    3.920 --     6 N    0.982    24 C    0.974    23 C    0.963
                            38 H    0.959
    23   6 C    3.940 --    24 C    0.984    40 H    0.980    39 H    0.979
                            22 C    0.963
    24   6 C    3.943 --    23 C    0.984    42 H    0.979    41 H    0.975
                            22 C    0.974
    25   1 H    0.893 --     3 O    0.868
    26   1 H    0.993 --     5 C    0.951
    27   1 H    0.997 --     8 C    0.958
    28   1 H    0.997 --    11 C    0.966
    29   1 H    0.996 --    11 C    0.970
    30   1 H    0.998 --    12 C    0.974
    31   1 H    0.997 --    12 C    0.970
    32   1 H    0.981 --    13 N    0.957
    33   1 H    0.998 --    14 C    0.972
    34   1 H    0.997 --    14 C    0.973
    35   1 H    0.998 --    15 C    0.968
    36   1 H    0.997 --    15 C    0.969
    37   1 H    0.991 --    18 C    0.957
    38   1 H    0.995 --    22 C    0.959
    39   1 H    0.997 --    23 C    0.979
    40   1 H    0.997 --    23 C    0.980
    41   1 H    0.996 --    24 C    0.975
    42   1 H    0.997 --    24 C    0.979
 ---------------------------------------------------------------------------

Topologies differ in total number of bonds
Writing topology from bond orders to xtbtopo.mol

molecular dipole:
                 x           y           z       tot (Debye)
 q only:        1.894      -2.729       0.853
   full:        1.673      -2.975       1.240       9.230
molecular quadrupole (traceless):
                xx          xy          yy          xz          yz          zz
 q only:       -6.519       7.366      -0.699       0.078       3.169       7.217
  q+dip:       -6.084       4.245      -2.165       6.000       0.746       8.249
   full:       -7.479       4.756      -3.209       5.233       3.084      10.688

           -------------------------------------------------
          |                Geometry Summary                 |
           -------------------------------------------------

      molecular mass/u    :      331.3421713
   center of mass at/Å    :       -0.5566937       0.5465316      -0.0525585
  moments of inertia/u·Å² :        0.1091420E+04   0.3703711E+04   0.4634784E+04
rotational constants/cm⁻¹ :        0.1544560E-01   0.4551552E-02   0.3637199E-02

 * 40 selected distances

     #   Z          #   Z                                           value/Å
     1   8 O        2   6 C                                       1.2133103
     2   6 C        3   8 O                                       1.3293154
     4   6 C        5   6 C                                       1.3623519
     5   6 C        6   7 N                                       1.3436813
     6   7 N        7   6 C                                       1.3876520
     7   6 C        8   6 C                                       1.3904992
     8   6 C        9   6 C                                       1.4000207
     9   6 C       10   7 N                                       1.3699464
    10   7 N       11   6 C                                       1.4489690
    11   6 C       12   6 C                                       1.5365393 (max)
    12   6 C       13   7 N                                       1.4520788
    13   7 N       14   6 C                                       1.4477826
    10   7 N       15   6 C                                       1.4481631
     9   6 C       16   6 C                                       1.4123448
    16   6 C       18   6 C                                       1.3683466
     7   6 C       19   6 C                                       1.4042518
    18   6 C       19   6 C                                       1.3954541
    20   6 C       21   8 O                                       1.2177556
     6   7 N       22   6 C                                       1.4333044
    22   6 C       23   6 C                                       1.5030080
    22   6 C       24   6 C                                       1.4986360
    23   6 C       24   6 C                                       1.4965508
     3   8 O       25   1 H                                       0.9697471 (min)
     5   6 C       26   1 H                                       1.0819468
     8   6 C       27   1 H                                       1.0762891
    11   6 C       28   1 H                                       1.0993160
    11   6 C       29   1 H                                       1.0865376
    12   6 C       30   1 H                                       1.0906880
    12   6 C       31   1 H                                       1.0928717
    13   7 N       32   1 H                                       1.0166427
    14   6 C       33   1 H                                       1.0946784
    14   6 C       34   1 H                                       1.0918548
    15   6 C       35   1 H                                       1.0879559
    15   6 C       36   1 H                                       1.0977936
    18   6 C       37   1 H                                       1.0791587
    22   6 C       38   1 H                                       1.0865309
    23   6 C       39   1 H                                       1.0792390
    23   6 C       40   1 H                                       1.0794456
    24   6 C       41   1 H                                       1.0786161
    24   6 C       42   1 H                                       1.0787382

 * 6 distinct bonds (by element types)

   Z      Z             #   av. dist./Å        max./Å        min./Å
   1 H    6 C          16     1.0863538     1.0993160     1.0762891
   6 C    6 C          11     1.4334548     1.5365393     1.3623519
   1 H    7 N           1     1.0166427     1.0166427     1.0166427
   6 C    7 N           8     1.4164472     1.4520788     1.3436813
   1 H    8 O           1     0.9697471     0.9697471     0.9697471
   6 C    8 O           3     1.2534604     1.3293154     1.2133103


optimized geometry written to: xtbopt.xyz


           -------------------------------------------------
          | TOTAL ENERGY              -71.307564005719 Eh   |
          | GRADIENT NORM               0.000332842679 Eh/α |
          | HOMO-LUMO GAP               2.248173498880 eV   |
           -------------------------------------------------

------------------------------------------------------------------------
 * finished run on 2025/05/15 at 16:09:37.742     
------------------------------------------------------------------------
 total:
 * wall-time:     0 d,  0 h,  0 min,  1.607 sec
 *  cpu-time:     0 d,  0 h,  0 min,  1.140 sec
 * ratio c/w:     0.709 speedup
 SCF:
 * wall-time:     0 d,  0 h,  0 min,  0.089 sec
 *  cpu-time:     0 d,  0 h,  0 min,  0.060 sec
 * ratio c/w:     0.672 speedup
 ANC optimizer:
 * wall-time:     0 d,  0 h,  0 min,  1.504 sec
 *  cpu-time:     0 d,  0 h,  0 min,  1.067 sec
 * ratio c/w:     0.709 speedup



----- Single-point -----
      -----------------------------------------------------------      
     |                   =====================                   |     
     |                           x T B                           |     
     |                   =====================                   |     
     |                         S. Grimme                         |     
     |          Mulliken Center for Theoretical Chemistry        |     
     |                    University of Bonn                     |     
      -----------------------------------------------------------      

   * xtb version 6.7.1 (edcfbbe) compiled by 'conda@3ef47c1a292c' on 2024-11-25

   xtb is free software: you can redistribute it and/or modify it under
   the terms of the GNU Lesser General Public License as published by
   the Free Software Foundation, either version 3 of the License, or
   (at your option) any later version.
   
   xtb is distributed in the hope that it will be useful,
   but WITHOUT ANY WARRANTY; without even the implied warranty of
   MERCHANTABILITY or FITNESS FOR A PARTICULAR PURPOSE.  See the
   GNU Lesser General Public License for more details.
   
   Cite this work as:
   * C. Bannwarth, E. Caldeweyher, S. Ehlert, A. Hansen, P. Pracht,
     J. Seibert, S. Spicher, S. Grimme, WIREs Comput. Mol. Sci., 2020, 11,
     e01493. DOI: 10.1002/wcms.1493
   
   for GFN2-xTB:
   * C. Bannwarth, S. Ehlert and S. Grimme., J. Chem. Theory Comput., 2019,
     15, 1652-1671. DOI: 10.1021/acs.jctc.8b01176
   for GFN1-xTB:
   * S. Grimme, C. Bannwarth, P. Shushkov, J. Chem. Theory Comput., 2017,
     13, 1989-2009. DOI: 10.1021/acs.jctc.7b00118
   for GFN0-xTB:
   * P. Pracht, E. Caldeweyher, S. Ehlert, S. Grimme, ChemRxiv, 2019, preprint.
     DOI: 10.26434/chemrxiv.8326202.v1
   for GFN-FF:
   * S. Spicher and S. Grimme, Angew. Chem. Int. Ed., 2020, 59, 15665-15673.
     DOI: 10.1002/anie.202004239
   
   for ALPB and GBSA implicit solvation:
   * S. Ehlert, M. Stahn, S. Spicher, S. Grimme, J. Chem. Theory Comput.,
     2021, 17, 4250-4261. DOI: 10.1021/acs.jctc.1c00471
   
   for ddCOSMO and CPCM-X implicit solvation:
   * M. Stahn, S. Ehlert, S. Grimme, J. Phys. Chem. A,
     2023, XX, XXXX-XXXX. DOI: 10.1021/acs.jpca.3c04382
   
   for DFT-D4:
   * E. Caldeweyher, C. Bannwarth and S. Grimme, J. Chem. Phys., 2017,
     147, 034112. DOI: 10.1063/1.4993215
   * E. Caldeweyher, S. Ehlert, A. Hansen, H. Neugebauer, S. Spicher,
     C. Bannwarth and S. Grimme, J. Chem. Phys., 2019, 150, 154122.
     DOI: 10.1063/1.5090222
   * E. Caldeweyher, J.-M. Mewes, S. Ehlert and S. Grimme, Phys. Chem. Chem. Phys.
     2020, 22, 8499-8512. DOI: 10.1039/D0CP00502A
   
   for sTDA-xTB:
   * S. Grimme and C. Bannwarth, J. Chem. Phys., 2016, 145, 054103.
     DOI: 10.1063/1.4959605
   
   in the mass-spec context:
   * V. Asgeirsson, C. Bauer and S. Grimme, Chem. Sci., 2017, 8, 4879.
     DOI: 10.1039/c7sc00601b
   * J. Koopman and S. Grimme, ACS Omega 2019, 4, 12, 15120-15133.
     DOI: 10.1021/acsomega.9b02011
   
   for metadynamics refer to:
   * S. Grimme, J. Chem. Theory Comput., 2019, 155, 2847-2862
     DOI: 10.1021/acs.jctc.9b00143
   
   for SPH calculations refer to:
   * S. Spicher and S. Grimme, J. Chem. Theory Comput., 2021, 17, 1701-1714
     DOI: 10.1021/acs.jctc.0c01306
   
   for ONIOM refer to:
   * C. Plett, A. Katbashev, S. Ehlert, S. Grimme, M. Bursch,
     Phys. Chem. Chem. Phys., 2023, 25, 17860-17868. DOI: 10.1039/D3CP02178E
   
   for DIPRO refer to:
   * J. Kohn, N. Gildemeister, S. Grimme, D. Fazzi, A. Hansen,
     J. Chem. Phys., 2023, just accepted.
   
   for PTB refer to:
   * S. Grimme, M. Mueller, A. Hansen, J. Chem. Phys., 2023, 158, 124111.
     DOI: 10.1063/5.0137838
   
   with help from (in alphabetical order)
   P. Atkinson, C. Bannwarth, F. Bohle, G. Brandenburg, E. Caldeweyher
   M. Checinski, S. Dohm, S. Ehlert, S. Ehrlich, I. Gerasimov, C. Hölzer
   A. Katbashev, J. Kohn, J. Koopman, C. Lavigne, S. Lehtola, F. März, M. Müller,
   F. Musil, H. Neugebauer, J. Pisarek, C. Plett, P. Pracht, F. Pultar,
   J. Seibert, P. Shushkov, S. Spicher, M. Stahn, M. Steiner, T. Strunk,
   J. Stückrath, T. Rose, and J. Unsleber
   
 * started run on 2025/05/15 at 16:09:37.782     
   ID    Z sym.   atoms
    1    8 O      1, 3, 21
    2    6 C      2, 4, 5, 7-9, 11, 12, 14-16, 18-20, 22-24
    3    7 N      6, 10, 13
    4    9 F      17
    5    1 H      25-42

           -------------------------------------------------
          |                Calculation Setup                |
           -------------------------------------------------

          program call               : xtb /rds/general/user/hgt20/home/callum/QDESCP/Ciprofloxacin_rdkit_conf_16/Ciprofloxacin_rdkit_conf_16.xyz --acc 1 --gfn 2 --chrg 0 --uhf 0 --etemp 300 --input /rds/general/user/hgt20/home/callum/QDESCP/Ciprofloxacin_rdkit_conf_16/Ciprofloxacin_rdkit_conf_16_xtb.inp -P 1
          hostname                   : login-c
          coordinate file            : /rds/general/user/hgt20/home/callum/QDESCP/Ciprofloxacin_rdkit_conf_16/Ciprofloxacin_rdkit_conf_16.xyz
          omp threads                :                     1


           -------------------------------------------------
          |                 G F N 2 - x T B                 |
           -------------------------------------------------

        Reference                      10.1021/acs.jctc.8b01176
      * Hamiltonian:
        H0-scaling (s, p, d)           1.850000    2.230000    2.230000
        zeta-weighting                 0.500000
      * Dispersion:
        s8                             2.700000
        a1                             0.520000
        a2                             5.000000
        s9                             5.000000
      * Repulsion:
        kExp                           1.500000    1.000000
        rExp                           1.000000
      * Coulomb:
        alpha                          2.000000
        third order                    shell-resolved
        anisotropic                    true
        a3                             3.000000
        a5                             4.000000
        cn-shift                       1.200000
        cn-exp                         4.000000
        max-rad                        5.000000

q/qsh data taken from xtbrestart
CAMM data taken from xtbrestart

          ...................................................
          :                      SETUP                      :
          :.................................................:
          :  # basis functions                 114          :
          :  # atomic orbitals                 114          :
          :  # shells                           66          :
          :  # electrons                       126          :
          :  max. iterations                   250          :
          :  Hamiltonian                  GFN2-xTB          :
          :  restarted?                       true          :
          :  GBSA solvation                  false          :
          :  PC potential                    false          :
          :  electronic temp.          300.0000000     K    :
          :  accuracy                    1.0000000          :
          :  -> integral cutoff          0.2500000E+02      :
          :  -> integral neglect         0.1000000E-07      :
          :  -> SCF convergence          0.1000000E-05 Eh   :
          :  -> wf. convergence          0.1000000E-03 e    :
          :  Broyden damping             0.4000000          :
          :  net charge                          0          :
          :  unpaired electrons                  0          :
          ...................................................

 iter      E             dE          RMSdq      gap      omega  full diag
   1    -72.2026788 -0.722027E+02  0.839E-06    2.25       0.0  T
   2    -72.2026788 -0.781597E-12  0.535E-06    2.25    2882.5  T
   3    -72.2026788 -0.369482E-12  0.313E-06    2.25    4929.0  T

   *** convergence criteria satisfied after 3 iterations ***

         #    Occupation            Energy/Eh            Energy/eV
      -------------------------------------------------------------
         1        2.0000           -0.8167015             -22.2236
       ...           ...                  ...                  ...
        57        2.0000           -0.4379702             -11.9178
        58        2.0000           -0.4235512             -11.5254
        59        2.0000           -0.4109697             -11.1831
        60        2.0000           -0.3937767             -10.7152
        61        2.0000           -0.3837268             -10.4417
        62        2.0000           -0.3710969             -10.0981
        63        2.0000           -0.3546750              -9.6512 (HOMO)
        64                         -0.2720558              -7.4030 (LUMO)
        65                         -0.2589696              -7.0469
        66                         -0.2233443              -6.0775
        67                         -0.2016253              -5.4865
        68                         -0.1358326              -3.6962
       ...                                ...                  ...
       114                          0.7164093              19.4945
      -------------------------------------------------------------
                  HL-Gap            0.0826191 Eh            2.2482 eV
             Fermi-level           -0.3133654 Eh           -8.5271 eV

 SCC (total)                   0 d,  0 h,  0 min,  0.043 sec
 SCC setup                      ...        0 min,  0.000 sec (  0.854%)
 Dispersion                     ...        0 min,  0.000 sec (  1.101%)
 classical contributions        ...        0 min,  0.000 sec (  0.335%)
 integral evaluation            ...        0 min,  0.008 sec ( 18.765%)
 iterations                     ...        0 min,  0.008 sec ( 18.237%)
 molecular gradient             ...        0 min,  0.026 sec ( 60.203%)
 printout                       ...        0 min,  0.000 sec (  0.489%)

         :::::::::::::::::::::::::::::::::::::::::::::::::::::
         ::                     SUMMARY                     ::
         :::::::::::::::::::::::::::::::::::::::::::::::::::::
         :: total energy             -71.307564005731 Eh    ::
         :: gradient norm              0.000332727829 Eh/a0 ::
         :: HOMO-LUMO gap              2.248181080392 eV    ::
         ::.................................................::
         :: SCC energy               -72.202520413365 Eh    ::
         :: -> isotropic ES            0.108395504671 Eh    ::
         :: -> anisotropic ES          0.008259670675 Eh    ::
         :: -> anisotropic XC          0.018433448348 Eh    ::
         :: -> dispersion             -0.046632247473 Eh    ::
         :: repulsion energy           0.894956407634 Eh    ::
         :: add. restraining           0.000000000000 Eh    ::
         :: total charge               0.000000000000 e     ::
         :::::::::::::::::::::::::::::::::::::::::::::::::::::

           -------------------------------------------------
          |                Property Printout                |
           -------------------------------------------------

    * Orbital Energies and Occupations

         #    Occupation            Energy/Eh            Energy/eV
      -------------------------------------------------------------
         1        2.0000           -0.8167015             -22.2236
       ...           ...                  ...                  ...
        51        2.0000           -0.4629544             -12.5976
        52        2.0000           -0.4602032             -12.5228
        53        2.0000           -0.4576218             -12.4525
        54        2.0000           -0.4566868             -12.4271
        55        2.0000           -0.4531781             -12.3316
        56        2.0000           -0.4483343             -12.1998
        57        2.0000           -0.4379702             -11.9178
        58        2.0000           -0.4235512             -11.5254
        59        2.0000           -0.4109697             -11.1831
        60        2.0000           -0.3937767             -10.7152
        61        2.0000           -0.3837268             -10.4417
        62        2.0000           -0.3710969             -10.0981
        63        2.0000           -0.3546750              -9.6512 (HOMO)
        64                         -0.2720558              -7.4030 (LUMO)
        65                         -0.2589696              -7.0469
        66                         -0.2233443              -6.0775
        67                         -0.2016253              -5.4865
        68                         -0.1358326              -3.6962
        69                         -0.0961592              -2.6166
        70                         -0.0756139              -2.0576
        71                         -0.0302613              -0.8235
        72                         -0.0173192              -0.4713
        73                          0.0340777               0.9273
        74                          0.0400691               1.0903
       ...                                ...                  ...
       114                          0.7164093              19.4945
      -------------------------------------------------------------
                  HL-Gap            0.0826191 Eh            2.2482 eV
             Fermi-level           -0.3133654 Eh           -8.5271 eV

     #   Z          covCN         q      C6AA      α(0)
     1   8 O        0.857    -0.454    22.799     6.402
     2   6 C        2.704     0.359    20.901     7.483
     3   8 O        1.660    -0.349    19.883     6.019
     4   6 C        2.956    -0.079    29.977     8.980
     5   6 C        2.883     0.030    27.335     8.571
[...]
   
   for ALPB and GBSA implicit solvation:
   * S. Ehlert, M. Stahn, S. Spicher, S. Grimme, J. Chem. Theory Comput.,
     2021, 17, 4250-4261. DOI: 10.1021/acs.jctc.1c00471
   
   for ddCOSMO and CPCM-X implicit solvation:
   * M. Stahn, S. Ehlert, S. Grimme, J. Phys. Chem. A,
     2023, XX, XXXX-XXXX. DOI: 10.1021/acs.jpca.3c04382
   
   for DFT-D4:
   * E. Caldeweyher, C. Bannwarth and S. Grimme, J. Chem. Phys., 2017,
     147, 034112. DOI: 10.1063/1.4993215
   * E. Caldeweyher, S. Ehlert, A. Hansen, H. Neugebauer, S. Spicher,
     C. Bannwarth and S. Grimme, J. Chem. Phys., 2019, 150, 154122.
     DOI: 10.1063/1.5090222
   * E. Caldeweyher, J.-M. Mewes, S. Ehlert and S. Grimme, Phys. Chem. Chem. Phys.
     2020, 22, 8499-8512. DOI: 10.1039/D0CP00502A
   
   for sTDA-xTB:
   * S. Grimme and C. Bannwarth, J. Chem. Phys., 2016, 145, 054103.
     DOI: 10.1063/1.4959605
   
   in the mass-spec context:
   * V. Asgeirsson, C. Bauer and S. Grimme, Chem. Sci., 2017, 8, 4879.
     DOI: 10.1039/c7sc00601b
   * J. Koopman and S. Grimme, ACS Omega 2019, 4, 12, 15120-15133.
     DOI: 10.1021/acsomega.9b02011
   
   for metadynamics refer to:
   * S. Grimme, J. Chem. Theory Comput., 2019, 155, 2847-2862
     DOI: 10.1021/acs.jctc.9b00143
   
   for SPH calculations refer to:
   * S. Spicher and S. Grimme, J. Chem. Theory Comput., 2021, 17, 1701-1714
     DOI: 10.1021/acs.jctc.0c01306
   
   for ONIOM refer to:
   * C. Plett, A. Katbashev, S. Ehlert, S. Grimme, M. Bursch,
     Phys. Chem. Chem. Phys., 2023, 25, 17860-17868. DOI: 10.1039/D3CP02178E
   
   for DIPRO refer to:
   * J. Kohn, N. Gildemeister, S. Grimme, D. Fazzi, A. Hansen,
     J. Chem. Phys., 2023, just accepted.
   
   for PTB refer to:
   * S. Grimme, M. Mueller, A. Hansen, J. Chem. Phys., 2023, 158, 124111.
     DOI: 10.1063/5.0137838
   
   with help from (in alphabetical order)
   P. Atkinson, C. Bannwarth, F. Bohle, G. Brandenburg, E. Caldeweyher
   M. Checinski, S. Dohm, S. Ehlert, S. Ehrlich, I. Gerasimov, C. Hölzer
   A. Katbashev, J. Kohn, J. Koopman, C. Lavigne, S. Lehtola, F. März, M. Müller,
   F. Musil, H. Neugebauer, J. Pisarek, C. Plett, P. Pracht, F. Pultar,
   J. Seibert, P. Shushkov, S. Spicher, M. Stahn, M. Steiner, T. Strunk,
   J. Stückrath, T. Rose, and J. Unsleber
   
 * started run on 2025/05/15 at 16:09:39.819     
   ID    Z sym.   atoms
    1    8 O      1, 3, 21
    2    6 C      2, 4, 5, 7-9, 11, 12, 14-16, 18-20, 22-24
    3    7 N      6, 10, 13
    4    9 F      17
    5    1 H      25-42

           -------------------------------------------------
          |                Calculation Setup                |
           -------------------------------------------------

          program call               : xtb /rds/general/user/hgt20/home/callum/QDESCP/Ciprofloxacin_rdkit_conf_16/Ciprofloxacin_rdkit_conf_16.xyz --acc 1 --gfn 2 --chrg 0 --uhf 2 --etemp 300 --input /rds/general/user/hgt20/home/callum/QDESCP/Ciprofloxacin_rdkit_conf_16/Ciprofloxacin_rdkit_conf_16_xtb.inp -P 1
          hostname                   : login-c
          coordinate file            : /rds/general/user/hgt20/home/callum/QDESCP/Ciprofloxacin_rdkit_conf_16/Ciprofloxacin_rdkit_conf_16.xyz
          omp threads                :                     1


           -------------------------------------------------
          |                 G F N 2 - x T B                 |
           -------------------------------------------------

        Reference                      10.1021/acs.jctc.8b01176
      * Hamiltonian:
        H0-scaling (s, p, d)           1.850000    2.230000    2.230000
        zeta-weighting                 0.500000
      * Dispersion:
        s8                             2.700000
        a1                             0.520000
        a2                             5.000000
        s9                             5.000000
      * Repulsion:
        kExp                           1.500000    1.000000
        rExp                           1.000000
      * Coulomb:
        alpha                          2.000000
        third order                    shell-resolved
        anisotropic                    true
        a3                             3.000000
        a5                             4.000000
        cn-shift                       1.200000
        cn-exp                         4.000000
        max-rad                        5.000000


          ...................................................
          :                      SETUP                      :
          :.................................................:
          :  # basis functions                 114          :
          :  # atomic orbitals                 114          :
          :  # shells                           66          :
          :  # electrons                       126          :
          :  max. iterations                   250          :
          :  Hamiltonian                  GFN2-xTB          :
          :  restarted?                      false          :
          :  GBSA solvation                  false          :
          :  PC potential                    false          :
          :  electronic temp.          300.0000000     K    :
          :  accuracy                    1.0000000          :
          :  -> integral cutoff          0.2500000E+02      :
          :  -> integral neglect         0.1000000E-07      :
          :  -> SCF convergence          0.1000000E-05 Eh   :
          :  -> wf. convergence          0.1000000E-03 e    :
          :  Broyden damping             0.4000000          :
          :  net charge                          0          :
          :  unpaired electrons                  2          :
          ...................................................

 iter      E             dE          RMSdq      gap      omega  full diag
   1    -71.8188607 -0.718189E+02  0.395E+00    0.22       0.0  T
   2    -71.8239773 -0.511656E-02  0.311E+00    0.17       1.0  T
   3    -71.9531315 -0.129154E+00  0.224E+00    0.65       1.0  T
   4    -71.9830519 -0.299204E-01  0.144E+00    0.32       1.0  T
   5    -71.9779927  0.505920E-02  0.128E+00    0.27       1.0  T
   6    -72.0860779 -0.108085E+00  0.541E-01    0.27       1.0  T
   7    -72.0978850 -0.118071E-01  0.201E-01    0.18       1.0  T
   8    -72.0898864  0.799854E-02  0.345E-01    0.14       1.0  T
   9    -72.0771379  0.127485E-01  0.541E-01    0.16       1.0  T
  10    -72.0983905 -0.212526E-01  0.965E-02    0.15       1.0  T
  11    -72.0978918  0.498726E-03  0.129E-01    0.14       1.0  T
  12    -72.0992056 -0.131379E-02  0.273E-02    0.15       1.0  T
  13    -72.0992452 -0.396119E-04  0.159E-02    0.14       1.0  T
  14    -72.0992380  0.726100E-05  0.175E-02    0.14       1.0  T
  15    -72.0992604 -0.224788E-04  0.469E-03    0.14       3.3  T
  16    -72.0992596  0.859684E-06  0.557E-03    0.14       2.8  T
  17    -72.0992621 -0.254508E-05  0.587E-04    0.15      26.3  T
  18    -72.0992621  0.221413E-07  0.717E-04    0.14      21.5  T
  19    -72.0992621 -0.360990E-07  0.225E-04    0.14      68.5  T

   *** convergence criteria satisfied after 19 iterations ***

         #    Occupation            Energy/Eh            Energy/eV
      -------------------------------------------------------------
         1        2.0000           -0.8136796             -22.1413
       ...           ...                  ...                  ...
        58        2.0000           -0.4095450             -11.1443
        59        2.0000           -0.4069073             -11.0725
        60        2.0000           -0.4005030             -10.8982
        61        1.9806           -0.3720529             -10.1241
        62        1.5298           -0.3684405             -10.0258
        63        1.4897           -0.3682879             -10.0216
        64        0.9429           -0.2539240              -6.9096 (HOMO)
        65        0.0571           -0.2485953              -6.7646 (LUMO)
        66                         -0.2073153              -5.6413
        67                         -0.1920501              -5.2259
        68                         -0.1223955              -3.3305
        69                         -0.0832991              -2.2667
       ...                                ...                  ...
       114                          0.7277815              19.8039
      -------------------------------------------------------------
                  HL-Gap            0.0053286 Eh            0.1450 eV
             Fermi-level           -0.3097934 Eh           -8.4299 eV

 transition dipole moment (au) for excitation:          63          64
     X       Y       Z   
   1.4865  -0.2593   0.1389  total (au/Debye):    1.515   3.852
 dE (eV)             :    3.112
 oscillator strength :  0.24758E+00

 SCC (total)                   0 d,  0 h,  0 min,  0.107 sec
 SCC setup                      ...        0 min,  0.000 sec (  0.331%)
 Dispersion                     ...        0 min,  0.001 sec (  0.479%)
 classical contributions        ...        0 min,  0.000 sec (  0.137%)
 integral evaluation            ...        0 min,  0.008 sec (  7.618%)
 iterations                     ...        0 min,  0.065 sec ( 60.318%)
 molecular gradient             ...        0 min,  0.026 sec ( 24.201%)
 printout                       ...        0 min,  0.007 sec (  6.911%)

         :::::::::::::::::::::::::::::::::::::::::::::::::::::
         ::                     SUMMARY                     ::
         :::::::::::::::::::::::::::::::::::::::::::::::::::::
         :: total energy             -71.204147332857 Eh    ::
         :: gradient norm              0.089275060177 Eh/a0 ::
         :: HOMO-LUMO gap              0.144998792131 eV    ::
         ::.................................................::
         :: SCC energy               -72.099103740492 Eh    ::
         :: -> isotropic ES            0.103564709029 Eh    ::
         :: -> anisotropic ES          0.007069240757 Eh    ::
         :: -> anisotropic XC          0.016112589658 Eh    ::
         :: -> dispersion             -0.046609322739 Eh    ::
         :: repulsion energy           0.894956407634 Eh    ::
         :: add. restraining           0.000000000000 Eh    ::
         :: total charge               0.000000000014 e     ::
         :::::::::::::::::::::::::::::::::::::::::::::::::::::

           -------------------------------------------------
          |                Property Printout                |
           -------------------------------------------------

    * Orbital Energies and Occupations

         #    Occupation            Energy/Eh            Energy/eV
      -------------------------------------------------------------
         1        2.0000           -0.8136796             -22.1413
       ...           ...                  ...                  ...
        52        2.0000           -0.4566412             -12.4258
        53        2.0000           -0.4512281             -12.2785
        54        2.0000           -0.4487552             -12.2113
        55        2.0000           -0.4444755             -12.0948
        56        2.0000           -0.4396974             -11.9648
        57        2.0000           -0.4318995             -11.7526
        58        2.0000           -0.4095450             -11.1443
        59        2.0000           -0.4069073             -11.0725
        60        2.0000           -0.4005030             -10.8982
        61        1.9806           -0.3720529             -10.1241
        62        1.5298           -0.3684405             -10.0258
        63        1.4897           -0.3682879             -10.0216
        64        0.9429           -0.2539240              -6.9096 (HOMO)
        65        0.0571           -0.2485953              -6.7646 (LUMO)
        66                         -0.2073153              -5.6413
        67                         -0.1920501              -5.2259
        68                         -0.1223955              -3.3305
        69                         -0.0832991              -2.2667
        70                         -0.0624464              -1.6993
        71                         -0.0341847              -0.9302
        72                         -0.0084378              -0.2296
        73                          0.0181840               0.4948
        74                          0.0382128               1.0398
        75                          0.0456056               1.2410
       ...                                ...                  ...
       114                          0.7277815              19.8039
      -------------------------------------------------------------
                  HL-Gap            0.0053286 Eh            0.1450 eV
             Fermi-level           -0.3097934 Eh           -8.4299 eV

     #   Z          covCN         q      C6AA      α(0)
     1   8 O        0.857    -0.453    22.774     6.398
     2   6 C        2.704     0.357    20.945     7.491
     3   8 O        1.660    -0.359    20.072     6.048
     4   6 C        2.956    -0.073    29.828     8.958
     5   6 C        2.883    -0.007    28.185     8.704
     6   7 N        2.745    -0.024    21.716     6.921
     7   6 C        2.933     0.053    26.804     8.491
     8   6 C        2.932    -0.103    30.610     9.073
     9   6 C        2.901     0.028    27.375     8.579
    10   7 N        2.739    -0.057    22.347     7.021
    11   6 C        3.755    -0.007    20.753     6.496
    12   6 C        3.752     0.001    20.628     6.477
    13   7 N        2.678    -0.223    25.874     7.555
    14   6 C        3.752     0.002    20.605     6.473
    15   6 C        3.756    -0.011    20.824     6.506
    16   6 C        2.782     0.136    25.015     8.192
    17   9 F        0.787    -0.241    11.673     4.036
    18   6 C        2.922    -0.074    29.850     8.960
    19   6 C        2.982    -0.017    28.437     8.747
    20   6 C        2.830     0.196    23.829     7.999
    21   8 O        0.857    -0.357    20.841     6.121
    22   6 C        3.811     0.031    20.037     6.371
    23   6 C        3.806    -0.069    21.820     6.650
    24   6 C        3.806    -0.069    21.822     6.650
    25   1 H        0.805     0.325     0.650     1.267
    26   1 H        0.925     0.069     2.093     2.262
    27   1 H        0.926     0.035     2.515     2.480
    28   1 H        0.923     0.041     2.433     2.439
    29   1 H        0.925     0.077     2.009     2.217
    30   1 H        0.924     0.053     2.284     2.363
    31   1 H        0.924     0.069     2.096     2.264
    32   1 H        0.860     0.148     1.414     1.863
    33   1 H        0.924     0.057     2.237     2.339
    34   1 H        0.924     0.050     2.324     2.384
    35   1 H        0.925     0.061     2.184     2.311
    36   1 H        0.924     0.044     2.391     2.418
    37   1 H        0.926     0.074     2.047     2.237
    38   1 H        0.925     0.041     2.437     2.441
    39   1 H        0.926     0.049     2.330     2.387
    40   1 H        0.926     0.040     2.453     2.449
    41   1 H        0.926     0.060     2.201     2.320
    42   1 H        0.926     0.050     2.326     2.385

 Mol. C6AA /au·bohr⁶  :      19995.914108
 Mol. C8AA /au·bohr⁸  :     469033.653368
 Mol. α(0) /au        :        215.743101


Wiberg/Mayer (AO) data.
largest (>0.10) Wiberg bond orders for each atom

 ---------------------------------------------------------------------------
     #   Z sym  total        # sym  WBO       # sym  WBO       # sym  WBO
 ---------------------------------------------------------------------------
     1   8 O    1.961 --     2 C    1.661     3 O    0.158
     2   6 C    3.894 --     1 O    1.661     3 O    1.136     4 C    1.036
     3   8 O    2.206 --     2 C    1.136    25 H    0.869     1 O    0.158
     4   6 C    3.868 --     5 C    1.454    20 C    1.079     2 C    1.036
     5   6 C    3.873 --     4 C    1.454     6 N    1.192    26 H    0.949
     6   7 N    3.560 --     5 C    1.192     7 C    1.111    22 C    0.988
     7   6 C    3.947 --     8 C    1.385    19 C    1.270     6 N    1.111
     8   6 C    3.870 --     7 C    1.385     9 C    1.234    27 H    0.957
     9   6 C    3.903 --    16 C    1.293     8 C    1.234    10 N    1.142
    10   7 N    3.313 --     9 C    1.142    11 C    1.009    15 C    1.006
    11   6 C    3.960 --    10 N    1.009    29 H    0.967    28 H    0.962
                            12 C    0.961
    12   6 C    3.960 --    13 N    1.023    30 H    0.971    31 H    0.968
                            11 C    0.961
    13   7 N    3.107 --    14 C    1.031    12 C    1.023    32 H    0.952
    14   6 C    3.964 --    13 N    1.031    34 H    0.971    33 H    0.970
                            15 C    0.956
    15   6 C    3.961 --    10 N    1.006    36 H    0.965    35 H    0.965
                            14 C    0.956
    16   6 C    3.805 --    18 C    1.396     9 C    1.293    17 F    0.937
    17   9 F    1.056 --    16 C    0.937
    18   6 C    3.921 --    16 C    1.396    19 C    1.283    37 H    0.961
    19   6 C    3.831 --    18 C    1.283     7 C    1.270    20 C    1.046
    20   6 C    3.885 --    21 O    1.559     4 C    1.079    19 C    1.046
    21   8 O    1.856 --    20 C    1.559
    22   6 C    3.925 --     6 N    0.988    24 C    0.975    23 C    0.961
                            38 H    0.959
    23   6 C    3.939 --    24 C    0.983    40 H    0.980    39 H    0.979
                            22 C    0.961
    24   6 C    3.943 --    23 C    0.983    42 H    0.980    41 H    0.975
                            22 C    0.975
    25   1 H    0.892 --     3 O    0.869
    26   1 H    0.987 --     5 C    0.949
    27   1 H    0.997 --     8 C    0.957
    28   1 H    0.991 --    11 C    0.962
    29   1 H    0.993 --    11 C    0.967
    30   1 H    0.995 --    12 C    0.971
    31   1 H    0.994 --    12 C    0.968
    32   1 H    0.977 --    13 N    0.952
    33   1 H    0.995 --    14 C    0.970
    34   1 H    0.994 --    14 C    0.971
    35   1 H    0.995 --    15 C    0.965
    36   1 H    0.992 --    15 C    0.965
    37   1 H    0.992 --    18 C    0.961
    38   1 H    0.995 --    22 C    0.959
    39   1 H    0.998 --    23 C    0.979
    40   1 H    0.998 --    23 C    0.980
    41   1 H    0.996 --    24 C    0.975
    42   1 H    0.997 --    24 C    0.980
 ---------------------------------------------------------------------------

Topologies differ in total number of bonds
Writing topology from bond orders to xtbtopo.mol

molecular dipole:
                 x           y           z       tot (Debye)
 q only:        3.433      -2.789       0.745
   full:        3.279      -2.995       1.104      11.631
molecular quadrupole (traceless):
                xx          xy          yy          xz          yz          zz
 q only:       -1.071       5.478      -4.182       0.186       3.683       5.253
  q+dip:       -0.126       1.625      -5.701       6.020       1.136       5.827
   full:       -1.072       2.179      -6.624       5.217       3.166       7.696


           -------------------------------------------------
          | TOTAL ENERGY              -71.204147332857 Eh   |
          | GRADIENT NORM               0.089275060177 Eh/α |
          | HOMO-LUMO GAP               0.144998792131 eV   |
           -------------------------------------------------

------------------------------------------------------------------------
 * finished run on 2025/05/15 at 16:09:39.939     
------------------------------------------------------------------------
 total:
 * wall-time:     0 d,  0 h,  0 min,  0.120 sec
 *  cpu-time:     0 d,  0 h,  0 min,  0.097 sec
 * ratio c/w:     0.805 speedup
 SCF:
 * wall-time:     0 d,  0 h,  0 min,  0.107 sec
 *  cpu-time:     0 d,  0 h,  0 min,  0.085 sec
 * ratio c/w:     0.791 speedup


