42
 energy: -71.307564005719 gnorm: 0.000332842679 xtb: 6.7.1 (edcfbbe)
O           -6.07352146746926        0.81172586611850       -0.24747271107724
C           -5.17511116282966        1.62479963680580       -0.30985572842145
O           -5.40378409875542        2.91828417611081       -0.51402612060066
C           -3.75255557818735        1.26934625702879       -0.16045249429789
C           -3.49231781826543       -0.01398159219534        0.21551074987385
N           -2.26500153106027       -0.53162552794658        0.39219881407710
C           -1.15288528214459        0.28525662298050        0.24564223177237
C            0.12801904635348       -0.19321808916388        0.49829567232702
C            1.27514772819615        0.59628715941435        0.35395308305982
N            2.50493646179113        0.07089355039778        0.65116339105417
C            3.67928178611470        0.87314037623568        0.92833431415259
C            4.61471083423013        0.91791298501830       -0.28982847192943
N            4.99166661311244       -0.41569791245280       -0.72332444805662
C            3.81702637400249       -1.23153241465886       -0.94850948112139
C            2.86957490161098       -1.27754309068464        0.26915097379465
C            1.05088809699623        1.92886442802536       -0.05673279643197
F            2.09466973088189        2.77073518558544       -0.27528493540034
C           -0.20400144845633        2.42249673863291       -0.28900715137746
C           -1.33737698010979        1.62098427170349       -0.14642550925324
C           -2.66156749758854        2.21117818885786       -0.41035136089591
O           -2.79085309223051        3.35942104522727       -0.79473664628011
C           -2.12408924906920       -1.90431009906258        0.77980940073274
C           -1.49855002908776       -2.87864825209142       -0.17852171446820
C           -2.96569931657081       -2.94697444309927        0.10865142202759
H           -6.35475939964177        3.07569868818285       -0.62021464291044
H           -4.32792551454915       -0.67806945172891        0.39258646753919
H            0.24654226124649       -1.20458510281851        0.84684547336366
H            4.20611628044483        0.38941796015994        1.76317176342881
H            3.39661833561779        1.87243077848781        1.24783989540453
H            5.51732206566597        1.48245853274919       -0.05280240496359
H            4.10614621536135        1.40972259112454       -1.12280726543680
H            5.58248020998407       -0.84973909069973       -0.01897387234148
H            3.27679361447047       -0.80229995631353       -1.79834989739103
H            4.13345195984461       -2.24286773831447       -1.21161091939646
H            1.98690054688632       -1.85956473919799        0.01266579244904
H            3.37782316923283       -1.75860989894493        1.11496949485534
H           -0.33496539561091        3.44479177894648       -0.60892053911837
H           -1.91210455947091       -2.02926053077161        1.83810947138706
H           -1.19418542317156       -2.50233603594695       -1.14315013192427
H           -0.85042783230838       -3.64486183351824        0.21904208435450
H           -3.64282863515732       -2.63283756087598       -0.66995395142707
H           -3.34160492030882       -3.75748345730654        0.71317269886945
