29
 energy: -55.287421648111 gnorm: 0.000752508875 xtb: 6.7.1 (edcfbbe)
O           -3.01848089866059       -1.43861381320221        0.63269114169656
C           -1.92923626057645       -0.55777029819154        0.81189594333989
C           -2.13226077793333        0.62290957276353       -0.14573948563034
C           -2.09516348681608        0.17714094377913       -1.61446751310726
C           -0.60510285665515        0.33634958568814       -1.98914616897582
C           -0.08117315855023        1.34990183322092       -0.92795508510226
N            1.08461565185304        0.82950304091732       -0.25107098500245
C            2.22373777573520        1.46062988386491        0.09891976220581
N            3.01219169787733        0.64508512962318        0.74747319416311
C            2.30504459702887       -0.51594989006640        0.79070130142899
C            2.80489471782670       -1.73741720881496        1.46762316201769
N            4.06434572478085       -1.57414148940971        1.92503113109311
O            2.15745122256206       -2.75235086003881        1.59786642877754
N            1.13855748317684       -0.42780093326530        0.19027983235301
O           -1.11255763749922        1.60272427523053       -0.01771184238877
O           -0.39989946026764        0.76586800811987       -3.29215639870508
O           -2.83308117573091        1.03087261304822       -2.46037037111762
H           -2.86327694678985       -2.22333160834526        1.16885912562002
H           -1.90048319550763       -0.17058864573579        1.83893525444231
H           -0.97424060723756       -1.05095295668312        0.59461685048383
H           -3.07749425932648        1.12026917318401        0.09573331117342
H           -2.43605765812324       -0.85797204272895       -1.71657902397294
H           -0.07266274411887       -0.61088405249663       -1.85885421340092
H            0.21618343462040        2.29724097904753       -1.39581163949325
H            2.43513099645185        2.48305316648982       -0.13615866922952
H            4.51481732592311       -2.32305378033293        2.42290814070449
H            4.52589039959517       -0.68897458983865        1.80065898558590
H           -1.18303652296916        1.27447646772987       -3.55477906952598
H           -3.76875338066759        0.93397749643820       -2.25899309943375
