----- Optimization -----
      -----------------------------------------------------------      
     |                   =====================                   |     
     |                           x T B                           |     
     |                   =====================                   |     
     |                         S. Grimme                         |     
     |          Mulliken Center for Theoretical Chemistry        |     
     |                    University of Bonn                     |     
      -----------------------------------------------------------      

   * xtb version 6.7.1 (edcfbbe) compiled by 'conda@3ef47c1a292c' on 2024-11-25

   xtb is free software: you can redistribute it and/or modify it under
   the terms of the GNU Lesser General Public License as published by
   the Free Software Foundation, either version 3 of the License, or
   (at your option) any later version.
   
   xtb is distributed in the hope that it will be useful,
   but WITHOUT ANY WARRANTY; without even the implied warranty of
   MERCHANTABILITY or FITNESS FOR A PARTICULAR PURPOSE.  See the
   GNU Lesser General Public License for more details.
   
   Cite this work as:
   * C. Bannwarth, E. Caldeweyher, S. Ehlert, A. Hansen, P. Pracht,
     J. Seibert, S. Spicher, S. Grimme, WIREs Comput. Mol. Sci., 2020, 11,
     e01493. DOI: 10.1002/wcms.1493
   
   for GFN2-xTB:
   * C. Bannwarth, S. Ehlert and S. Grimme., J. Chem. Theory Comput., 2019,
     15, 1652-1671. DOI: 10.1021/acs.jctc.8b01176
   for GFN1-xTB:
   * S. Grimme, C. Bannwarth, P. Shushkov, J. Chem. Theory Comput., 2017,
     13, 1989-2009. DOI: 10.1021/acs.jctc.7b00118
   for GFN0-xTB:
   * P. Pracht, E. Caldeweyher, S. Ehlert, S. Grimme, ChemRxiv, 2019, preprint.
     DOI: 10.26434/chemrxiv.8326202.v1
   for GFN-FF:
   * S. Spicher and S. Grimme, Angew. Chem. Int. Ed., 2020, 59, 15665-15673.
     DOI: 10.1002/anie.202004239
   
   for ALPB and GBSA implicit solvation:
   * S. Ehlert, M. Stahn, S. Spicher, S. Grimme, J. Chem. Theory Comput.,
     2021, 17, 4250-4261. DOI: 10.1021/acs.jctc.1c00471
   
   for ddCOSMO and CPCM-X implicit solvation:
   * M. Stahn, S. Ehlert, S. Grimme, J. Phys. Chem. A,
     2023, XX, XXXX-XXXX. DOI: 10.1021/acs.jpca.3c04382
   
   for DFT-D4:
   * E. Caldeweyher, C. Bannwarth and S. Grimme, J. Chem. Phys., 2017,
     147, 034112. DOI: 10.1063/1.4993215
   * E. Caldeweyher, S. Ehlert, A. Hansen, H. Neugebauer, S. Spicher,
     C. Bannwarth and S. Grimme, J. Chem. Phys., 2019, 150, 154122.
     DOI: 10.1063/1.5090222
   * E. Caldeweyher, J.-M. Mewes, S. Ehlert and S. Grimme, Phys. Chem. Chem. Phys.
     2020, 22, 8499-8512. DOI: 10.1039/D0CP00502A
   
   for sTDA-xTB:
   * S. Grimme and C. Bannwarth, J. Chem. Phys., 2016, 145, 054103.
     DOI: 10.1063/1.4959605
   
   in the mass-spec context:
   * V. Asgeirsson, C. Bauer and S. Grimme, Chem. Sci., 2017, 8, 4879.
     DOI: 10.1039/c7sc00601b
   * J. Koopman and S. Grimme, ACS Omega 2019, 4, 12, 15120-15133.
     DOI: 10.1021/acsomega.9b02011
   
   for metadynamics refer to:
   * S. Grimme, J. Chem. Theory Comput., 2019, 155, 2847-2862
     DOI: 10.1021/acs.jctc.9b00143
   
   for SPH calculations refer to:
   * S. Spicher and S. Grimme, J. Chem. Theory Comput., 2021, 17, 1701-1714
     DOI: 10.1021/acs.jctc.0c01306
   
   for ONIOM refer to:
   * C. Plett, A. Katbashev, S. Ehlert, S. Grimme, M. Bursch,
     Phys. Chem. Chem. Phys., 2023, 25, 17860-17868. DOI: 10.1039/D3CP02178E
   
   for DIPRO refer to:
   * J. Kohn, N. Gildemeister, S. Grimme, D. Fazzi, A. Hansen,
     J. Chem. Phys., 2023, just accepted.
   
   for PTB refer to:
   * S. Grimme, M. Mueller, A. Hansen, J. Chem. Phys., 2023, 158, 124111.
     DOI: 10.1063/5.0137838
   
   with help from (in alphabetical order)
   P. Atkinson, C. Bannwarth, F. Bohle, G. Brandenburg, E. Caldeweyher
   M. Checinski, S. Dohm, S. Ehlert, S. Ehrlich, I. Gerasimov, C. Hölzer
   A. Katbashev, J. Kohn, J. Koopman, C. Lavigne, S. Lehtola, F. März, M. Müller,
   F. Musil, H. Neugebauer, J. Pisarek, C. Plett, P. Pracht, F. Pultar,
   J. Seibert, P. Shushkov, S. Spicher, M. Stahn, M. Steiner, T. Strunk,
   J. Stückrath, T. Rose, and J. Unsleber
   
 * started run on 2025/05/15 at 16:15:41.903     
   ID    Z sym.   atoms
    1    8 O      1, 13, 15-17
    2    6 C      2-6, 8, 10, 11
    3    7 N      7, 9, 12, 14
    4    1 H      18-29

           -------------------------------------------------
          |                Calculation Setup                |
           -------------------------------------------------

          program call               : xtb /rds/general/user/hgt20/home/callum/QDESCP/Ribavirin_rdkit_conf_15/Ribavirin_rdkit_conf_15.xyz --opt normal --acc 1 --gfn 2 --chrg 0 --uhf 0 -P 1
          hostname                   : login-c
          coordinate file            : /rds/general/user/hgt20/home/callum/QDESCP/Ribavirin_rdkit_conf_15/Ribavirin_rdkit_conf_15.xyz
          omp threads                :                     1


           -------------------------------------------------
          |                 G F N 2 - x T B                 |
           -------------------------------------------------

        Reference                      10.1021/acs.jctc.8b01176
      * Hamiltonian:
        H0-scaling (s, p, d)           1.850000    2.230000    2.230000
        zeta-weighting                 0.500000
      * Dispersion:
        s8                             2.700000
        a1                             0.520000
        a2                             5.000000
        s9                             5.000000
      * Repulsion:
        kExp                           1.500000    1.000000
        rExp                           1.000000
      * Coulomb:
        alpha                          2.000000
        third order                    shell-resolved
        anisotropic                    true
        a3                             3.000000
        a5                             4.000000
        cn-shift                       1.200000
        cn-exp                         4.000000
        max-rad                        5.000000


          ...................................................
          :                      SETUP                      :
          :.................................................:
          :  # basis functions                  80          :
          :  # atomic orbitals                  80          :
          :  # shells                           46          :
          :  # electrons                        94          :
          :  max. iterations                   250          :
          :  Hamiltonian                  GFN2-xTB          :
          :  restarted?                      false          :
          :  GBSA solvation                  false          :
          :  PC potential                    false          :
          :  electronic temp.          300.0000000     K    :
          :  accuracy                    1.0000000          :
          :  -> integral cutoff          0.2500000E+02      :
          :  -> integral neglect         0.1000000E-07      :
          :  -> SCF convergence          0.1000000E-05 Eh   :
          :  -> wf. convergence          0.1000000E-03 e    :
          :  Broyden damping             0.4000000          :
          :  net charge                          0          :
          :  unpaired electrons                  0          :
          ...................................................

 iter      E             dE          RMSdq      gap      omega  full diag
   1    -55.5651518 -0.555652E+02  0.471E+00    3.45       0.0  T
   2    -55.7075020 -0.142350E+00  0.282E+00    3.31       1.0  T
   3    -55.7301058 -0.226039E-01  0.151E+00    3.44       1.0  T
   4    -55.7365618 -0.645600E-02  0.534E-01    3.39       1.0  T
   5    -55.7413896 -0.482777E-02  0.113E-01    3.35       1.0  T
   6    -55.7414268 -0.371606E-04  0.466E-02    3.38       1.0  T
   7    -55.7414337 -0.691915E-05  0.213E-02    3.38       1.0  T
   8    -55.7414353 -0.164581E-05  0.637E-03    3.38       2.9  T
   9    -55.7414355 -0.185740E-06  0.254E-03    3.38       7.3  T
  10    -55.7414355 -0.222358E-07  0.112E-03    3.38      16.6  T
  11    -55.7414355 -0.105748E-07  0.370E-04    3.38      50.2  T
  12    -55.7414355 -0.121337E-08  0.153E-04    3.38     121.6  T

   *** convergence criteria satisfied after 12 iterations ***

         #    Occupation            Energy/Eh            Energy/eV
      -------------------------------------------------------------
         1        2.0000           -0.7346257             -19.9902
       ...           ...                  ...                  ...
        41        2.0000           -0.4376863             -11.9101
        42        2.0000           -0.4333712             -11.7926
        43        2.0000           -0.4257860             -11.5862
        44        2.0000           -0.4251300             -11.5684
        45        2.0000           -0.4150990             -11.2954
        46        2.0000           -0.4105594             -11.1719
        47        2.0000           -0.3972857             -10.8107 (HOMO)
        48                         -0.2729785              -7.4281 (LUMO)
        49                         -0.2385226              -6.4905
        50                         -0.1509738              -4.1082
        51                         -0.0660844              -1.7982
        52                         -0.0484850              -1.3193
       ...                                ...                  ...
        80                          0.6274078              17.0726
      -------------------------------------------------------------
                  HL-Gap            0.1243072 Eh            3.3826 eV
             Fermi-level           -0.3351321 Eh           -9.1194 eV

 SCC (total)                   0 d,  0 h,  0 min,  0.031 sec
 SCC setup                      ...        0 min,  0.000 sec (  0.781%)
 Dispersion                     ...        0 min,  0.000 sec (  0.738%)
 classical contributions        ...        0 min,  0.000 sec (  0.240%)
 integral evaluation            ...        0 min,  0.005 sec ( 14.465%)
 iterations                     ...        0 min,  0.014 sec ( 45.481%)
 molecular gradient             ...        0 min,  0.012 sec ( 37.921%)
 printout                       ...        0 min,  0.000 sec (  0.356%)

         :::::::::::::::::::::::::::::::::::::::::::::::::::::
         ::                     SUMMARY                     ::
         :::::::::::::::::::::::::::::::::::::::::::::::::::::
         :: total energy             -55.273986268992 Eh    ::
         :: gradient norm              0.096918903793 Eh/a0 ::
         :: HOMO-LUMO gap              3.382572388552 eV    ::
         ::.................................................::
         :: SCC energy               -55.741287158505 Eh    ::
         :: -> isotropic ES            0.147411932892 Eh    ::
         :: -> anisotropic ES          0.001967338133 Eh    ::
         :: -> anisotropic XC          0.011276577613 Eh    ::
         :: -> dispersion             -0.026700853249 Eh    ::
         :: repulsion energy           0.467300889513 Eh    ::
         :: add. restraining           0.000000000000 Eh    ::
         :: total charge              -0.000000000000 e     ::
         :::::::::::::::::::::::::::::::::::::::::::::::::::::

      ----------------------------------------------------------- 
     |                   =====================                   |
     |                        A N C O P T                        |
     |                   =====================                   |
     |               Approximate Normal Coordinate               |
     |                Rational Function Optimizer                |
      ----------------------------------------------------------- 
      ----------------------------------------------------------- 
     |                   =====================                   |
     |                        A N C O P T                        |
     |                   =====================                   |
     |               Approximate Normal Coordinate               |
     |                Rational Function Optimizer                |
      ----------------------------------------------------------- 

          ...................................................
          :                      SETUP                      :
          :.................................................:
          :   optimization level            normal          :
          :   max. optcycles                   200          :
          :   ANC micro-cycles                  20          :
          :   degrees of freedom                81          :
          :.................................................:
          :   RF solver                   davidson          :
          :   write xtbopt.log                true          :
          :   linear?                        false          :
          :   energy convergence         0.5000000E-05 Eh   :
          :   grad. convergence          0.1000000E-02 Eh/α :
          :   maxmium RF displ.          1.0000000          :
          :   Hlow (freq-cutoff)         0.1000000E-01      :
          :   Hmax (freq-cutoff)         5.0000000          :
          :   S6 in model hess.         20.0000000          :
          ...................................................

generating ANC from exact Hessian ...
Using Lindh-Hessian (1995)
 Shifting diagonal of input Hessian by    9.1667735502200080E-003
 Lowest  eigenvalues of input Hessian
    0.000000    0.000000    0.000000    0.000000    0.000000    0.000000
    0.010000    0.010268    0.011463    0.013395    0.014855    0.015265
    0.017423    0.018089    0.019399    0.021397    0.025267    0.030146
 Highest eigenvalues
    1.712990    1.762213    1.947027    2.045103    2.096754    2.324764


........................................................................
.............................. CYCLE    1 ..............................
........................................................................

 iter      E             dE          RMSdq      gap      omega  full diag
   1    -55.7414355 -0.557414E+02  0.642E-05    3.38       0.0  T
   2    -55.7414355 -0.205063E-10  0.359E-05    3.38     517.5  T
   3    -55.7414355 -0.300560E-11  0.221E-05    3.38     840.6  T
     SCC iter.                  ...        0 min,  0.004 sec
     gradient                   ...        0 min,  0.012 sec
 * total energy  :   -55.2739863 Eh     change       -0.1951648E-09 Eh
   gradient norm :     0.0969189 Eh/α   predicted     0.0000000E+00 (-100.00%)
   displ. norm   :     0.2312998 α      lambda       -0.1189614E-01
   maximum displ.:     0.0882346 α      in ANC's #11, #24, #55, ...

........................................................................
.............................. CYCLE    2 ..............................
........................................................................

 iter      E             dE          RMSdq      gap      omega  full diag
   1    -55.7740954 -0.557741E+02  0.212E-01    3.54       0.0  T
   2    -55.7741651 -0.697119E-04  0.122E-01    3.55       1.0  T
   3    -55.7741538  0.113311E-04  0.440E-02    3.57       1.0  T
   4    -55.7741758 -0.219533E-04  0.112E-02    3.56       1.7  T
   5    -55.7741779 -0.216795E-05  0.415E-03    3.56       4.5  T
   6    -55.7741780 -0.864453E-07  0.194E-03    3.56       9.6  T
   7    -55.7741780 -0.149209E-07  0.669E-04    3.56      27.8  T
   8    -55.7741780 -0.214133E-08  0.300E-04    3.56      61.8  T
     SCC iter.                  ...        0 min,  0.009 sec
     gradient                   ...        0 min,  0.012 sec
 * total energy  :   -55.2820997 Eh     change       -0.8113438E-02 Eh
   gradient norm :     0.0439133 Eh/α   predicted    -0.6267689E-02 ( -22.75%)
   displ. norm   :     0.2373284 α      lambda       -0.3800735E-02
   maximum displ.:     0.1192076 α      in ANC's #11, #10, #2, ...

........................................................................
.............................. CYCLE    3 ..............................
........................................................................

 iter      E             dE          RMSdq      gap      omega  full diag
   1    -55.7899050 -0.557899E+02  0.129E-01    3.65       0.0  T
   2    -55.7899325 -0.275755E-04  0.759E-02    3.66       1.0  T
   3    -55.7899289  0.363628E-05  0.251E-02    3.67       1.0  T
   4    -55.7899359 -0.697204E-05  0.688E-03    3.67       2.7  T
   5    -55.7899367 -0.832164E-06  0.229E-03    3.66       8.1  T
   6    -55.7899367 -0.498220E-07  0.105E-03    3.66      17.7  T
   7    -55.7899368 -0.277559E-08  0.431E-04    3.66      43.1  T
   8    -55.7899368 -0.112549E-08  0.155E-04    3.66     119.9  T
     SCC iter.                  ...        0 min,  0.050 sec
     gradient                   ...        0 min,  0.012 sec
 * total energy  :   -55.2843526 Eh     change       -0.2252935E-02 Eh
   gradient norm :     0.0133813 Eh/α   predicted    -0.2008975E-02 ( -10.83%)
   displ. norm   :     0.1857367 α      lambda       -0.6924510E-03
   maximum displ.:     0.1138340 α      in ANC's #2, #11, #10, ...

........................................................................
.............................. CYCLE    4 ..............................
........................................................................

 iter      E             dE          RMSdq      gap      omega  full diag
   1    -55.7896262 -0.557896E+02  0.620E-02    3.66       0.0  T
   2    -55.7896295 -0.323968E-05  0.370E-02    3.67       1.0  T
   3    -55.7896293  0.166055E-06  0.747E-03    3.67       2.5  T
   4    -55.7896299 -0.654335E-06  0.230E-03    3.67       8.1  T
   5    -55.7896300 -0.370439E-07  0.943E-04    3.67      19.7  T
   6    -55.7896300 -0.861028E-08  0.463E-04    3.67      40.1  T
     SCC iter.                  ...        0 min,  0.007 sec
     gradient                   ...        0 min,  0.012 sec
 * total energy  :   -55.2848621 Eh     change       -0.5094832E-03 Eh
   gradient norm :     0.0072117 Eh/α   predicted    -0.3581836E-03 ( -29.70%)
   displ. norm   :     0.2472295 α      lambda       -0.4887999E-03
   maximum displ.:     0.1789042 α      in ANC's #2, #11, #10, ...

........................................................................
.............................. CYCLE    5 ..............................
........................................................................

 iter      E             dE          RMSdq      gap      omega  full diag
   1    -55.7871233 -0.557871E+02  0.740E-02    3.65       0.0  T
   2    -55.7871268 -0.358173E-05  0.440E-02    3.66       1.0  T
   3    -55.7871264  0.401492E-06  0.803E-03    3.66       2.3  T
   4    -55.7871276 -0.111238E-05  0.257E-03    3.66       7.2  T
   5    -55.7871276 -0.337485E-07  0.123E-03    3.66      15.1  T
   6    -55.7871276 -0.149681E-07  0.475E-04    3.66      39.1  T
   7    -55.7871276 -0.706443E-09  0.116E-04    3.66     160.2  T
     SCC iter.                  ...        0 min,  0.008 sec
     gradient                   ...        0 min,  0.051 sec
 * total energy  :   -55.2852008 Eh     change       -0.3386541E-03 Eh
   gradient norm :     0.0065415 Eh/α   predicted    -0.2594141E-03 ( -23.40%)
   displ. norm   :     0.2062490 α      lambda       -0.2387706E-03
   maximum displ.:     0.1643749 α      in ANC's #2, #3, #1, ...

........................................................................
.............................. CYCLE    6 ..............................
........................................................................

 iter      E             dE          RMSdq      gap      omega  full diag
   1    -55.7862473 -0.557862E+02  0.562E-02    3.64       0.0  T
   2    -55.7862490 -0.167233E-05  0.331E-02    3.65       1.0  T
   3    -55.7862481  0.892831E-06  0.821E-03    3.65       2.3  T
   4    -55.7862495 -0.144392E-05  0.211E-03    3.65       8.8  T
   5    -55.7862495 -0.158567E-07  0.101E-03    3.65      18.3  T
   6    -55.7862495 -0.414900E-08  0.276E-04    3.65      67.3  T
   7    -55.7862495 -0.324555E-09  0.121E-04    3.65     153.9  T
     SCC iter.                  ...        0 min,  0.008 sec
     gradient                   ...        0 min,  0.012 sec
 * total energy  :   -55.2853985 Eh     change       -0.1977690E-03 Eh
   gradient norm :     0.0068069 Eh/α   predicted    -0.1245231E-03 ( -37.04%)
   displ. norm   :     0.2179288 α      lambda       -0.2488725E-03
   maximum displ.:     0.1736817 α      in ANC's #2, #3, #1, ...

........................................................................
.............................. CYCLE    7 ..............................
........................................................................

 iter      E             dE          RMSdq      gap      omega  full diag
   1    -55.7865978 -0.557866E+02  0.576E-02    3.64       0.0  T
   2    -55.7865996 -0.179167E-05  0.336E-02    3.64       1.0  T
   3    -55.7865982  0.140624E-05  0.103E-02    3.64       1.8  T
   4    -55.7866003 -0.216729E-05  0.217E-03    3.64       8.5  T
   5    -55.7866004 -0.876982E-08  0.972E-04    3.64      19.1  T
   6    -55.7866004 -0.445810E-08  0.262E-04    3.64      70.8  T
     SCC iter.                  ...        0 min,  0.007 sec
     gradient                   ...        0 min,  0.012 sec
 * total energy  :   -55.2856166 Eh     change       -0.2180604E-03 Eh
   gradient norm :     0.0055429 Eh/α   predicted    -0.1303464E-03 ( -40.22%)
   displ. norm   :     0.2837839 α      lambda       -0.3020723E-03
   maximum displ.:     0.2216984 α      in ANC's #2, #3, #1, ...

........................................................................
.............................. CYCLE    8 ..............................
........................................................................

 iter      E             dE          RMSdq      gap      omega  full diag
   1    -55.7874868 -0.557875E+02  0.746E-02    3.64       0.0  T
   2    -55.7874894 -0.264901E-05  0.434E-02    3.64       1.0  T
   3    -55.7874875  0.191982E-05  0.122E-02    3.64       1.5  T
   4    -55.7874906 -0.306371E-05  0.272E-03    3.64       6.8  T
   5    -55.7874906 -0.132953E-07  0.115E-03    3.64      16.2  T
   6    -55.7874906 -0.661732E-08  0.324E-04    3.64      57.3  T
   7    -55.7874906 -0.942045E-09  0.172E-04    3.64     108.3  T
     SCC iter.                  ...        0 min,  0.008 sec
     gradient                   ...        0 min,  0.041 sec
 * total energy  :   -55.2858811 Eh     change       -0.2645001E-03 Eh
   gradient norm :     0.0052285 Eh/α   predicted    -0.1632027E-03 ( -38.30%)
   displ. norm   :     0.3506790 α      lambda       -0.3294897E-03
   maximum displ.:     0.2691925 α      in ANC's #2, #3, #1, ...

........................................................................
.............................. CYCLE    9 ..............................
........................................................................

 iter      E             dE          RMSdq      gap      omega  full diag
   1    -55.7879670 -0.557880E+02  0.913E-02    3.64       0.0  T
   2    -55.7879703 -0.338020E-05  0.530E-02    3.64       1.0  T
   3    -55.7879690  0.134548E-05  0.115E-02    3.64       1.6  T
   4    -55.7879717 -0.272070E-05  0.323E-03    3.64       5.7  T
   5    -55.7879717 -0.213849E-07  0.136E-03    3.64      13.6  T
   6    -55.7879717 -0.951121E-08  0.360E-04    3.64      51.5  T
   7    -55.7879717 -0.778847E-09  0.200E-04    3.64      93.1  T
     SCC iter.                  ...        0 min,  0.008 sec
     gradient                   ...        0 min,  0.012 sec
 * total energy  :   -55.2861725 Eh     change       -0.2914366E-03 Eh
   gradient norm :     0.0063068 Eh/α   predicted    -0.1850097E-03 ( -36.52%)
   displ. norm   :     0.4000761 α      lambda       -0.3458155E-03
   maximum displ.:     0.3055713 α      in ANC's #2, #3, #1, ...

........................................................................
.............................. CYCLE   10 ..............................
........................................................................

 iter      E             dE          RMSdq      gap      omega  full diag
   1    -55.7879109 -0.557879E+02  0.103E-01    3.64       0.0  T
   2    -55.7879149 -0.401473E-05  0.599E-02    3.64       1.0  T
   3    -55.7879145  0.431697E-06  0.102E-02    3.64       1.8  T
   4    -55.7879165 -0.198672E-05  0.362E-03    3.64       5.1  T
   5    -55.7879165 -0.335022E-07  0.155E-03    3.64      12.0  T
   6    -55.7879165 -0.139013E-07  0.390E-04    3.64      47.6  T
   7    -55.7879165 -0.513928E-09  0.212E-04    3.64      87.6  T
     SCC iter.                  ...        0 min,  0.008 sec
     gradient                   ...        0 min,  0.012 sec
 * total energy  :   -55.2864765 Eh     change       -0.3039175E-03 Eh
   gradient norm :     0.0065681 Eh/α   predicted    -0.2005907E-03 ( -34.00%)
   displ. norm   :     0.4376278 α      lambda       -0.3462978E-03
   maximum displ.:     0.3390275 α      in ANC's #2, #3, #1, ...

........................................................................
.............................. CYCLE   11 ..............................
........................................................................

 iter      E             dE          RMSdq      gap      omega  full diag
   1    -55.7877055 -0.557877E+02  0.111E-01    3.64       0.0  T
   2    -55.7877098 -0.429487E-05  0.645E-02    3.64       1.0  T
   3    -55.7877103 -0.491885E-06  0.863E-03    3.64       2.2  T
   4    -55.7877115 -0.116020E-05  0.384E-03    3.64       4.8  T
   5    -55.7877115 -0.437443E-07  0.153E-03    3.64      12.1  T
   6    -55.7877115 -0.162651E-07  0.420E-04    3.64      44.3  T
   7    -55.7877115 -0.463785E-09  0.216E-04    3.64      86.1  T
     SCC iter.                  ...        0 min,  0.008 sec
     gradient                   ...        0 min,  0.012 sec
 * total energy  :   -55.2867661 Eh     change       -0.2895963E-03 Eh
   gradient norm :     0.0053797 Eh/α   predicted    -0.2063124E-03 ( -28.76%)
   displ. norm   :     0.4326319 α      lambda       -0.2786925E-03
   maximum displ.:     0.3447632 α      in ANC's #2, #3, #1, ...

........................................................................
.............................. CYCLE   12 ..............................
........................................................................

 iter      E             dE          RMSdq      gap      omega  full diag
   1    -55.7875129 -0.557875E+02  0.108E-01    3.64       0.0  T
   2    -55.7875173 -0.440910E-05  0.630E-02    3.64       1.0  T
   3    -55.7875175 -0.209415E-06  0.919E-03    3.64       2.0  T
   4    -55.7875189 -0.139698E-05  0.383E-03    3.64       4.9  T
   5    -55.7875190 -0.470829E-07  0.169E-03    3.64      11.0  T
   6    -55.7875190 -0.202012E-07  0.426E-04    3.64      43.6  T
   7    -55.7875190 -0.501345E-09  0.216E-04    3.64      85.9  T
     SCC iter.                  ...        0 min,  0.008 sec
     gradient                   ...        0 min,  0.012 sec
 * total energy  :   -55.2869805 Eh     change       -0.2144093E-03 Eh
   gradient norm :     0.0045037 Eh/α   predicted    -0.1654290E-03 ( -22.84%)
   displ. norm   :     0.3538659 α      lambda       -0.1634148E-03
   maximum displ.:     0.2917182 α      in ANC's #2, #3, #1, ...

........................................................................
.............................. CYCLE   13 ..............................
........................................................................

 iter      E             dE          RMSdq      gap      omega  full diag
   1    -55.7879897 -0.557880E+02  0.862E-02    3.65       0.0  T
   2    -55.7879922 -0.251111E-05  0.500E-02    3.65       1.0  T
   3    -55.7879926 -0.413812E-06  0.616E-03    3.65       3.0  T
   4    -55.7879931 -0.513169E-06  0.301E-03    3.65       6.2  T
   5    -55.7879931 -0.421045E-07  0.110E-03    3.65      16.9  T
   6    -55.7879931 -0.479526E-08  0.324E-04    3.65      57.3  T
   7    -55.7879931 -0.453788E-09  0.172E-04    3.65     108.1  T
     SCC iter.                  ...        0 min,  0.008 sec
     gradient                   ...        0 min,  0.012 sec
 * total energy  :   -55.2870987 Eh     change       -0.1181929E-03 Eh
   gradient norm :     0.0043548 Eh/α   predicted    -0.9195571E-04 ( -22.20%)
   displ. norm   :     0.2760195 α      lambda       -0.9479556E-04
   maximum displ.:     0.2325103 α      in ANC's #2, #3, #1, ...

........................................................................
.............................. CYCLE   14 ..............................
........................................................................

 iter      E             dE          RMSdq      gap      omega  full diag
   1    -55.7879573 -0.557880E+02  0.704E-02    3.65       0.0  T
   2    -55.7879601 -0.276128E-05  0.410E-02    3.65       1.0  T
   3    -55.7879595  0.575199E-06  0.858E-03    3.65       2.2  T
   4    -55.7879608 -0.135300E-05  0.260E-03    3.65       7.1  T
   5    -55.7879609 -0.403265E-07  0.133E-03    3.65      13.9  T
   6    -55.7879609 -0.769587E-08  0.275E-04    3.65      67.5  T
   7    -55.7879609 -0.268464E-09  0.146E-04    3.65     127.1  T
     SCC iter.                  ...        0 min,  0.008 sec
     gradient                   ...        0 min,  0.012 sec
 * total energy  :   -55.2871663 Eh     change       -0.6762314E-04 Eh
   gradient norm :     0.0045051 Eh/α   predicted    -0.5101140E-04 ( -24.57%)
   displ. norm   :     0.2743563 α      lambda       -0.9662631E-04
   maximum displ.:     0.2400250 α      in ANC's #2, #3, #1, ...

........................................................................
.............................. CYCLE   15 ..............................
........................................................................

 iter      E             dE          RMSdq      gap      omega  full diag
   1    -55.7901598 -0.557902E+02  0.666E-02    3.66       0.0  T
   2    -55.7901620 -0.220878E-05  0.386E-02    3.66       1.0  T
   3    -55.7901620 -0.746234E-07  0.620E-03    3.66       3.0  T
   4    -55.7901625 -0.447987E-06  0.246E-03    3.66       7.6  T
   5    -55.7901625 -0.380830E-07  0.116E-03    3.66      16.0  T
   6    -55.7901625 -0.546761E-08  0.310E-04    3.66      59.8  T
   7    -55.7901625 -0.614108E-09  0.138E-04    3.66     134.2  T
     SCC iter.                  ...        0 min,  0.008 sec
     gradient                   ...        0 min,  0.012 sec
 * total energy  :   -55.2872216 Eh     change       -0.5526654E-04 Eh
   gradient norm :     0.0043219 Eh/α   predicted    -0.5195142E-04 (  -6.00%)
   displ. norm   :     0.2787607 α      lambda       -0.7007994E-04
   maximum displ.:     0.2338085 α      in ANC's #2, #3, #6, ...

........................................................................
.............................. CYCLE   16 ..............................
........................................................................

 iter      E             dE          RMSdq      gap      omega  full diag
   1    -55.7877437 -0.557877E+02  0.778E-02    3.65       0.0  T
   2    -55.7877471 -0.331814E-05  0.452E-02    3.65       1.0  T
   3    -55.7877466  0.418692E-06  0.822E-03    3.65       2.3  T
   4    -55.7877480 -0.131954E-05  0.262E-03    3.65       7.1  T
   5    -55.7877480 -0.322625E-07  0.136E-03    3.65      13.7  T
   6    -55.7877480 -0.998964E-08  0.317E-04    3.65      58.5  T
   7    -55.7877480 -0.467388E-09  0.150E-04    3.65     123.4  T
     SCC iter.                  ...        0 min,  0.008 sec
     gradient                   ...        0 min,  0.012 sec
 * total energy  :   -55.2872504 Eh     change       -0.2884839E-04 Eh
   gradient norm :     0.0048592 Eh/α   predicted    -0.3776367E-04 (  30.90%)
   displ. norm   :     0.0619703 α      lambda       -0.5656360E-04
   maximum displ.:     0.0354665 α      in ANC's #1, #4, #2, ...

........................................................................
.............................. CYCLE   17 ..............................
........................................................................

 iter      E             dE          RMSdq      gap      omega  full diag
   1    -55.7896304 -0.557896E+02  0.213E-02    3.65       0.0  T
   2    -55.7896316 -0.118760E-05  0.125E-02    3.65       1.5  T
   3    -55.7896315  0.291336E-07  0.539E-03    3.65       3.4  T
   4    -55.7896317 -0.154862E-06  0.140E-03    3.65      13.3  T
   5    -55.7896317 -0.367200E-07  0.413E-04    3.65      45.0  T
   6    -55.7896317 -0.214271E-09  0.174E-04    3.65     106.8  T
     SCC iter.                  ...        0 min,  0.007 sec
     gradient                   ...        0 min,  0.045 sec
 * total energy  :   -55.2872858 Eh     change       -0.3542760E-04 Eh
   gradient norm :     0.0035858 Eh/α   predicted    -0.2839250E-04 ( -19.86%)
   displ. norm   :     0.1018157 α      lambda       -0.4386643E-04
   maximum displ.:     0.0593704 α      in ANC's #2, #4, #1, ...

........................................................................
.............................. CYCLE   18 ..............................
........................................................................

 iter      E             dE          RMSdq      gap      omega  full diag
   1    -55.7902403 -0.557902E+02  0.310E-02    3.65       0.0  T
   2    -55.7902413 -0.994636E-06  0.182E-02    3.65       1.0  T
   3    -55.7902413  0.125453E-07  0.418E-03    3.65       4.4  T
   4    -55.7902415 -0.135322E-06  0.918E-04    3.65      20.2  T
   5    -55.7902415 -0.326592E-08  0.513E-04    3.65      36.2  T
     SCC iter.                  ...        0 min,  0.005 sec
     gradient                   ...        0 min,  0.012 sec
 * total energy  :   -55.2873148 Eh     change       -0.2901436E-04 Eh
   gradient norm :     0.0021603 Eh/α   predicted    -0.2216134E-04 ( -23.62%)
   displ. norm   :     0.1365952 α      lambda       -0.3585986E-04
   maximum displ.:     0.0819161 α      in ANC's #2, #3, #4, ...

........................................................................
.............................. CYCLE   19 ..............................
........................................................................

 iter      E             dE          RMSdq      gap      omega  full diag
   1    -55.7900358 -0.557900E+02  0.414E-02    3.66       0.0  T
   2    -55.7900362 -0.448477E-06  0.245E-02    3.66       1.0  T
   3    -55.7900360  0.238634E-06  0.397E-03    3.66       4.7  T
   4    -55.7900364 -0.423186E-06  0.120E-03    3.66      15.5  T
   5    -55.7900364 -0.356559E-08  0.571E-04    3.66      32.5  T
   6    -55.7900364 -0.177028E-08  0.144E-04    3.66     129.3  T
     SCC iter.                  ...        0 min,  0.007 sec
     gradient                   ...        0 min,  0.012 sec
 * total energy  :   -55.2873381 Eh     change       -0.2326892E-04 Eh
   gradient norm :     0.0025167 Eh/α   predicted    -0.1826686E-04 ( -21.50%)
   displ. norm   :     0.1211628 α      lambda       -0.2887641E-04
   maximum displ.:     0.0577910 α      in ANC's #3, #2, #1, ...

........................................................................
.............................. CYCLE   20 ..............................
........................................................................

 iter      E             dE          RMSdq      gap      omega  full diag
   1    -55.7894904 -0.557895E+02  0.382E-02    3.65       0.0  T
   2    -55.7894908 -0.423759E-06  0.223E-02    3.66       1.0  T
   3    -55.7894908  0.185766E-08  0.272E-03    3.65       6.8  T
   4    -55.7894909 -0.133199E-06  0.110E-03    3.65      16.8  T
   5    -55.7894909 -0.718286E-08  0.519E-04    3.65      35.8  T
   6    -55.7894909 -0.175439E-08  0.125E-04    3.65     149.1  T
     SCC iter.                  ...        0 min,  0.007 sec
     gradient                   ...        0 min,  0.039 sec
 * total energy  :   -55.2873585 Eh     change       -0.2038886E-04 Eh
   gradient norm :     0.0025392 Eh/α   predicted    -0.1465090E-04 ( -28.14%)
   displ. norm   :     0.1184187 α      lambda       -0.3419403E-04
   maximum displ.:     0.0727216 α      in ANC's #1, #4, #3, ...
 * RMSD in coord.:     0.7825841 α      energy gain  -0.1337223E-01 Eh

generating ANC from exact Hessian ...
Using Lindh-Hessian (1995)
 Shifting diagonal of input Hessian by    9.4064513863740731E-003
 Lowest  eigenvalues of input Hessian
    0.000000    0.000000    0.000000    0.000000    0.000000    0.000000
    0.010000    0.010524    0.012044    0.013228    0.014939    0.015735
    0.017285    0.019234    0.020625    0.021536    0.027111    0.030953
 Highest eigenvalues
    1.806266    1.879156    2.019273    2.161854    2.201149    2.458362


........................................................................
.............................. CYCLE   21 ..............................
........................................................................

 iter      E             dE          RMSdq      gap      omega  full diag
   1    -55.7892143 -0.557892E+02  0.346E-02    3.66       0.0  T
   2    -55.7892146 -0.292502E-06  0.205E-02    3.66       1.0  T
   3    -55.7892146 -0.209215E-07  0.200E-03    3.66       9.3  T
   4    -55.7892147 -0.549069E-07  0.846E-04    3.66      22.0  T
   5    -55.7892147 -0.391327E-08  0.454E-04    3.66      40.9  T
     SCC iter.                  ...        0 min,  0.006 sec
     gradient                   ...        0 min,  0.012 sec
 * total energy  :   -55.2873827 Eh     change       -0.2423225E-04 Eh
   gradient norm :     0.0022531 Eh/α   predicted     0.0000000E+00 (-100.00%)
   displ. norm   :     0.0196686 α      lambda       -0.1306218E-04
   maximum displ.:     0.0086601 α      in ANC's #1, #5, #3, ...

........................................................................
.............................. CYCLE   22 ..............................
........................................................................

 iter      E             dE          RMSdq      gap      omega  full diag
   1    -55.7896271 -0.557896E+02  0.605E-03    3.66       0.0  T
   2    -55.7896271 -0.405584E-07  0.363E-03    3.66       5.1  T
   3    -55.7896271  0.135263E-07  0.116E-03    3.66      16.1  T
   4    -55.7896271 -0.222116E-07  0.304E-04    3.66      61.1  T
   5    -55.7896271 -0.116943E-08  0.128E-04    3.66     144.9  T
     SCC iter.                  ...        0 min,  0.006 sec
     gradient                   ...        0 min,  0.012 sec
 * total energy  :   -55.2873934 Eh     change       -0.1065854E-04 Eh
   gradient norm :     0.0010095 Eh/α   predicted    -0.6661930E-05 ( -37.50%)
   displ. norm   :     0.0758683 α      lambda       -0.1791321E-04
   maximum displ.:     0.0346354 α      in ANC's #1, #5, #3, ...

........................................................................
.............................. CYCLE   23 ..............................
........................................................................

 iter      E             dE          RMSdq      gap      omega  full diag
   1    -55.7901619 -0.557902E+02  0.206E-02    3.65       0.0  T
   2    -55.7901622 -0.319672E-06  0.123E-02    3.65       1.5  T
   3    -55.7901620  0.148746E-06  0.335E-03    3.65       5.5  T
   4    -55.7901623 -0.233045E-06  0.879E-04    3.65      21.1  T
   5    -55.7901623 -0.669890E-08  0.413E-04    3.65      45.0  T
     SCC iter.                  ...        0 min,  0.039 sec
     gradient                   ...        0 min,  0.012 sec
 * total energy  :   -55.2874065 Eh     change       -0.1306561E-04 Eh
   gradient norm :     0.0021146 Eh/α   predicted    -0.9580112E-05 ( -26.68%)
   displ. norm   :     0.0158169 α      lambda       -0.4580605E-05
   maximum displ.:     0.0091740 α      in ANC's #3, #1, #5, ...

........................................................................
.............................. CYCLE   24 ..............................
........................................................................

 iter      E             dE          RMSdq      gap      omega  full diag
   1    -55.7899345 -0.557899E+02  0.523E-03    3.65       0.0  T
   2    -55.7899345 -0.155977E-07  0.304E-03    3.65       6.1  T
   3    -55.7899345 -0.192408E-09  0.490E-04    3.65      37.9  T
   4    -55.7899345 -0.310399E-08  0.193E-04    3.65      96.1  T
     SCC iter.                  ...        0 min,  0.005 sec
     gradient                   ...        0 min,  0.012 sec
 * total energy  :   -55.2874108 Eh     change       -0.4393813E-05 Eh
   gradient norm :     0.0014388 Eh/α   predicted    -0.2512203E-05 ( -42.82%)
   displ. norm   :     0.0919227 α      lambda       -0.1277468E-04
   maximum displ.:     0.0545596 α      in ANC's #3, #1, #5, ...

........................................................................
.............................. CYCLE   25 ..............................
........................................................................

 iter      E             dE          RMSdq      gap      omega  full diag
   1    -55.7890701 -0.557891E+02  0.296E-02    3.65       0.0  T
   2    -55.7890705 -0.406972E-06  0.172E-02    3.65       1.1  T
   3    -55.7890705 -0.833446E-08  0.252E-03    3.65       7.4  T
   4    -55.7890706 -0.862831E-07  0.984E-04    3.65      18.9  T
   5    -55.7890706 -0.678263E-08  0.476E-04    3.65      39.0  T
     SCC iter.                  ...        0 min,  0.006 sec
     gradient                   ...        0 min,  0.012 sec
 * total energy  :   -55.2874186 Eh     change       -0.7753929E-05 Eh
   gradient norm :     0.0015432 Eh/α   predicted    -0.6412085E-05 ( -17.31%)
   displ. norm   :     0.0120572 α      lambda       -0.2537046E-05
   maximum displ.:     0.0063753 α      in ANC's #1, #3, #2, ...

........................................................................
.............................. CYCLE   26 ..............................
........................................................................

 iter      E             dE          RMSdq      gap      omega  full diag
   1    -55.7894139 -0.557894E+02  0.473E-03    3.65       0.0  T
   2    -55.7894139 -0.129769E-07  0.276E-03    3.65       6.7  T
   3    -55.7894139 -0.393214E-10  0.419E-04    3.65      44.3  T
   4    -55.7894139 -0.245002E-08  0.175E-04    3.65     105.9  T
     SCC iter.                  ...        0 min,  0.005 sec
     gradient                   ...        0 min,  0.012 sec
 * total energy  :   -55.2874216 Eh     change       -0.3044063E-05 Eh
   gradient norm :     0.0007512 Eh/α   predicted    -0.1273794E-05 ( -58.15%)
   displ. norm   :     0.0459273 α      lambda       -0.3868028E-05
   maximum displ.:     0.0266328 α      in ANC's #3, #1, #2, ...

   *** GEOMETRY OPTIMIZATION CONVERGED AFTER 26 ITERATIONS ***

------------------------------------------------------------------------
 total energy gain   :        -0.0134354 Eh       -8.4308 kcal/mol
 total RMSD          :         0.7872747 a0        0.4166 Å
 total power (kW/mol):        -1.3567147 (step)  -36.8913 (real)
------------------------------------------------------------------------

 ANCopt (total)                0 d,  0 h,  0 min,  0.956 sec
 optimizer setup                ...        0 min,  0.000 sec (  0.008%)
 model hessian                  ...        0 min,  0.053 sec (  5.581%)
 ANC generation                 ...        0 min,  0.002 sec (  0.160%)
 coordinate transformation      ...        0 min,  0.000 sec (  0.012%)
 single point calculation       ...        0 min,  0.895 sec ( 93.569%)
 optimization log               ...        0 min,  0.003 sec (  0.356%)
 hessian update                 ...        0 min,  0.000 sec (  0.021%)
 rational function              ...        0 min,  0.001 sec (  0.156%)

================
 final structure:
================
29
 xtb: 6.7.1 (edcfbbe)
O           -3.01848089866059       -1.43861381320221        0.63269114169656
C           -1.92923626057645       -0.55777029819154        0.81189594333989
C           -2.13226077793333        0.62290957276353       -0.14573948563034
C           -2.09516348681608        0.17714094377913       -1.61446751310726
C           -0.60510285665515        0.33634958568814       -1.98914616897582
C           -0.08117315855023        1.34990183322092       -0.92795508510226
N            1.08461565185304        0.82950304091732       -0.25107098500245
C            2.22373777573520        1.46062988386491        0.09891976220581
N            3.01219169787733        0.64508512962318        0.74747319416311
C            2.30504459702887       -0.51594989006640        0.79070130142899
C            2.80489471782670       -1.73741720881496        1.46762316201769
N            4.06434572478085       -1.57414148940971        1.92503113109311
O            2.15745122256206       -2.75235086003881        1.59786642877754
N            1.13855748317684       -0.42780093326530        0.19027983235301
O           -1.11255763749922        1.60272427523053       -0.01771184238877
O           -0.39989946026764        0.76586800811987       -3.29215639870508
O           -2.83308117573091        1.03087261304822       -2.46037037111762
H           -2.86327694678985       -2.22333160834526        1.16885912562002
H           -1.90048319550763       -0.17058864573579        1.83893525444231
H           -0.97424060723756       -1.05095295668312        0.59461685048383
H           -3.07749425932648        1.12026917318401        0.09573331117342
H           -2.43605765812324       -0.85797204272895       -1.71657902397294
H           -0.07266274411887       -0.61088405249663       -1.85885421340092
H            0.21618343462040        2.29724097904753       -1.39581163949325
H            2.43513099645185        2.48305316648982       -0.13615866922952
H            4.51481732592311       -2.32305378033293        2.42290814070449
H            4.52589039959517       -0.68897458983865        1.80065898558590
H           -1.18303652296916        1.27447646772987       -3.55477906952598
H           -3.76875338066759        0.93397749643820       -2.25899309943375

 Bond Distances (Angstroems)
 ---------------------------
O1-C2=1.4123         O1-H18=0.9630        C2-O1=1.4123         C2-C3=1.5337         C2-H19=1.0980        C2-H20=1.0966        
C3-C2=1.5337         C3-C4=1.5353         C3-O15=1.4199        C3-H21=1.0951        C4-C3=1.5353         C4-C5=1.5447         
C4-O17=1.4103        C4-H22=1.0946        C5-C4=1.5447         C5-C6=1.5582         C5-O16=1.3872        C5-H23=1.0944        
C6-C5=1.5582         C6-N7=1.4450         C6-O15=1.3986        C6-H24=1.0976        N7-C6=1.4450         N7-C8=1.3485         
N7-N14=1.3336        C8-N7=1.3485         C8-N9=1.3067         C8-H25=1.0702        N9-C8=1.3067         N9-C10=1.3601        
C10-N9=1.3601        C10-C11=1.4833       C10-N14=1.3149       C11-C10=1.4833       C11-N12=1.3499       C11-O13=1.2109       
N12-C11=1.3499       N12-H26=1.0058       N12-H27=1.0060       O13-C11=1.2109       N14-N7=1.3336        N14-C10=1.3149       
O15-C3=1.4199        O15-C6=1.3986        O16-C5=1.3872        O16-H28=0.9700       O17-C4=1.4103        O17-H29=0.9620       
H18-O1=0.9630        H19-C2=1.0980        H20-C2=1.0966        H21-C3=1.0951        H22-C4=1.0946        H23-C5=1.0944        
H24-C6=1.0976        H25-C8=1.0702        H26-N12=1.0058       H27-N12=1.0060       H28-O16=0.9700       H29-O17=0.9620       
 C  H  Rav=1.0923 sigma=0.0091  Rmin=1.0702  Rmax=1.0980     7
 C  C  Rav=1.5310 sigma=0.0254  Rmin=1.4833  Rmax=1.5582     5
 N  H  Rav=1.0059 sigma=0.0001  Rmin=1.0058  Rmax=1.0060     2
 N  C  Rav=1.3542 sigma=0.0450  Rmin=1.3067  Rmax=1.4450     6
 N  N  Rav=1.3336 sigma=0.0000  Rmin=1.3336  Rmax=1.3336     1
 O  H  Rav=0.9650 sigma=0.0036  Rmin=0.9620  Rmax=0.9700     3
 O  C  Rav=1.3732 sigma=0.0733  Rmin=1.2109  Rmax=1.4199     6

 selected bond angles (degree)
 --------------------
H18-O1-C2=108.26               C3-C2-O1=107.39                H19-C2-O1=111.03               H19-C2-C3=108.42               
H20-C2-O1=111.47               H20-C2-C3=109.74               H20-C2-H19=108.73              C4-C3-C2=111.75                
O15-C3-C2=112.32               O15-C3-C4=105.62               H21-C3-C2=109.04               H21-C3-C4=111.33               
H21-C3-O15=106.65              C5-C4-C3=103.03                O17-C4-C3=112.67               O17-C4-C5=107.27               
H22-C4-C3=110.87               H22-C4-C5=112.04               H22-C4-O17=110.71              C6-C5-C4=103.07                
O16-C5-C4=113.73               O16-C5-C6=112.86               H23-C5-C4=110.56               H23-C5-C6=108.56               
H23-C5-O16=107.93              N7-C6-C5=110.86                O15-C6-C5=108.23               O15-C6-N7=110.80               
H24-C6-C5=111.24               H24-C6-N7=106.97               H24-C6-O15=108.73              C8-N7-C6=129.39                
N14-N7-C6=121.82               N14-N7-C8=108.73               N9-C8-N7=110.27                H25-C8-N7=123.85               
H25-C8-N9=125.88               C10-N9-C8=103.58               C11-C10-N9=122.84              N14-C10-N9=112.92              
N14-C10-C11=124.23             

 selected dihedral angles (degree)
 ---------------------------------
C3-C2-O1-H18=174.89           H19-C2-O1-H18=293.26          H20-C2-O1-H18= 54.66          C4-C3-C2-O1=296.43            
C4-C3-C2-H19=176.39           C4-C3-C2-H20= 57.76           O15-C3-C2-O1=177.93           O15-C3-C2-H19= 57.89          
O15-C3-C2-H20=299.26          H21-C3-C2-O1= 59.93           H21-C3-C2-H19=299.89          H21-C3-C2-H20=181.26          
C5-C4-C3-C2=268.76            C5-C4-C3-O15= 31.19           C5-C4-C3-H21=146.57           O17-C4-C3-C2=153.49           
O17-C4-C3-O15=275.92          O17-C4-C3-H21= 31.30          H22-C4-C3-C2= 28.79           H22-C4-C3-O15=151.22          
H22-C4-C3-H21=266.60          C6-C5-C4-C3=338.54            C6-C5-C4-O17= 97.63           C6-C5-C4-H22=219.32           
O16-C5-C4-C3=216.01           O16-C5-C4-O17=335.09          O16-C5-C4-H22= 96.78          H23-C5-C4-C3= 94.40           
H23-C5-C4-O17=213.49          H23-C5-C4-H22=335.18          N7-C6-C5-C4=126.93            N7-C6-C5-O16=250.05           
N7-C6-C5-H23=  9.65           O15-C6-C5-C4=  5.22           O15-C6-C5-O16=128.34          O15-C6-C5-H23=247.94          
H24-C6-C5-C4=245.83           H24-C6-C5-O16=  8.94          H24-C6-C5-H23=128.55          C8-N7-C6-C5=138.31            
C8-N7-C6-O15=258.50           C8-N7-C6-H24= 16.87           N14-N7-C6-C5=315.05           N14-N7-C6-O15= 75.24          
N14-N7-C6-H24=193.61          N9-C8-N7-C6=177.36            N9-C8-N7-N14=  0.28           H25-C8-N7-C6=357.00           
H25-C8-N7-N14=179.93          C10-N9-C8-N7=359.59           C10-N9-C8-H25=179.95          C11-C10-N9-C8=181.32          
N14-C10-N9-C8=  0.42          
           -------------------------------------------------
          |                Final Singlepoint                |
           -------------------------------------------------

          ...................................................
          :                      SETUP                      :
          :.................................................:
          :  # basis functions                  80          :
          :  # atomic orbitals                  80          :
          :  # shells                           46          :
          :  # electrons                        94          :
          :  max. iterations                   250          :
          :  Hamiltonian                  GFN2-xTB          :
          :  restarted?                      false          :
          :  GBSA solvation                  false          :
          :  PC potential                    false          :
          :  electronic temp.          300.0000000     K    :
          :  accuracy                    1.0000000          :
          :  -> integral cutoff          0.2500000E+02      :
          :  -> integral neglect         0.1000000E-07      :
          :  -> SCF convergence          0.1000000E-05 Eh   :
          :  -> wf. convergence          0.1000000E-03 e    :
          :  Broyden damping             0.4000000          :
          :  net charge                          0          :
          :  unpaired electrons                  0          :
          ...................................................

 iter      E             dE          RMSdq      gap      omega  full diag
   1    -55.7894139 -0.557894E+02  0.780E-05    3.65       0.0  T
   2    -55.7894139 -0.101110E-10  0.478E-05    3.65     388.4  T
   3    -55.7894139  0.222400E-11  0.219E-05    3.65     848.0  T

   *** convergence criteria satisfied after 3 iterations ***

         #    Occupation            Energy/Eh            Energy/eV
      -------------------------------------------------------------
         1        2.0000           -0.7388812             -20.1060
       ...           ...                  ...                  ...
        41        2.0000           -0.4368270             -11.8867
        42        2.0000           -0.4302546             -11.7078
        43        2.0000           -0.4236408             -11.5279
        44        2.0000           -0.4214354             -11.4678
        45        2.0000           -0.4198418             -11.4245
        46        2.0000           -0.4067663             -11.0687
        47        2.0000           -0.3993189             -10.8660 (HOMO)
        48                         -0.2650915              -7.2135 (LUMO)
        49                         -0.2346493              -6.3851
        50                         -0.1435034              -3.9049
        51                         -0.0410526              -1.1171
        52                         -0.0218057              -0.5934
       ...                                ...                  ...
        80                          0.6897607              18.7693
      -------------------------------------------------------------
                  HL-Gap            0.1342275 Eh            3.6525 eV
             Fermi-level           -0.3322052 Eh           -9.0398 eV

 SCC (total)                   0 d,  0 h,  0 min,  0.021 sec
 SCC setup                      ...        0 min,  0.000 sec (  0.816%)
 Dispersion                     ...        0 min,  0.000 sec (  0.706%)
 classical contributions        ...        0 min,  0.000 sec (  0.332%)
 integral evaluation            ...        0 min,  0.004 sec ( 21.451%)
 iterations                     ...        0 min,  0.004 sec ( 17.863%)
 molecular gradient             ...        0 min,  0.012 sec ( 58.339%)
 printout                       ...        0 min,  0.000 sec (  0.464%)

         :::::::::::::::::::::::::::::::::::::::::::::::::::::
         ::                     SUMMARY                     ::
         :::::::::::::::::::::::::::::::::::::::::::::::::::::
         :: total energy             -55.287421648111 Eh    ::
         :: gradient norm              0.000752508875 Eh/a0 ::
         :: HOMO-LUMO gap              3.652515014804 eV    ::
         ::.................................................::
         :: SCC energy               -55.789198431867 Eh    ::
         :: -> isotropic ES            0.142672557238 Eh    ::
         :: -> anisotropic ES         -0.000277945966 Eh    ::
         :: -> anisotropic XC          0.009474847113 Eh    ::
         :: -> dispersion             -0.027415808848 Eh    ::
         :: repulsion energy           0.501776783756 Eh    ::
         :: add. restraining           0.000000000000 Eh    ::
         :: total charge              -0.000000000000 e     ::
         :::::::::::::::::::::::::::::::::::::::::::::::::::::

           -------------------------------------------------
          |                Property Printout                |
           -------------------------------------------------

    * Orbital Energies and Occupations

         #    Occupation            Energy/Eh            Energy/eV
      -------------------------------------------------------------
         1        2.0000           -0.7388812             -20.1060
       ...           ...                  ...                  ...
        35        2.0000           -0.4915401             -13.3755
        36        2.0000           -0.4827398             -13.1360
        37        2.0000           -0.4697617             -12.7829
        38        2.0000           -0.4625434             -12.5864
        39        2.0000           -0.4507402             -12.2653
        40        2.0000           -0.4451500             -12.1131
        41        2.0000           -0.4368270             -11.8867
        42        2.0000           -0.4302546             -11.7078
        43        2.0000           -0.4236408             -11.5279
        44        2.0000           -0.4214354             -11.4678
        45        2.0000           -0.4198418             -11.4245
        46        2.0000           -0.4067663             -11.0687
        47        2.0000           -0.3993189             -10.8660 (HOMO)
        48                         -0.2650915              -7.2135 (LUMO)
        49                         -0.2346493              -6.3851
        50                         -0.1435034              -3.9049
        51                         -0.0410526              -1.1171
        52                         -0.0218057              -0.5934
        53                         -0.0099778              -0.2715
        54                          0.0168196               0.4577
        55                          0.0207867               0.5656
        56                          0.0393187               1.0699
        57                          0.0543622               1.4793
        58                          0.0740575               2.0152
       ...                                ...                  ...
        80                          0.6897607              18.7693
      -------------------------------------------------------------
                  HL-Gap            0.1342275 Eh            3.6525 eV
             Fermi-level           -0.3322052 Eh           -9.0398 eV

     #   Z          covCN         q      C6AA      α(0)
     1   8 O        1.656    -0.447    21.784     6.301
     2   6 C        3.674     0.059    19.817     6.379
     3   6 C        3.785     0.093    19.062     6.219
     4   6 C        3.736     0.094    19.114     6.239
     5   6 C        3.738     0.100    19.005     6.221
     6   6 C        3.719     0.151    18.260     6.104
     7   7 N        3.046     0.054    20.292     6.691
     8   6 C        3.142     0.098    25.595     8.278
     9   7 N        1.904    -0.283    28.181     7.870
    10   6 C        3.304     0.125    23.580     7.766
    11   6 C        2.746     0.280    22.266     7.726
    12   7 N        2.646    -0.262    26.797     7.688
    13   8 O        0.858    -0.415    21.982     6.286
    14   7 N        2.018    -0.217    26.500     7.635
    15   8 O        1.702    -0.311    19.187     5.914
    16   8 O        1.656    -0.428    21.397     6.244
    17   8 O        1.656    -0.441    21.652     6.281
    18   1 H        0.805     0.305     0.706     1.320
    19   1 H        0.923     0.041     2.436     2.441
    20   1 H        0.924     0.057     2.233     2.337
    21   1 H        0.924     0.067     2.117     2.276
    22   1 H        0.924     0.051     2.303     2.373
    23   1 H        0.924     0.068     2.103     2.268
    24   1 H        0.924     0.066     2.126     2.280
    25   1 H        0.927     0.055     2.260     2.351
    26   1 H        0.860     0.198     1.118     1.656
    27   1 H        0.860     0.206     1.077     1.626
    28   1 H        0.804     0.329     0.640     1.256
    29   1 H        0.805     0.306     0.703     1.317

 Mol. C6AA /au·bohr⁶  :       8911.307935
 Mol. C8AA /au·bohr⁸  :     198263.681960
 Mol. α(0) /au        :        139.343429


Wiberg/Mayer (AO) data.
largest (>0.10) Wiberg bond orders for each atom

 ---------------------------------------------------------------------------
     #   Z sym  total        # sym  WBO       # sym  WBO       # sym  WBO
 ---------------------------------------------------------------------------
     1   8 O    1.946 --     2 C    0.999    18 H    0.894
     2   6 C    3.954 --     1 O    0.999     3 C    0.981    19 H    0.969
                            20 H    0.961
     3   6 C    3.943 --     2 C    0.981     4 C    0.970    15 O    0.961
                            21 H    0.957
     4   6 C    3.956 --    17 O    0.995     3 C    0.970     5 C    0.963
                            22 H    0.960
     5   6 C    3.965 --    16 O    1.033     4 C    0.963    23 H    0.957
                             6 C    0.936
     6   6 C    3.937 --    15 O    0.995     7 N    0.957    24 H    0.952
                             5 C    0.936
     7   7 N    3.676 --     8 C    1.285    14 N    1.199     6 C    0.957
     8   6 C    3.962 --     9 N    1.528     7 N    1.285    25 H    0.962
                            14 N    0.122
     9   7 N    3.030 --     8 C    1.528    10 C    1.284
    10   6 C    3.965 --    14 N    1.505     9 N    1.284    11 C    0.980
    11   6 C    3.959 --    13 O    1.685    12 N    1.257    10 C    0.980
    12   7 N    3.393 --    11 C    1.257    26 H    0.941    27 H    0.935
                            13 O    0.214
    13   8 O    2.017 --    11 C    1.685    12 N    0.214
    14   7 N    2.997 --    10 C    1.505     7 N    1.199     8 C    0.122
    15   8 O    2.099 --     6 C    0.995     3 C    0.961
    16   8 O    1.984 --     5 C    1.033    28 H    0.861
    17   8 O    1.973 --     4 C    0.995    29 H    0.887
    18   1 H    0.907 --     1 O    0.894
    19   1 H    0.998 --     2 C    0.969
    20   1 H    0.997 --     2 C    0.961
    21   1 H    0.995 --     3 C    0.957
    22   1 H    0.997 --     4 C    0.960
    23   1 H    0.995 --     5 C    0.957
    24   1 H    0.995 --     6 C    0.952
    25   1 H    0.996 --     8 C    0.962
    26   1 H    0.960 --    12 N    0.941
    27   1 H    0.958 --    12 N    0.935
    28   1 H    0.892 --    16 O    0.861
    29   1 H    0.906 --    17 O    0.887
 ---------------------------------------------------------------------------

Topologies differ in total number of bonds
Writing topology from bond orders to xtbtopo.mol

molecular dipole:
                 x           y           z       tot (Debye)
 q only:       -0.172       0.722      -0.021
   full:       -0.228       1.014       0.183       2.683
molecular quadrupole (traceless):
                xx          xy          yy          xz          yz          zz
 q only:       15.727       2.255     -10.571       8.669      -2.056      -5.156
  q+dip:       16.985       1.802      -9.484       8.949      -1.928      -7.501
   full:       16.866       1.902     -10.526       8.181      -1.912      -6.339

           -------------------------------------------------
          |                Geometry Summary                 |
           -------------------------------------------------

      molecular mass/u    :      244.2050136
   center of mass at/Å    :        0.1974983      -0.0254851      -0.1686648
  moments of inertia/u·Å² :        0.6275198E+03   0.1689044E+04   0.2009997E+04
rotational constants/cm⁻¹ :        0.2686391E-01   0.9980575E-02   0.8386893E-02

 * 27 selected distances

     #   Z          #   Z                                           value/Å
     1   8 O        2   6 C                                       1.4122514
     2   6 C        3   6 C                                       1.5337177
     3   6 C        4   6 C                                       1.5353333 (max)
     6   6 C        7   7 N                                       1.4450090
     7   7 N        8   6 C                                       1.3484859
     8   6 C        9   7 N                                       1.3066731
     9   7 N       10   6 C                                       1.3601207
    11   6 C       12   7 N                                       1.3498512
    11   6 C       13   8 O                                       1.2108827
     7   7 N       14   7 N                                       1.3336093
    10   6 C       14   7 N                                       1.3149025
     3   6 C       15   8 O                                       1.4199376
     6   6 C       15   8 O                                       1.3986480
     5   6 C       16   8 O                                       1.3872385
     4   6 C       17   8 O                                       1.4102951
     1   8 O       18   1 H                                       0.9629884
     2   6 C       19   1 H                                       1.0979737
     2   6 C       20   1 H                                       1.0965657
     3   6 C       21   1 H                                       1.0950535
     4   6 C       22   1 H                                       1.0945751
     5   6 C       23   1 H                                       1.0944041
     6   6 C       24   1 H                                       1.0976167
     8   6 C       25   1 H                                       1.0701862
    12   7 N       26   1 H                                       1.0058211
    12   7 N       27   1 H                                       1.0059883
    16   8 O       28   1 H                                       0.9700294
    17   8 O       29   1 H                                       0.9619897 (min)

 * 7 distinct bonds (by element types)

   Z      Z             #   av. dist./Å        max./Å        min./Å
   1 H    6 C           7     1.0923393     1.0979737     1.0701862
   6 C    6 C           2     1.5345255     1.5353333     1.5337177
   1 H    7 N           2     1.0059047     1.0059883     1.0058211
   6 C    7 N           6     1.3541737     1.4450090     1.3066731
   7 N    7 N           1     1.3336093     1.3336093     1.3336093
   1 H    8 O           3     0.9650025     0.9700294     0.9619897
   6 C    8 O           6     1.3732089     1.4199376     1.2108827


optimized geometry written to: xtbopt.xyz


           -------------------------------------------------
          | TOTAL ENERGY              -55.287421648111 Eh   |
          | GRADIENT NORM               0.000752508875 Eh/α |
          | HOMO-LUMO GAP               3.652515014804 eV   |
           -------------------------------------------------

------------------------------------------------------------------------
 * finished run on 2025/05/15 at 16:15:42.924     
------------------------------------------------------------------------
 total:
 * wall-time:     0 d,  0 h,  0 min,  1.020 sec
 *  cpu-time:     0 d,  0 h,  0 min,  0.705 sec
 * ratio c/w:     0.691 speedup
 SCF:
 * wall-time:     0 d,  0 h,  0 min,  0.032 sec
 *  cpu-time:     0 d,  0 h,  0 min,  0.031 sec
 * ratio c/w:     0.994 speedup
 ANC optimizer:
 * wall-time:     0 d,  0 h,  0 min,  0.978 sec
 *  cpu-time:     0 d,  0 h,  0 min,  0.665 sec
 * ratio c/w:     0.679 speedup



----- Single-point -----
      -----------------------------------------------------------      
     |                   =====================                   |     
     |                           x T B                           |     
     |                   =====================                   |     
     |                         S. Grimme                         |     
     |          Mulliken Center for Theoretical Chemistry        |     
     |                    University of Bonn                     |     
      -----------------------------------------------------------      

   * xtb version 6.7.1 (edcfbbe) compiled by 'conda@3ef47c1a292c' on 2024-11-25

   xtb is free software: you can redistribute it and/or modify it under
   the terms of the GNU Lesser General Public License as published by
   the Free Software Foundation, either version 3 of the License, or
   (at your option) any later version.
   
   xtb is distributed in the hope that it will be useful,
   but WITHOUT ANY WARRANTY; without even the implied warranty of
   MERCHANTABILITY or FITNESS FOR A PARTICULAR PURPOSE.  See the
   GNU Lesser General Public License for more details.
   
   Cite this work as:
   * C. Bannwarth, E. Caldeweyher, S. Ehlert, A. Hansen, P. Pracht,
     J. Seibert, S. Spicher, S. Grimme, WIREs Comput. Mol. Sci., 2020, 11,
     e01493. DOI: 10.1002/wcms.1493
   
   for GFN2-xTB:
   * C. Bannwarth, S. Ehlert and S. Grimme., J. Chem. Theory Comput., 2019,
     15, 1652-1671. DOI: 10.1021/acs.jctc.8b01176
   for GFN1-xTB:
   * S. Grimme, C. Bannwarth, P. Shushkov, J. Chem. Theory Comput., 2017,
     13, 1989-2009. DOI: 10.1021/acs.jctc.7b00118
   for GFN0-xTB:
   * P. Pracht, E. Caldeweyher, S. Ehlert, S. Grimme, ChemRxiv, 2019, preprint.
     DOI: 10.26434/chemrxiv.8326202.v1
   for GFN-FF:
   * S. Spicher and S. Grimme, Angew. Chem. Int. Ed., 2020, 59, 15665-15673.
     DOI: 10.1002/anie.202004239
   
   for ALPB and GBSA implicit solvation:
   * S. Ehlert, M. Stahn, S. Spicher, S. Grimme, J. Chem. Theory Comput.,
     2021, 17, 4250-4261. DOI: 10.1021/acs.jctc.1c00471
   
   for ddCOSMO and CPCM-X implicit solvation:
   * M. Stahn, S. Ehlert, S. Grimme, J. Phys. Chem. A,
     2023, XX, XXXX-XXXX. DOI: 10.1021/acs.jpca.3c04382
   
   for DFT-D4:
   * E. Caldeweyher, C. Bannwarth and S. Grimme, J. Chem. Phys., 2017,
     147, 034112. DOI: 10.1063/1.4993215
   * E. Caldeweyher, S. Ehlert, A. Hansen, H. Neugebauer, S. Spicher,
     C. Bannwarth and S. Grimme, J. Chem. Phys., 2019, 150, 154122.
     DOI: 10.1063/1.5090222
   * E. Caldeweyher, J.-M. Mewes, S. Ehlert and S. Grimme, Phys. Chem. Chem. Phys.
     2020, 22, 8499-8512. DOI: 10.1039/D0CP00502A
   
   for sTDA-xTB:
   * S. Grimme and C. Bannwarth, J. Chem. Phys., 2016, 145, 054103.
     DOI: 10.1063/1.4959605
   
   in the mass-spec context:
   * V. Asgeirsson, C. Bauer and S. Grimme, Chem. Sci., 2017, 8, 4879.
     DOI: 10.1039/c7sc00601b
   * J. Koopman and S. Grimme, ACS Omega 2019, 4, 12, 15120-15133.
     DOI: 10.1021/acsomega.9b02011
   
   for metadynamics refer to:
   * S. Grimme, J. Chem. Theory Comput., 2019, 155, 2847-2862
     DOI: 10.1021/acs.jctc.9b00143
   
   for SPH calculations refer to:
   * S. Spicher and S. Grimme, J. Chem. Theory Comput., 2021, 17, 1701-1714
     DOI: 10.1021/acs.jctc.0c01306
   
   for ONIOM refer to:
   * C. Plett, A. Katbashev, S. Ehlert, S. Grimme, M. Bursch,
     Phys. Chem. Chem. Phys., 2023, 25, 17860-17868. DOI: 10.1039/D3CP02178E
   
   for DIPRO refer to:
   * J. Kohn, N. Gildemeister, S. Grimme, D. Fazzi, A. Hansen,
     J. Chem. Phys., 2023, just accepted.
   
   for PTB refer to:
   * S. Grimme, M. Mueller, A. Hansen, J. Chem. Phys., 2023, 158, 124111.
     DOI: 10.1063/5.0137838
   
   with help from (in alphabetical order)
   P. Atkinson, C. Bannwarth, F. Bohle, G. Brandenburg, E. Caldeweyher
   M. Checinski, S. Dohm, S. Ehlert, S. Ehrlich, I. Gerasimov, C. Hölzer
   A. Katbashev, J. Kohn, J. Koopman, C. Lavigne, S. Lehtola, F. März, M. Müller,
   F. Musil, H. Neugebauer, J. Pisarek, C. Plett, P. Pracht, F. Pultar,
   J. Seibert, P. Shushkov, S. Spicher, M. Stahn, M. Steiner, T. Strunk,
   J. Stückrath, T. Rose, and J. Unsleber
   
 * started run on 2025/05/15 at 16:15:42.987     
   ID    Z sym.   atoms
    1    8 O      1, 13, 15-17
    2    6 C      2-6, 8, 10, 11
    3    7 N      7, 9, 12, 14
    4    1 H      18-29

           -------------------------------------------------
          |                Calculation Setup                |
           -------------------------------------------------

          program call               : xtb /rds/general/user/hgt20/home/callum/QDESCP/Ribavirin_rdkit_conf_15/Ribavirin_rdkit_conf_15.xyz --acc 1 --gfn 2 --chrg 0 --uhf 0 --etemp 300 --input /rds/general/user/hgt20/home/callum/QDESCP/Ribavirin_rdkit_conf_15/Ribavirin_rdkit_conf_15_xtb.inp -P 1
          hostname                   : login-c
          coordinate file            : /rds/general/user/hgt20/home/callum/QDESCP/Ribavirin_rdkit_conf_15/Ribavirin_rdkit_conf_15.xyz
          omp threads                :                     1


           -------------------------------------------------
          |                 G F N 2 - x T B                 |
           -------------------------------------------------

        Reference                      10.1021/acs.jctc.8b01176
      * Hamiltonian:
        H0-scaling (s, p, d)           1.850000    2.230000    2.230000
        zeta-weighting                 0.500000
      * Dispersion:
        s8                             2.700000
        a1                             0.520000
        a2                             5.000000
        s9                             5.000000
      * Repulsion:
        kExp                           1.500000    1.000000
        rExp                           1.000000
      * Coulomb:
        alpha                          2.000000
        third order                    shell-resolved
        anisotropic                    true
        a3                             3.000000
        a5                             4.000000
        cn-shift                       1.200000
        cn-exp                         4.000000
        max-rad                        5.000000

q/qsh data taken from xtbrestart
CAMM data taken from xtbrestart

          ...................................................
          :                      SETUP                      :
          :.................................................:
          :  # basis functions                  80          :
          :  # atomic orbitals                  80          :
          :  # shells                           46          :
          :  # electrons                        94          :
          :  max. iterations                   250          :
          :  Hamiltonian                  GFN2-xTB          :
          :  restarted?                       true          :
          :  GBSA solvation                  false          :
          :  PC potential                    false          :
          :  electronic temp.          300.0000000     K    :
          :  accuracy                    1.0000000          :
          :  -> integral cutoff          0.2500000E+02      :
          :  -> integral neglect         0.1000000E-07      :
          :  -> SCF convergence          0.1000000E-05 Eh   :
          :  -> wf. convergence          0.1000000E-03 e    :
          :  Broyden damping             0.4000000          :
          :  net charge                          0          :
          :  unpaired electrons                  0          :
          ...................................................

 iter      E             dE          RMSdq      gap      omega  full diag
   1    -55.7894139 -0.557894E+02  0.548E-06    3.65       0.0  T
   2    -55.7894139 -0.923706E-13  0.345E-06    3.65    5378.0  T
   3    -55.7894139 -0.284217E-13  0.170E-06    3.65   10916.4  T

   *** convergence criteria satisfied after 3 iterations ***

         #    Occupation            Energy/Eh            Energy/eV
      -------------------------------------------------------------
         1        2.0000           -0.7388812             -20.1060
       ...           ...                  ...                  ...
        41        2.0000           -0.4368270             -11.8867
        42        2.0000           -0.4302545             -11.7078
        43        2.0000           -0.4236407             -11.5279
        44        2.0000           -0.4214354             -11.4678
        45        2.0000           -0.4198418             -11.4245
        46        2.0000           -0.4067663             -11.0687
        47        2.0000           -0.3993190             -10.8660 (HOMO)
        48                         -0.2650915              -7.2135 (LUMO)
        49                         -0.2346495              -6.3851
        50                         -0.1435035              -3.9049
        51                         -0.0410525              -1.1171
        52                         -0.0218056              -0.5934
       ...                                ...                  ...
        80                          0.6897607              18.7693
      -------------------------------------------------------------
                  HL-Gap            0.1342275 Eh            3.6525 eV
             Fermi-level           -0.3322052 Eh           -9.0398 eV

 SCC (total)                   0 d,  0 h,  0 min,  0.022 sec
 SCC setup                      ...        0 min,  0.000 sec (  0.949%)
 Dispersion                     ...        0 min,  0.000 sec (  0.952%)
 classical contributions        ...        0 min,  0.000 sec (  0.328%)
 integral evaluation            ...        0 min,  0.005 sec ( 20.501%)
 iterations                     ...        0 min,  0.004 sec ( 19.054%)
 molecular gradient             ...        0 min,  0.013 sec ( 57.588%)
 printout                       ...        0 min,  0.000 sec (  0.600%)

         :::::::::::::::::::::::::::::::::::::::::::::::::::::
         ::                     SUMMARY                     ::
         :::::::::::::::::::::::::::::::::::::::::::::::::::::
         :: total energy             -55.287421648118 Eh    ::
         :: gradient norm              0.000752604687 Eh/a0 ::
         :: HOMO-LUMO gap              3.652516017623 eV    ::
         ::.................................................::
         :: SCC energy               -55.789198431874 Eh    ::
         :: -> isotropic ES            0.142672211857 Eh    ::
         :: -> anisotropic ES         -0.000277915808 Eh    ::
         :: -> anisotropic XC          0.009474860363 Eh    ::
         :: -> dispersion             -0.027415806212 Eh    ::
         :: repulsion energy           0.501776783756 Eh    ::
         :: add. restraining           0.000000000000 Eh    ::
         :: total charge               0.000000000000 e     ::
         :::::::::::::::::::::::::::::::::::::::::::::::::::::

           -------------------------------------------------
          |                Property Printout                |
           -------------------------------------------------

    * Orbital Energies and Occupations

         #    Occupation            Energy/Eh            Energy/eV
      -------------------------------------------------------------
         1        2.0000           -0.7388812             -20.1060
       ...           ...                  ...                  ...
        35        2.0000           -0.4915401             -13.3755
        36        2.0000           -0.4827398             -13.1360
        37        2.0000           -0.4697617             -12.7829
        38        2.0000           -0.4625434             -12.5864
        39        2.0000           -0.4507402             -12.2653
        40        2.0000           -0.4451499             -12.1131
        41        2.0000           -0.4368270             -11.8867
        42        2.0000           -0.4302545             -11.7078
        43        2.0000           -0.4236407             -11.5279
        44        2.0000           -0.4214354             -11.4678
[...]
     |          Mulliken Center for Theoretical Chemistry        |     
     |                    University of Bonn                     |     
      -----------------------------------------------------------      

   * xtb version 6.7.1 (edcfbbe) compiled by 'conda@3ef47c1a292c' on 2024-11-25

   xtb is free software: you can redistribute it and/or modify it under
   the terms of the GNU Lesser General Public License as published by
   the Free Software Foundation, either version 3 of the License, or
   (at your option) any later version.
   
   xtb is distributed in the hope that it will be useful,
   but WITHOUT ANY WARRANTY; without even the implied warranty of
   MERCHANTABILITY or FITNESS FOR A PARTICULAR PURPOSE.  See the
   GNU Lesser General Public License for more details.
   
   Cite this work as:
   * C. Bannwarth, E. Caldeweyher, S. Ehlert, A. Hansen, P. Pracht,
     J. Seibert, S. Spicher, S. Grimme, WIREs Comput. Mol. Sci., 2020, 11,
     e01493. DOI: 10.1002/wcms.1493
   
   for GFN2-xTB:
   * C. Bannwarth, S. Ehlert and S. Grimme., J. Chem. Theory Comput., 2019,
     15, 1652-1671. DOI: 10.1021/acs.jctc.8b01176
   for GFN1-xTB:
   * S. Grimme, C. Bannwarth, P. Shushkov, J. Chem. Theory Comput., 2017,
     13, 1989-2009. DOI: 10.1021/acs.jctc.7b00118
   for GFN0-xTB:
   * P. Pracht, E. Caldeweyher, S. Ehlert, S. Grimme, ChemRxiv, 2019, preprint.
     DOI: 10.26434/chemrxiv.8326202.v1
   for GFN-FF:
   * S. Spicher and S. Grimme, Angew. Chem. Int. Ed., 2020, 59, 15665-15673.
     DOI: 10.1002/anie.202004239
   
   for ALPB and GBSA implicit solvation:
   * S. Ehlert, M. Stahn, S. Spicher, S. Grimme, J. Chem. Theory Comput.,
     2021, 17, 4250-4261. DOI: 10.1021/acs.jctc.1c00471
   
   for ddCOSMO and CPCM-X implicit solvation:
   * M. Stahn, S. Ehlert, S. Grimme, J. Phys. Chem. A,
     2023, XX, XXXX-XXXX. DOI: 10.1021/acs.jpca.3c04382
   
   for DFT-D4:
   * E. Caldeweyher, C. Bannwarth and S. Grimme, J. Chem. Phys., 2017,
     147, 034112. DOI: 10.1063/1.4993215
   * E. Caldeweyher, S. Ehlert, A. Hansen, H. Neugebauer, S. Spicher,
     C. Bannwarth and S. Grimme, J. Chem. Phys., 2019, 150, 154122.
     DOI: 10.1063/1.5090222
   * E. Caldeweyher, J.-M. Mewes, S. Ehlert and S. Grimme, Phys. Chem. Chem. Phys.
     2020, 22, 8499-8512. DOI: 10.1039/D0CP00502A
   
   for sTDA-xTB:
   * S. Grimme and C. Bannwarth, J. Chem. Phys., 2016, 145, 054103.
     DOI: 10.1063/1.4959605
   
   in the mass-spec context:
   * V. Asgeirsson, C. Bauer and S. Grimme, Chem. Sci., 2017, 8, 4879.
     DOI: 10.1039/c7sc00601b
   * J. Koopman and S. Grimme, ACS Omega 2019, 4, 12, 15120-15133.
     DOI: 10.1021/acsomega.9b02011
   
   for metadynamics refer to:
   * S. Grimme, J. Chem. Theory Comput., 2019, 155, 2847-2862
     DOI: 10.1021/acs.jctc.9b00143
   
   for SPH calculations refer to:
   * S. Spicher and S. Grimme, J. Chem. Theory Comput., 2021, 17, 1701-1714
     DOI: 10.1021/acs.jctc.0c01306
   
   for ONIOM refer to:
   * C. Plett, A. Katbashev, S. Ehlert, S. Grimme, M. Bursch,
     Phys. Chem. Chem. Phys., 2023, 25, 17860-17868. DOI: 10.1039/D3CP02178E
   
   for DIPRO refer to:
   * J. Kohn, N. Gildemeister, S. Grimme, D. Fazzi, A. Hansen,
     J. Chem. Phys., 2023, just accepted.
   
   for PTB refer to:
   * S. Grimme, M. Mueller, A. Hansen, J. Chem. Phys., 2023, 158, 124111.
     DOI: 10.1063/5.0137838
   
   with help from (in alphabetical order)
   P. Atkinson, C. Bannwarth, F. Bohle, G. Brandenburg, E. Caldeweyher
   M. Checinski, S. Dohm, S. Ehlert, S. Ehrlich, I. Gerasimov, C. Hölzer
   A. Katbashev, J. Kohn, J. Koopman, C. Lavigne, S. Lehtola, F. März, M. Müller,
   F. Musil, H. Neugebauer, J. Pisarek, C. Plett, P. Pracht, F. Pultar,
   J. Seibert, P. Shushkov, S. Spicher, M. Stahn, M. Steiner, T. Strunk,
   J. Stückrath, T. Rose, and J. Unsleber
   
 * started run on 2025/05/15 at 16:15:44.487     
   ID    Z sym.   atoms
    1    8 O      1, 13, 15-17
    2    6 C      2-6, 8, 10, 11
    3    7 N      7, 9, 12, 14
    4    1 H      18-29

           -------------------------------------------------
          |                Calculation Setup                |
           -------------------------------------------------

          program call               : xtb /rds/general/user/hgt20/home/callum/QDESCP/Ribavirin_rdkit_conf_15/Ribavirin_rdkit_conf_15.xyz --acc 1 --gfn 2 --chrg 0 --uhf 2 --etemp 300 --input /rds/general/user/hgt20/home/callum/QDESCP/Ribavirin_rdkit_conf_15/Ribavirin_rdkit_conf_15_xtb.inp -P 1
          hostname                   : login-c
          coordinate file            : /rds/general/user/hgt20/home/callum/QDESCP/Ribavirin_rdkit_conf_15/Ribavirin_rdkit_conf_15.xyz
          omp threads                :                     1


           -------------------------------------------------
          |                 G F N 2 - x T B                 |
           -------------------------------------------------

        Reference                      10.1021/acs.jctc.8b01176
      * Hamiltonian:
        H0-scaling (s, p, d)           1.850000    2.230000    2.230000
        zeta-weighting                 0.500000
      * Dispersion:
        s8                             2.700000
        a1                             0.520000
        a2                             5.000000
        s9                             5.000000
      * Repulsion:
        kExp                           1.500000    1.000000
        rExp                           1.000000
      * Coulomb:
        alpha                          2.000000
        third order                    shell-resolved
        anisotropic                    true
        a3                             3.000000
        a5                             4.000000
        cn-shift                       1.200000
        cn-exp                         4.000000
        max-rad                        5.000000


          ...................................................
          :                      SETUP                      :
          :.................................................:
          :  # basis functions                  80          :
          :  # atomic orbitals                  80          :
          :  # shells                           46          :
          :  # electrons                        94          :
          :  max. iterations                   250          :
          :  Hamiltonian                  GFN2-xTB          :
          :  restarted?                      false          :
          :  GBSA solvation                  false          :
          :  PC potential                    false          :
          :  electronic temp.          300.0000000     K    :
          :  accuracy                    1.0000000          :
          :  -> integral cutoff          0.2500000E+02      :
          :  -> integral neglect         0.1000000E-07      :
          :  -> SCF convergence          0.1000000E-05 Eh   :
          :  -> wf. convergence          0.1000000E-03 e    :
          :  Broyden damping             0.4000000          :
          :  net charge                          0          :
          :  unpaired electrons                  2          :
          ...................................................

 iter      E             dE          RMSdq      gap      omega  full diag
   1    -55.3404271 -0.553404E+02  0.489E+00    1.02       0.0  T
   2    -55.4677537 -0.127327E+00  0.326E+00    0.90       1.0  T
   3    -55.4340248  0.337289E-01  0.278E+00    0.78       1.0  T
   4    -55.5530299 -0.119005E+00  0.184E+00    1.27       1.0  T
   5    -55.5325140  0.205159E-01  0.170E+00    0.25       1.0  T
   6    -55.6109396 -0.784256E-01  0.102E+00    0.56       1.0  T
   7    -55.6408310 -0.298914E-01  0.325E-01    0.57       1.0  T
   8    -55.6263182  0.145128E-01  0.703E-01    0.68       1.0  T
   9    -55.6397604 -0.134422E-01  0.291E-01    0.67       1.0  T
  10    -55.6307936  0.896676E-02  0.585E-01    0.63       1.0  T
  11    -55.6434798 -0.126862E-01  0.768E-02    0.64       1.0  T
  12    -55.6434975 -0.176629E-04  0.856E-02    0.64       1.0  T
  13    -55.6436514 -0.153931E-03  0.424E-02    0.63       1.0  T
  14    -55.6434598  0.191604E-03  0.766E-02    0.63       1.0  T
  15    -55.6436691 -0.209286E-03  0.187E-02    0.63       1.0  T
  16    -55.6436800 -0.109226E-04  0.680E-03    0.63       2.7  T
  17    -55.6436808 -0.770777E-06  0.251E-03    0.63       7.4  T
  18    -55.6436811 -0.306672E-06  0.314E-04    0.63      59.1  T
  19    -55.6436811  0.316000E-08  0.346E-04    0.63      53.7  T

   *** convergence criteria satisfied after 19 iterations ***

         #    Occupation            Energy/Eh            Energy/eV
      -------------------------------------------------------------
         1        2.0000           -0.7351610             -20.0047
       ...           ...                  ...                  ...
        42        2.0000           -0.4297506             -11.6941
        43        2.0000           -0.4235655             -11.5258
        44        2.0000           -0.4218408             -11.4789
        45        1.9994           -0.4151030             -11.2955
        46        1.7724           -0.4091664             -11.1340
        47        1.2282           -0.4068480             -11.0709
        48        1.0000           -0.2518770              -6.8539 (HOMO)
        49        0.0000           -0.2287552              -6.2247 (LUMO)
        50                         -0.1321613              -3.5963
        51                         -0.0351539              -0.9566
        52                         -0.0185972              -0.5061
        53                         -0.0079793              -0.2171
       ...                                ...                  ...
        80                          0.6947232              18.9044
      -------------------------------------------------------------
                  HL-Gap            0.0231218 Eh            0.6292 eV
             Fermi-level           -0.3241609 Eh           -8.8209 eV

 transition dipole moment (au) for excitation:          47          48
     X       Y       Z   
  -0.0679   0.0041  -0.0570  total (au/Debye):    0.089   0.226
 dE (eV)             :    4.217
 oscillator strength :  0.11518E-02

 SCC (total)                   0 d,  0 h,  0 min,  0.045 sec
 SCC setup                      ...        0 min,  0.000 sec (  0.470%)
 Dispersion                     ...        0 min,  0.000 sec (  0.486%)
 classical contributions        ...        0 min,  0.000 sec (  0.165%)
 integral evaluation            ...        0 min,  0.005 sec ( 10.290%)
 iterations                     ...        0 min,  0.022 sec ( 50.258%)
 molecular gradient             ...        0 min,  0.013 sec ( 28.523%)
 printout                       ...        0 min,  0.004 sec (  9.792%)

         :::::::::::::::::::::::::::::::::::::::::::::::::::::
         ::                     SUMMARY                     ::
         :::::::::::::::::::::::::::::::::::::::::::::::::::::
         :: total energy             -55.141688823720 Eh    ::
         :: gradient norm              0.155277120762 Eh/a0 ::
         :: HOMO-LUMO gap              0.629175642847 eV    ::
         ::.................................................::
         :: SCC energy               -55.643465607476 Eh    ::
         :: -> isotropic ES            0.131275541702 Eh    ::
         :: -> anisotropic ES         -0.000786649635 Eh    ::
         :: -> anisotropic XC          0.003991554017 Eh    ::
         :: -> dispersion             -0.027423036242 Eh    ::
         :: repulsion energy           0.501776783756 Eh    ::
         :: add. restraining           0.000000000000 Eh    ::
         :: total charge               0.000000000751 e     ::
         :::::::::::::::::::::::::::::::::::::::::::::::::::::

           -------------------------------------------------
          |                Property Printout                |
           -------------------------------------------------

    * Orbital Energies and Occupations

         #    Occupation            Energy/Eh            Energy/eV
      -------------------------------------------------------------
         1        2.0000           -0.7351610             -20.0047
       ...           ...                  ...                  ...
        36        2.0000           -0.4832734             -13.1505
        37        2.0000           -0.4668927             -12.7048
        38        2.0000           -0.4573473             -12.4451
        39        2.0000           -0.4513212             -12.2811
        40        2.0000           -0.4416022             -12.0166
        41        2.0000           -0.4320126             -11.7557
        42        2.0000           -0.4297506             -11.6941
        43        2.0000           -0.4235655             -11.5258
        44        2.0000           -0.4218408             -11.4789
        45        1.9994           -0.4151030             -11.2955
        46        1.7724           -0.4091664             -11.1340
        47        1.2282           -0.4068480             -11.0709
        48        1.0000           -0.2518770              -6.8539 (HOMO)
        49        0.0000           -0.2287552              -6.2247 (LUMO)
        50                         -0.1321613              -3.5963
        51                         -0.0351539              -0.9566
        52                         -0.0185972              -0.5061
        53                         -0.0079793              -0.2171
        54                          0.0193887               0.5276
        55                          0.0243987               0.6639
        56                          0.0430999               1.1728
        57                          0.0557084               1.5159
        58                          0.0742122               2.0194
        59                          0.0872827               2.3751
       ...                                ...                  ...
        80                          0.6947232              18.9044
      -------------------------------------------------------------
                  HL-Gap            0.0231218 Eh            0.6292 eV
             Fermi-level           -0.3241609 Eh           -8.8209 eV

     #   Z          covCN         q      C6AA      α(0)
     1   8 O        1.656    -0.437    21.587     6.272
     2   6 C        3.674     0.061    19.776     6.373
     3   6 C        3.785     0.093    19.055     6.218
     4   6 C        3.736     0.094    19.111     6.239
     5   6 C        3.738     0.100    19.006     6.221
     6   6 C        3.719     0.151    18.264     6.104
     7   7 N        3.046     0.028    20.761     6.767
     8   6 C        3.142     0.093    25.697     8.295
     9   7 N        1.904    -0.236    27.016     7.706
    10   6 C        3.304     0.101    24.056     7.844
    11   6 C        2.746     0.237    23.033     7.858
    12   7 N        2.646    -0.267    26.917     7.705
    13   8 O        0.858    -0.353    20.758     6.109
    14   7 N        2.018    -0.231    26.842     7.684
    15   8 O        1.702    -0.312    19.203     5.916
    16   8 O        1.656    -0.428    21.395     6.244
    17   8 O        1.656    -0.439    21.626     6.278
    18   1 H        0.805     0.308     0.697     1.312
    19   1 H        0.923     0.049     2.331     2.388
    20   1 H        0.924     0.063     2.168     2.302
    21   1 H        0.924     0.067     2.116     2.275
    22   1 H        0.924     0.048     2.340     2.392
    23   1 H        0.924     0.066     2.126     2.280
    24   1 H        0.924     0.066     2.134     2.285
    25   1 H        0.927     0.055     2.263     2.352
    26   1 H        0.860     0.191     1.150     1.680
    27   1 H        0.860     0.198     1.118     1.656
    28   1 H        0.804     0.328     0.643     1.259
    29   1 H        0.805     0.306     0.704     1.318

 Mol. C6AA /au·bohr⁶  :       8904.647788
 Mol. C8AA /au·bohr⁸  :     198225.684844
 Mol. α(0) /au        :        139.332645


Wiberg/Mayer (AO) data.
largest (>0.10) Wiberg bond orders for each atom

 ---------------------------------------------------------------------------
     #   Z sym  total        # sym  WBO       # sym  WBO       # sym  WBO
 ---------------------------------------------------------------------------
     1   8 O    1.949 --     2 C    1.001    18 H    0.892
     2   6 C    3.942 --     1 O    1.001     3 C    0.981    19 H    0.963
                            20 H    0.946
     3   6 C    3.944 --     2 C    0.981     4 C    0.968    15 O    0.965
                            21 H    0.956
     4   6 C    3.954 --    17 O    0.996     3 C    0.968     5 C    0.963
                            22 H    0.960
     5   6 C    3.963 --    16 O    1.032     4 C    0.963    23 H    0.956
                             6 C    0.937
     6   6 C    3.938 --    15 O    0.987     7 N    0.967    24 H    0.950
                             5 C    0.937
     7   7 N    3.603 --     8 C    1.265    14 N    1.105     6 C    0.967
                             9 N    0.120
     8   6 C    3.948 --     9 N    1.515     7 N    1.265    25 H    0.960
     9   7 N    3.070 --     8 C    1.515    10 C    1.219     7 N    0.120
    10   6 C    3.826 --    14 N    1.272     9 N    1.219    11 C    1.075
    11   6 C    3.893 --    13 O    1.488    12 N    1.162    10 C    1.075
    12   7 N    3.271 --    11 C    1.162    26 H    0.942    27 H    0.938
                            13 O    0.120
    13   8 O    1.878 --    11 C    1.488    12 N    0.120
    14   7 N    2.825 --    10 C    1.272     7 N    1.105
    15   8 O    2.095 --     6 C    0.987     3 C    0.965
    16   8 O    1.983 --     5 C    1.032    28 H    0.862
    17   8 O    1.973 --     4 C    0.996    29 H    0.888
    18   1 H    0.905 --     1 O    0.892
    19   1 H    0.994 --     2 C    0.963
    20   1 H    0.991 --     2 C    0.946
    21   1 H    0.993 --     3 C    0.956
    22   1 H    0.997 --     4 C    0.960
    23   1 H    0.995 --     5 C    0.956
    24   1 H    0.993 --     6 C    0.950
    25   1 H    0.995 --     8 C    0.960
    26   1 H    0.959 --    12 N    0.942
    27   1 H    0.960 --    12 N    0.938
    28   1 H    0.892 --    16 O    0.862
    29   1 H    0.907 --    17 O    0.888
 ---------------------------------------------------------------------------

Topologies differ in total number of bonds
Writing topology from bond orders to xtbtopo.mol

molecular dipole:
                 x           y           z       tot (Debye)
 q only:       -0.353       0.571       0.092
   full:       -0.440       0.768       0.330       2.401
molecular quadrupole (traceless):
                xx          xy          yy          xz          yz          zz
 q only:       14.986       2.843      -9.403       7.904      -2.550      -5.583
  q+dip:       16.342       2.378      -8.249       8.528      -2.562      -8.093
   full:       16.667       2.622      -9.124       8.369      -2.891      -7.543


           -------------------------------------------------
          | TOTAL ENERGY              -55.141688823720 Eh   |
          | GRADIENT NORM               0.155277120762 Eh/α |
          | HOMO-LUMO GAP               0.629175642847 eV   |
           -------------------------------------------------

------------------------------------------------------------------------
 * finished run on 2025/05/15 at 16:15:44.582     
------------------------------------------------------------------------
 total:
 * wall-time:     0 d,  0 h,  0 min,  0.095 sec
 *  cpu-time:     0 d,  0 h,  0 min,  0.053 sec
 * ratio c/w:     0.558 speedup
 SCF:
 * wall-time:     0 d,  0 h,  0 min,  0.045 sec
 *  cpu-time:     0 d,  0 h,  0 min,  0.044 sec
 * ratio c/w:     0.996 speedup


