----- Optimization -----
      -----------------------------------------------------------      
     |                   =====================                   |     
     |                           x T B                           |     
     |                   =====================                   |     
     |                         S. Grimme                         |     
     |          Mulliken Center for Theoretical Chemistry        |     
     |                    University of Bonn                     |     
      -----------------------------------------------------------      

   * xtb version 6.7.1 (edcfbbe) compiled by 'conda@3ef47c1a292c' on 2024-11-25

   xtb is free software: you can redistribute it and/or modify it under
   the terms of the GNU Lesser General Public License as published by
   the Free Software Foundation, either version 3 of the License, or
   (at your option) any later version.
   
   xtb is distributed in the hope that it will be useful,
   but WITHOUT ANY WARRANTY; without even the implied warranty of
   MERCHANTABILITY or FITNESS FOR A PARTICULAR PURPOSE.  See the
   GNU Lesser General Public License for more details.
   
   Cite this work as:
   * C. Bannwarth, E. Caldeweyher, S. Ehlert, A. Hansen, P. Pracht,
     J. Seibert, S. Spicher, S. Grimme, WIREs Comput. Mol. Sci., 2020, 11,
     e01493. DOI: 10.1002/wcms.1493
   
   for GFN2-xTB:
   * C. Bannwarth, S. Ehlert and S. Grimme., J. Chem. Theory Comput., 2019,
     15, 1652-1671. DOI: 10.1021/acs.jctc.8b01176
   for GFN1-xTB:
   * S. Grimme, C. Bannwarth, P. Shushkov, J. Chem. Theory Comput., 2017,
     13, 1989-2009. DOI: 10.1021/acs.jctc.7b00118
   for GFN0-xTB:
   * P. Pracht, E. Caldeweyher, S. Ehlert, S. Grimme, ChemRxiv, 2019, preprint.
     DOI: 10.26434/chemrxiv.8326202.v1
   for GFN-FF:
   * S. Spicher and S. Grimme, Angew. Chem. Int. Ed., 2020, 59, 15665-15673.
     DOI: 10.1002/anie.202004239
   
   for ALPB and GBSA implicit solvation:
   * S. Ehlert, M. Stahn, S. Spicher, S. Grimme, J. Chem. Theory Comput.,
     2021, 17, 4250-4261. DOI: 10.1021/acs.jctc.1c00471
   
   for ddCOSMO and CPCM-X implicit solvation:
   * M. Stahn, S. Ehlert, S. Grimme, J. Phys. Chem. A,
     2023, XX, XXXX-XXXX. DOI: 10.1021/acs.jpca.3c04382
   
   for DFT-D4:
   * E. Caldeweyher, C. Bannwarth and S. Grimme, J. Chem. Phys., 2017,
     147, 034112. DOI: 10.1063/1.4993215
   * E. Caldeweyher, S. Ehlert, A. Hansen, H. Neugebauer, S. Spicher,
     C. Bannwarth and S. Grimme, J. Chem. Phys., 2019, 150, 154122.
     DOI: 10.1063/1.5090222
   * E. Caldeweyher, J.-M. Mewes, S. Ehlert and S. Grimme, Phys. Chem. Chem. Phys.
     2020, 22, 8499-8512. DOI: 10.1039/D0CP00502A
   
   for sTDA-xTB:
   * S. Grimme and C. Bannwarth, J. Chem. Phys., 2016, 145, 054103.
     DOI: 10.1063/1.4959605
   
   in the mass-spec context:
   * V. Asgeirsson, C. Bauer and S. Grimme, Chem. Sci., 2017, 8, 4879.
     DOI: 10.1039/c7sc00601b
   * J. Koopman and S. Grimme, ACS Omega 2019, 4, 12, 15120-15133.
     DOI: 10.1021/acsomega.9b02011
   
   for metadynamics refer to:
   * S. Grimme, J. Chem. Theory Comput., 2019, 155, 2847-2862
     DOI: 10.1021/acs.jctc.9b00143
   
   for SPH calculations refer to:
   * S. Spicher and S. Grimme, J. Chem. Theory Comput., 2021, 17, 1701-1714
     DOI: 10.1021/acs.jctc.0c01306
   
   for ONIOM refer to:
   * C. Plett, A. Katbashev, S. Ehlert, S. Grimme, M. Bursch,
     Phys. Chem. Chem. Phys., 2023, 25, 17860-17868. DOI: 10.1039/D3CP02178E
   
   for DIPRO refer to:
   * J. Kohn, N. Gildemeister, S. Grimme, D. Fazzi, A. Hansen,
     J. Chem. Phys., 2023, just accepted.
   
   for PTB refer to:
   * S. Grimme, M. Mueller, A. Hansen, J. Chem. Phys., 2023, 158, 124111.
     DOI: 10.1063/5.0137838
   
   with help from (in alphabetical order)
   P. Atkinson, C. Bannwarth, F. Bohle, G. Brandenburg, E. Caldeweyher
   M. Checinski, S. Dohm, S. Ehlert, S. Ehrlich, I. Gerasimov, C. Hölzer
   A. Katbashev, J. Kohn, J. Koopman, C. Lavigne, S. Lehtola, F. März, M. Müller,
   F. Musil, H. Neugebauer, J. Pisarek, C. Plett, P. Pracht, F. Pultar,
   J. Seibert, P. Shushkov, S. Spicher, M. Stahn, M. Steiner, T. Strunk,
   J. Stückrath, T. Rose, and J. Unsleber
   
 * started run on 2025/05/15 at 16:20:21.948     
   ID    Z sym.   atoms
    1    6 C      1, 3, 5-7, 10-14, 16, 18, 19, 21-25, 27-32
    2    7 N      2, 4, 8, 15, 17, 20
    3    8 O      9
    4    9 F      26
    5    1 H      33-57

           -------------------------------------------------
          |                Calculation Setup                |
           -------------------------------------------------

          program call               : xtb /rds/general/user/hgt20/home/callum/QDESCP/Mizolastine_rdkit_conf_19/Mizolastine_rdkit_conf_19.xyz --opt normal --acc 1 --gfn 2 --chrg 0 --uhf 0 -P 1
          hostname                   : login-c
          coordinate file            : /rds/general/user/hgt20/home/callum/QDESCP/Mizolastine_rdkit_conf_19/Mizolastine_rdkit_conf_19.xyz
          omp threads                :                     1


           -------------------------------------------------
          |                 G F N 2 - x T B                 |
           -------------------------------------------------

        Reference                      10.1021/acs.jctc.8b01176
      * Hamiltonian:
        H0-scaling (s, p, d)           1.850000    2.230000    2.230000
        zeta-weighting                 0.500000
      * Dispersion:
        s8                             2.700000
        a1                             0.520000
        a2                             5.000000
        s9                             5.000000
      * Repulsion:
        kExp                           1.500000    1.000000
        rExp                           1.000000
      * Coulomb:
        alpha                          2.000000
        third order                    shell-resolved
        anisotropic                    true
        a3                             3.000000
        a5                             4.000000
        cn-shift                       1.200000
        cn-exp                         4.000000
        max-rad                        5.000000


          ...................................................
          :                      SETUP                      :
          :.................................................:
          :  # basis functions                 153          :
          :  # atomic orbitals                 153          :
          :  # shells                           89          :
          :  # electrons                       164          :
          :  max. iterations                   250          :
          :  Hamiltonian                  GFN2-xTB          :
          :  restarted?                      false          :
          :  GBSA solvation                  false          :
          :  PC potential                    false          :
          :  electronic temp.          300.0000000     K    :
          :  accuracy                    1.0000000          :
          :  -> integral cutoff          0.2500000E+02      :
          :  -> integral neglect         0.1000000E-07      :
          :  -> SCF convergence          0.1000000E-05 Eh   :
          :  -> wf. convergence          0.1000000E-03 e    :
          :  Broyden damping             0.4000000          :
          :  net charge                          0          :
          :  unpaired electrons                  0          :
          ...................................................

 iter      E             dE          RMSdq      gap      omega  full diag
   1    -91.6450761 -0.916451E+02  0.382E+00    2.97       0.0  T
   2    -91.7985934 -0.153517E+00  0.234E+00    3.31       1.0  T
   3    -91.8033080 -0.471461E-02  0.121E+00    3.32       1.0  T
   4    -91.8115228 -0.821479E-02  0.401E-01    3.24       1.0  T
   5    -91.8183165 -0.679368E-02  0.103E-01    3.25       1.0  T
   6    -91.8185198 -0.203339E-03  0.517E-02    3.24       1.0  T
   7    -91.8185821 -0.622434E-04  0.196E-02    3.25       1.0  T
   8    -91.8185837 -0.164853E-05  0.882E-03    3.25       1.5  T
   9    -91.8185852 -0.147056E-05  0.323E-03    3.25       4.1  T
  10    -91.8185853 -0.170673E-06  0.128E-03    3.25      10.4  T
  11    -91.8185854 -0.281341E-07  0.590E-04    3.25      22.5  T
  12    -91.8185854 -0.441646E-08  0.246E-04    3.25      53.8  T

   *** convergence criteria satisfied after 12 iterations ***

         #    Occupation            Energy/Eh            Energy/eV
      -------------------------------------------------------------
         1        2.0000           -0.8265838             -22.4925
       ...           ...                  ...                  ...
        76        2.0000           -0.4037489             -10.9866
        77        2.0000           -0.3909166             -10.6374
        78        2.0000           -0.3851255             -10.4798
        79        2.0000           -0.3828015             -10.4166
        80        2.0000           -0.3823370             -10.4039
        81        2.0000           -0.3781533             -10.2901
        82        2.0000           -0.3743141             -10.1856 (HOMO)
        83                         -0.2547778              -6.9329 (LUMO)
        84                         -0.2516520              -6.8478
        85                         -0.2504466              -6.8150
        86                         -0.2436407              -6.6298
        87                         -0.2225467              -6.0558
       ...                                ...                  ...
       153                          0.7066597              19.2292
      -------------------------------------------------------------
                  HL-Gap            0.1195362 Eh            3.2527 eV
             Fermi-level           -0.3145460 Eh           -8.5592 eV

 SCC (total)                   0 d,  0 h,  0 min,  0.104 sec
 SCC setup                      ...        0 min,  0.001 sec (  0.582%)
 Dispersion                     ...        0 min,  0.001 sec (  0.807%)
 classical contributions        ...        0 min,  0.000 sec (  0.257%)
 integral evaluation            ...        0 min,  0.012 sec ( 12.010%)
 iterations                     ...        0 min,  0.047 sec ( 45.557%)
 molecular gradient             ...        0 min,  0.042 sec ( 40.474%)
 printout                       ...        0 min,  0.000 sec (  0.307%)

         :::::::::::::::::::::::::::::::::::::::::::::::::::::
         ::                     SUMMARY                     ::
         :::::::::::::::::::::::::::::::::::::::::::::::::::::
         :: total energy             -90.560033194043 Eh    ::
         :: gradient norm              0.098292889276 Eh/a0 ::
         :: HOMO-LUMO gap              3.252746558843 eV    ::
         ::.................................................::
         :: SCC energy               -91.818030045846 Eh    ::
         :: -> isotropic ES            0.093210698069 Eh    ::
         :: -> anisotropic ES          0.008860718130 Eh    ::
         :: -> anisotropic XC          0.044988935262 Eh    ::
         :: -> dispersion             -0.067219447709 Eh    ::
         :: repulsion energy           1.257996851802 Eh    ::
         :: add. restraining           0.000000000000 Eh    ::
         :: total charge               0.000000000000 e     ::
         :::::::::::::::::::::::::::::::::::::::::::::::::::::

      ----------------------------------------------------------- 
     |                   =====================                   |
     |                        A N C O P T                        |
     |                   =====================                   |
     |               Approximate Normal Coordinate               |
     |                Rational Function Optimizer                |
      ----------------------------------------------------------- 
      ----------------------------------------------------------- 
     |                   =====================                   |
     |                        A N C O P T                        |
     |                   =====================                   |
     |               Approximate Normal Coordinate               |
     |                Rational Function Optimizer                |
      ----------------------------------------------------------- 

          ...................................................
          :                      SETUP                      :
          :.................................................:
          :   optimization level            normal          :
          :   max. optcycles                   200          :
          :   ANC micro-cycles                  20          :
          :   degrees of freedom               165          :
          :.................................................:
          :   RF solver                   davidson          :
          :   write xtbopt.log                true          :
          :   linear?                        false          :
          :   energy convergence         0.5000000E-05 Eh   :
          :   grad. convergence          0.1000000E-02 Eh/α :
          :   maxmium RF displ.          1.0000000          :
          :   Hlow (freq-cutoff)         0.1000000E-01      :
          :   Hmax (freq-cutoff)         5.0000000          :
          :   S6 in model hess.         20.0000000          :
          ...................................................

generating ANC from exact Hessian ...
Using Lindh-Hessian (1995)
 Shifting diagonal of input Hessian by    9.8193529945545949E-003
 Lowest  eigenvalues of input Hessian
    0.000000    0.000000    0.000000    0.000000    0.000000    0.000000
    0.010000    0.010126    0.010173    0.010349    0.010850    0.011030
    0.011397    0.011530    0.012043    0.013208    0.014073    0.015016
 Highest eigenvalues
    2.038926    2.072273    2.183193    2.221835    2.285956    2.444701


........................................................................
.............................. CYCLE    1 ..............................
........................................................................

 iter      E             dE          RMSdq      gap      omega  full diag
   1    -91.8185854 -0.918186E+02  0.106E-04    3.25       0.0  T
   2    -91.8185854 -0.118703E-09  0.701E-05    3.25     188.9  T
   3    -91.8185854 -0.124814E-09  0.441E-05    3.25     300.0  T
     SCC iter.                  ...        0 min,  0.013 sec
     gradient                   ...        0 min,  0.042 sec
 * total energy  :   -90.5600332 Eh     change       -0.1739551E-08 Eh
   gradient norm :     0.0982926 Eh/α   predicted     0.0000000E+00 (-100.00%)
   displ. norm   :     0.3459231 α      lambda       -0.1604803E-01
   maximum displ.:     0.1283719 α      in ANC's #43, #31, #35, ...

........................................................................
.............................. CYCLE    2 ..............................
........................................................................

 iter      E             dE          RMSdq      gap      omega  full diag
   1    -91.8575079 -0.918575E+02  0.202E-01    3.33       0.0  T
   2    -91.8577112 -0.203288E-03  0.125E-01    3.32       1.0  T
   3    -91.8576682  0.430169E-04  0.662E-02    3.32       1.0  T
   4    -91.8577665 -0.983178E-04  0.171E-02    3.32       1.0  T
   5    -91.8577805 -0.139554E-04  0.408E-03    3.32       3.2  T
   6    -91.8577807 -0.197916E-06  0.184E-03    3.32       7.2  T
   7    -91.8577807 -0.441364E-07  0.657E-04    3.32      20.2  T
   8    -91.8577807 -0.923700E-08  0.232E-04    3.32      57.1  T
     SCC iter.                  ...        0 min,  0.030 sec
     gradient                   ...        0 min,  0.042 sec
 * total energy  :   -90.5711283 Eh     change       -0.1109509E-01 Eh
   gradient norm :     0.0470319 Eh/α   predicted    -0.8993656E-02 ( -18.94%)
   displ. norm   :     0.3010717 α      lambda       -0.5007778E-02
   maximum displ.:     0.1116422 α      in ANC's #14, #16, #31, ...

........................................................................
.............................. CYCLE    3 ..............................
........................................................................

 iter      E             dE          RMSdq      gap      omega  full diag
   1    -91.8789210 -0.918789E+02  0.130E-01    3.34       0.0  T
   2    -91.8790417 -0.120673E-03  0.804E-02    3.34       1.0  T
   3    -91.8790461 -0.439428E-05  0.465E-02    3.34       1.0  T
   4    -91.8790781 -0.320239E-04  0.129E-02    3.34       1.0  T
   5    -91.8790860 -0.794836E-05  0.248E-03    3.34       5.3  T
   6    -91.8790861 -0.849974E-07  0.114E-03    3.34      11.6  T
   7    -91.8790861 -0.130541E-07  0.414E-04    3.34      32.0  T
   8    -91.8790861 -0.368017E-08  0.160E-04    3.34      82.6  T
     SCC iter.                  ...        0 min,  0.030 sec
     gradient                   ...        0 min,  0.042 sec
 * total energy  :   -90.5741813 Eh     change       -0.3052999E-02 Eh
   gradient norm :     0.0174204 Eh/α   predicted    -0.2732156E-02 ( -10.51%)
   displ. norm   :     0.2321877 α      lambda       -0.1015426E-02
   maximum displ.:     0.1068879 α      in ANC's #14, #16, #9, ...

........................................................................
.............................. CYCLE    4 ..............................
........................................................................

 iter      E             dE          RMSdq      gap      omega  full diag
   1    -91.8818954 -0.918819E+02  0.588E-02    3.33       0.0  T
   2    -91.8819138 -0.183243E-04  0.347E-02    3.32       1.0  T
   3    -91.8819119  0.182465E-05  0.204E-02    3.33       1.0  T
   4    -91.8819201 -0.819744E-05  0.470E-03    3.32       2.8  T
   5    -91.8819213 -0.111319E-05  0.939E-04    3.32      14.1  T
   6    -91.8819213 -0.109931E-07  0.479E-04    3.32      27.6  T
   7    -91.8819213 -0.280892E-08  0.173E-04    3.32      76.4  T
     SCC iter.                  ...        0 min,  0.026 sec
     gradient                   ...        0 min,  0.042 sec
 * total energy  :   -90.5749433 Eh     change       -0.7620583E-03 Eh
   gradient norm :     0.0102666 Eh/α   predicted    -0.5350896E-03 ( -29.78%)
   displ. norm   :     0.3425847 α      lambda       -0.8874910E-03
   maximum displ.:     0.1433150 α      in ANC's #14, #6, #7, ...

........................................................................
.............................. CYCLE    5 ..............................
........................................................................

 iter      E             dE          RMSdq      gap      omega  full diag
   1    -91.8813247 -0.918813E+02  0.829E-02    3.31       0.0  T
   2    -91.8813400 -0.153267E-04  0.479E-02    3.31       1.0  T
   3    -91.8813266  0.134202E-04  0.242E-02    3.31       1.0  T
   4    -91.8813457 -0.191036E-04  0.423E-03    3.31       3.1  T
   5    -91.8813466 -0.883254E-06  0.115E-03    3.31      11.6  T
   6    -91.8813466 -0.809935E-08  0.571E-04    3.31      23.2  T
   7    -91.8813466 -0.519216E-08  0.181E-04    3.31      73.0  T
     SCC iter.                  ...        0 min,  0.026 sec
     gradient                   ...        0 min,  0.042 sec
 * total energy  :   -90.5755583 Eh     change       -0.6149354E-03 Eh
   gradient norm :     0.0078401 Eh/α   predicted    -0.4958268E-03 ( -19.37%)
   displ. norm   :     0.3001904 α      lambda       -0.4397576E-03
   maximum displ.:     0.1271239 α      in ANC's #6, #7, #8, ...

........................................................................
.............................. CYCLE    6 ..............................
........................................................................

 iter      E             dE          RMSdq      gap      omega  full diag
   1    -91.8802015 -0.918802E+02  0.766E-02    3.30       0.0  T
   2    -91.8802074 -0.593837E-05  0.443E-02    3.30       1.0  T
   3    -91.8801996  0.781056E-05  0.152E-02    3.30       1.0  T
   4    -91.8802092 -0.956654E-05  0.278E-03    3.29       4.8  T
   5    -91.8802095 -0.333278E-06  0.957E-04    3.29      13.8  T
   6    -91.8802095 -0.393929E-08  0.413E-04    3.30      32.0  T
     SCC iter.                  ...        0 min,  0.025 sec
     gradient                   ...        0 min,  0.042 sec
 * total energy  :   -90.5758824 Eh     change       -0.3240870E-03 Eh
   gradient norm :     0.0076001 Eh/α   predicted    -0.2396970E-03 ( -26.04%)
   displ. norm   :     0.3254669 α      lambda       -0.3648453E-03
   maximum displ.:     0.1501132 α      in ANC's #6, #8, #7, ...

........................................................................
.............................. CYCLE    7 ..............................
........................................................................

 iter      E             dE          RMSdq      gap      omega  full diag
   1    -91.8796556 -0.918797E+02  0.874E-02    3.29       0.0  T
   2    -91.8796613 -0.563408E-05  0.508E-02    3.29       1.0  T
   3    -91.8796561  0.518690E-05  0.121E-02    3.29       1.1  T
   4    -91.8796625 -0.639979E-05  0.274E-03    3.29       4.8  T
   5    -91.8796628 -0.287193E-06  0.104E-03    3.29      12.7  T
   6    -91.8796628 -0.712936E-08  0.453E-04    3.29      29.2  T
   7    -91.8796628 -0.340007E-08  0.140E-04    3.29      94.6  T
     SCC iter.                  ...        0 min,  0.027 sec
     gradient                   ...        0 min,  0.047 sec
 * total energy  :   -90.5761591 Eh     change       -0.2767549E-03 Eh
   gradient norm :     0.0073594 Eh/α   predicted    -0.2017536E-03 ( -27.10%)
   displ. norm   :     0.3399860 α      lambda       -0.3316339E-03
   maximum displ.:     0.1627375 α      in ANC's #6, #8, #7, ...

........................................................................
.............................. CYCLE    8 ..............................
........................................................................

 iter      E             dE          RMSdq      gap      omega  full diag
   1    -91.8801131 -0.918801E+02  0.925E-02    3.28       0.0  T
   2    -91.8801196 -0.647915E-05  0.539E-02    3.28       1.0  T
   3    -91.8801158  0.382632E-05  0.106E-02    3.28       1.3  T
   4    -91.8801207 -0.491526E-05  0.279E-03    3.28       4.7  T
   5    -91.8801210 -0.288850E-06  0.111E-03    3.28      12.0  T
   6    -91.8801210 -0.983015E-08  0.536E-04    3.28      24.7  T
   7    -91.8801210 -0.543733E-08  0.152E-04    3.28      87.0  T
     SCC iter.                  ...        0 min,  0.027 sec
     gradient                   ...        0 min,  0.051 sec
 * total energy  :   -90.5764157 Eh     change       -0.2566141E-03 Eh
   gradient norm :     0.0075079 Eh/α   predicted    -0.1849840E-03 ( -27.91%)
   displ. norm   :     0.3483573 α      lambda       -0.3040402E-03
   maximum displ.:     0.1728022 α      in ANC's #6, #8, #5, ...

........................................................................
.............................. CYCLE    9 ..............................
........................................................................

 iter      E             dE          RMSdq      gap      omega  full diag
   1    -91.8814526 -0.918815E+02  0.931E-02    3.28       0.0  T
   2    -91.8814596 -0.694662E-05  0.544E-02    3.28       1.0  T
   3    -91.8814563  0.325966E-05  0.992E-03    3.28       1.3  T
   4    -91.8814606 -0.430576E-05  0.275E-03    3.27       4.8  T
   5    -91.8814609 -0.279315E-06  0.111E-03    3.28      11.9  T
   6    -91.8814609 -0.987771E-08  0.560E-04    3.28      23.6  T
   7    -91.8814609 -0.647471E-08  0.148E-04    3.28      89.5  T
     SCC iter.                  ...        0 min,  0.057 sec
     gradient                   ...        0 min,  0.042 sec
 * total energy  :   -90.5766507 Eh     change       -0.2349478E-03 Eh
   gradient norm :     0.0071962 Eh/α   predicted    -0.1704704E-03 ( -27.44%)
   displ. norm   :     0.3620069 α      lambda       -0.2607770E-03
   maximum displ.:     0.1867490 α      in ANC's #6, #8, #5, ...

........................................................................
.............................. CYCLE   10 ..............................
........................................................................

 iter      E             dE          RMSdq      gap      omega  full diag
   1    -91.8827148 -0.918827E+02  0.936E-02    3.27       0.0  T
   2    -91.8827215 -0.669266E-05  0.547E-02    3.27       1.0  T
   3    -91.8827188  0.271224E-05  0.946E-03    3.27       1.4  T
   4    -91.8827225 -0.371370E-05  0.271E-03    3.27       4.9  T
   5    -91.8827227 -0.264197E-06  0.112E-03    3.27      11.8  T
   6    -91.8827227 -0.104214E-07  0.530E-04    3.27      25.0  T
   7    -91.8827228 -0.563585E-08  0.142E-04    3.27      93.0  T
     SCC iter.                  ...        0 min,  0.060 sec
     gradient                   ...        0 min,  0.042 sec
 * total energy  :   -90.5768490 Eh     change       -0.1983062E-03 Eh
   gradient norm :     0.0060369 Eh/α   predicted    -0.1474765E-03 ( -25.63%)
   displ. norm   :     0.3429384 α      lambda       -0.2047516E-03
   maximum displ.:     0.1853254 α      in ANC's #6, #5, #8, ...

........................................................................
.............................. CYCLE   11 ..............................
........................................................................

 iter      E             dE          RMSdq      gap      omega  full diag
   1    -91.8840756 -0.918841E+02  0.848E-02    3.26       0.0  T
   2    -91.8840800 -0.442388E-05  0.495E-02    3.26       1.0  T
   3    -91.8840788  0.123329E-05  0.727E-03    3.26       1.8  T
   4    -91.8840808 -0.203397E-05  0.197E-03    3.26       6.7  T
   5    -91.8840809 -0.101592E-06  0.100E-03    3.26      13.2  T
   6    -91.8840809 -0.936714E-08  0.400E-04    3.26      33.1  T
   7    -91.8840809 -0.442523E-08  0.119E-04    3.26     111.5  T
     SCC iter.                  ...        0 min,  0.027 sec
     gradient                   ...        0 min,  0.076 sec
 * total energy  :   -90.5770028 Eh     change       -0.1538274E-03 Eh
   gradient norm :     0.0045889 Eh/α   predicted    -0.1144179E-03 ( -25.62%)
   displ. norm   :     0.3355302 α      lambda       -0.1566111E-03
   maximum displ.:     0.1876472 α      in ANC's #6, #5, #8, ...

........................................................................
.............................. CYCLE   12 ..............................
........................................................................

 iter      E             dE          RMSdq      gap      omega  full diag
   1    -91.8840931 -0.918841E+02  0.794E-02    3.25       0.0  T
   2    -91.8840968 -0.367864E-05  0.463E-02    3.25       1.0  T
   3    -91.8840950  0.176693E-05  0.787E-03    3.25       1.7  T
   4    -91.8840975 -0.251916E-05  0.214E-03    3.25       6.2  T
   5    -91.8840977 -0.144841E-06  0.966E-04    3.25      13.7  T
   6    -91.8840977 -0.791142E-08  0.336E-04    3.25      39.4  T
     SCC iter.                  ...        0 min,  0.023 sec
     gradient                   ...        0 min,  0.075 sec
 * total energy  :   -90.5771200 Eh     change       -0.1171448E-03 Eh
   gradient norm :     0.0044339 Eh/α   predicted    -0.8712520E-04 ( -25.63%)
   displ. norm   :     0.3161870 α      lambda       -0.1492598E-03
   maximum displ.:     0.1780697 α      in ANC's #6, #5, #8, ...

........................................................................
.............................. CYCLE   13 ..............................
........................................................................

 iter      E             dE          RMSdq      gap      omega  full diag
   1    -91.8861719 -0.918862E+02  0.682E-02    3.24       0.0  T
   2    -91.8861771 -0.516942E-05  0.398E-02    3.24       1.0  T
   3    -91.8861758  0.130917E-05  0.752E-03    3.24       1.8  T
   4    -91.8861778 -0.201419E-05  0.191E-03    3.24       6.9  T
   5    -91.8861779 -0.129728E-06  0.869E-04    3.24      15.3  T
   6    -91.8861779 -0.647515E-08  0.357E-04    3.24      37.1  T
     SCC iter.                  ...        0 min,  0.023 sec
     gradient                   ...        0 min,  0.075 sec
 * total energy  :   -90.5772096 Eh     change       -0.8967278E-04 Eh
   gradient norm :     0.0068110 Eh/α   predicted    -0.8210942E-04 (  -8.43%)
   displ. norm   :     0.3862742 α      lambda       -0.1348983E-03
   maximum displ.:     0.2200101 α      in ANC's #6, #5, #8, ...

........................................................................
.............................. CYCLE   14 ..............................
........................................................................

 iter      E             dE          RMSdq      gap      omega  full diag
   1    -91.8822729 -0.918823E+02  0.881E-02    3.23       0.0  T
   2    -91.8822789 -0.598979E-05  0.518E-02    3.23       1.0  T
   3    -91.8822705  0.841451E-05  0.145E-02    3.23       1.0  T
   4    -91.8822806 -0.101848E-04  0.286E-03    3.23       4.6  T
   5    -91.8822809 -0.267020E-06  0.113E-03    3.23      11.7  T
   6    -91.8822809 -0.839977E-08  0.457E-04    3.23      29.0  T
   7    -91.8822809 -0.164216E-08  0.144E-04    3.23      91.7  T
     SCC iter.                  ...        0 min,  0.060 sec
     gradient                   ...        0 min,  0.042 sec
 * total energy  :   -90.5772700 Eh     change       -0.6041492E-04 Eh
   gradient norm :     0.0056566 Eh/α   predicted    -0.7751658E-04 (  28.31%)
   displ. norm   :     0.0959039 α      lambda       -0.8946154E-04
   maximum displ.:     0.0460755 α      in ANC's #7, #9, #2, ...

........................................................................
.............................. CYCLE   15 ..............................
........................................................................

 iter      E             dE          RMSdq      gap      omega  full diag
   1    -91.8847773 -0.918848E+02  0.196E-02    3.23       0.0  T
   2    -91.8847778 -0.526704E-06  0.114E-02    3.23       1.2  T
   3    -91.8847776  0.188994E-06  0.286E-03    3.23       4.6  T
   4    -91.8847779 -0.281771E-06  0.669E-04    3.23      19.8  T
   5    -91.8847779 -0.972295E-08  0.279E-04    3.23      47.5  T
     SCC iter.                  ...        0 min,  0.048 sec
     gradient                   ...        0 min,  0.042 sec
 * total energy  :   -90.5773238 Eh     change       -0.5377570E-04 Eh
   gradient norm :     0.0044704 Eh/α   predicted    -0.4514470E-04 ( -16.05%)
   displ. norm   :     0.1691244 α      lambda       -0.1008753E-03
   maximum displ.:     0.0781624 α      in ANC's #6, #2, #5, ...

........................................................................
.............................. CYCLE   16 ..............................
........................................................................

 iter      E             dE          RMSdq      gap      omega  full diag
   1    -91.8855189 -0.918855E+02  0.339E-02    3.23       0.0  T
   2    -91.8855207 -0.180136E-05  0.198E-02    3.23       1.0  T
   3    -91.8855195  0.120251E-05  0.723E-03    3.23       1.8  T
   4    -91.8855211 -0.159003E-05  0.137E-03    3.23       9.7  T
   5    -91.8855212 -0.814389E-07  0.482E-04    3.23      27.5  T
   6    -91.8855212 -0.322233E-08  0.189E-04    3.23      70.1  T
     SCC iter.                  ...        0 min,  0.056 sec
     gradient                   ...        0 min,  0.042 sec
 * total energy  :   -90.5773767 Eh     change       -0.5286460E-04 Eh
   gradient norm :     0.0040036 Eh/α   predicted    -0.5188241E-04 (  -1.86%)
   displ. norm   :     0.1604623 α      lambda       -0.4442123E-04
   maximum displ.:     0.0821158 α      in ANC's #6, #5, #2, ...

........................................................................
.............................. CYCLE   17 ..............................
........................................................................

 iter      E             dE          RMSdq      gap      omega  full diag
   1    -91.8847840 -0.918848E+02  0.303E-02    3.23       0.0  T
   2    -91.8847849 -0.834627E-06  0.176E-02    3.23       1.0  T
   3    -91.8847845  0.395727E-06  0.349E-03    3.23       3.8  T
   4    -91.8847850 -0.494127E-06  0.113E-03    3.22      11.7  T
   5    -91.8847850 -0.490590E-07  0.348E-04    3.23      38.1  T
   6    -91.8847850 -0.593460E-09  0.164E-04    3.23      80.7  T
     SCC iter.                  ...        0 min,  0.023 sec
     gradient                   ...        0 min,  0.042 sec
 * total energy  :   -90.5774112 Eh     change       -0.3452363E-04 Eh
   gradient norm :     0.0029976 Eh/α   predicted    -0.2278374E-04 ( -34.01%)
   displ. norm   :     0.1591467 α      lambda       -0.5213034E-04
   maximum displ.:     0.0872032 α      in ANC's #2, #1, #6, ...

........................................................................
.............................. CYCLE   18 ..............................
........................................................................

 iter      E             dE          RMSdq      gap      omega  full diag
   1    -91.8845711 -0.918846E+02  0.274E-02    3.23       0.0  T
   2    -91.8845725 -0.140944E-05  0.160E-02    3.23       1.0  T
   3    -91.8845718  0.680287E-06  0.457E-03    3.23       2.9  T
   4    -91.8845726 -0.801575E-06  0.152E-03    3.23       8.7  T
   5    -91.8845727 -0.994960E-07  0.338E-04    3.23      39.1  T
   6    -91.8845727 -0.666205E-09  0.165E-04    3.23      80.4  T
     SCC iter.                  ...        0 min,  0.023 sec
     gradient                   ...        0 min,  0.076 sec
 * total energy  :   -90.5774503 Eh     change       -0.3907525E-04 Eh
   gradient norm :     0.0026076 Eh/α   predicted    -0.2672751E-04 ( -31.60%)
   displ. norm   :     0.1711070 α      lambda       -0.4661910E-04
   maximum displ.:     0.1040505 α      in ANC's #2, #1, #5, ...

........................................................................
.............................. CYCLE   19 ..............................
........................................................................

 iter      E             dE          RMSdq      gap      omega  full diag
   1    -91.8844031 -0.918844E+02  0.280E-02    3.22       0.0  T
   2    -91.8844034 -0.375013E-06  0.164E-02    3.22       1.0  T
   3    -91.8844032  0.243972E-06  0.254E-03    3.22       5.2  T
   4    -91.8844035 -0.338104E-06  0.663E-04    3.22      20.0  T
   5    -91.8844035 -0.124343E-07  0.325E-04    3.22      40.8  T
     SCC iter.                  ...        0 min,  0.019 sec
     gradient                   ...        0 min,  0.075 sec
 * total energy  :   -90.5774860 Eh     change       -0.3568206E-04 Eh
   gradient norm :     0.0025739 Eh/α   predicted    -0.2399342E-04 ( -32.76%)
   displ. norm   :     0.1595045 α      lambda       -0.4782934E-04
   maximum displ.:     0.1090180 α      in ANC's #2, #1, #3, ...

........................................................................
.............................. CYCLE   20 ..............................
........................................................................

 iter      E             dE          RMSdq      gap      omega  full diag
   1    -91.8849094 -0.918849E+02  0.236E-02    3.23       0.0  T
   2    -91.8849105 -0.107354E-05  0.139E-02    3.23       1.0  T
   3    -91.8849102  0.311776E-06  0.369E-03    3.23       3.6  T
   4    -91.8849106 -0.471922E-06  0.781E-04    3.23      17.0  T
   5    -91.8849107 -0.250657E-07  0.323E-04    3.23      41.0  T
     SCC iter.                  ...        0 min,  0.019 sec
     gradient                   ...        0 min,  0.081 sec
 * total energy  :   -90.5775209 Eh     change       -0.3495054E-04 Eh
   gradient norm :     0.0028644 Eh/α   predicted    -0.2452480E-04 ( -29.83%)
   displ. norm   :     0.2011013 α      lambda       -0.5239738E-04
   maximum displ.:     0.1328959 α      in ANC's #2, #1, #5, ...
 * RMSD in coord.:     0.5404016 α      energy gain  -0.1748772E-01 Eh

generating ANC from exact Hessian ...
Using Lindh-Hessian (1995)
 Shifting diagonal of input Hessian by    9.8205980036393907E-003
 Lowest  eigenvalues of input Hessian
    0.000000    0.000000    0.000000    0.000000    0.000000    0.000000
    0.010000    0.010147    0.010207    0.010369    0.010890    0.011025
    0.011153    0.011642    0.011995    0.013354    0.014624    0.015119
 Highest eigenvalues
    2.116619    2.143097    2.202124    2.231483    2.305982    2.444237


........................................................................
.............................. CYCLE   21 ..............................
........................................................................

 iter      E             dE          RMSdq      gap      omega  full diag
   1    -91.8845875 -0.918846E+02  0.313E-02    3.23       0.0  T
   2    -91.8845886 -0.108138E-05  0.184E-02    3.23       1.0  T
   3    -91.8845871  0.144977E-05  0.602E-03    3.23       2.2  T
   4    -91.8845888 -0.171903E-05  0.113E-03    3.23      11.8  T
   5    -91.8845889 -0.491459E-07  0.356E-04    3.23      37.2  T
   6    -91.8845889 -0.671974E-09  0.173E-04    3.23      76.5  T
     SCC iter.                  ...        0 min,  0.023 sec
     gradient                   ...        0 min,  0.042 sec
 * total energy  :   -90.5775611 Eh     change       -0.4022582E-04 Eh
   gradient norm :     0.0025681 Eh/α   predicted     0.0000000E+00 (-100.00%)
   displ. norm   :     0.0337155 α      lambda       -0.1972926E-04
   maximum displ.:     0.0210985 α      in ANC's #2, #6, #1, ...

........................................................................
.............................. CYCLE   22 ..............................
........................................................................

 iter      E             dE          RMSdq      gap      omega  full diag
   1    -91.8849979 -0.918850E+02  0.603E-03    3.23       0.0  T
   2    -91.8849980 -0.487644E-07  0.351E-03    3.23       3.8  T
   3    -91.8849979  0.360054E-07  0.114E-03    3.23      11.6  T
   4    -91.8849980 -0.474155E-07  0.232E-04    3.23      57.1  T
   5    -91.8849980 -0.176091E-08  0.110E-04    3.23     120.1  T
     SCC iter.                  ...        0 min,  0.019 sec
     gradient                   ...        0 min,  0.042 sec
 * total energy  :   -90.5775804 Eh     change       -0.1928992E-04 Eh
   gradient norm :     0.0014139 Eh/α   predicted    -0.1112351E-04 ( -42.34%)
   displ. norm   :     0.1729799 α      lambda       -0.5291127E-04
   maximum displ.:     0.1055236 α      in ANC's #2, #6, #1, ...

........................................................................
.............................. CYCLE   23 ..............................
........................................................................

 iter      E             dE          RMSdq      gap      omega  full diag
   1    -91.8856053 -0.918856E+02  0.259E-02    3.23       0.0  T
   2    -91.8856061 -0.804695E-06  0.150E-02    3.23       1.0  T
   3    -91.8856054  0.723719E-06  0.507E-03    3.23       2.6  T
   4    -91.8856064 -0.948394E-06  0.978E-04    3.23      13.5  T
   5    -91.8856064 -0.291894E-07  0.461E-04    3.23      28.8  T
     SCC iter.                  ...        0 min,  0.019 sec
     gradient                   ...        0 min,  0.075 sec
 * total energy  :   -90.5776222 Eh     change       -0.4177396E-04 Eh
   gradient norm :     0.0030771 Eh/α   predicted    -0.2680840E-04 ( -35.83%)
   displ. norm   :     0.0470939 α      lambda       -0.1541295E-04
   maximum displ.:     0.0334302 α      in ANC's #2, #1, #6, ...

........................................................................
.............................. CYCLE   24 ..............................
........................................................................

 iter      E             dE          RMSdq      gap      omega  full diag
   1    -91.8854527 -0.918855E+02  0.541E-03    3.23       0.0  T
   2    -91.8854527 -0.352419E-07  0.320E-03    3.23       4.1  T
   3    -91.8854527  0.199682E-07  0.818E-04    3.23      16.2  T
   4    -91.8854527 -0.261815E-07  0.213E-04    3.23      62.2  T
     SCC iter.                  ...        0 min,  0.015 sec
     gradient                   ...        0 min,  0.072 sec
 * total energy  :   -90.5776365 Eh     change       -0.1433648E-04 Eh
   gradient norm :     0.0025097 Eh/α   predicted    -0.7725371E-05 ( -46.11%)
   displ. norm   :     0.1027842 α      lambda       -0.3697836E-04
   maximum displ.:     0.0718681 α      in ANC's #2, #1, #6, ...

........................................................................
.............................. CYCLE   25 ..............................
........................................................................

 iter      E             dE          RMSdq      gap      omega  full diag
   1    -91.8851534 -0.918852E+02  0.118E-02    3.22       0.0  T
   2    -91.8851536 -0.183123E-06  0.699E-03    3.22       1.9  T
   3    -91.8851535  0.938452E-07  0.159E-03    3.22       8.3  T
   4    -91.8851536 -0.121177E-06  0.444E-04    3.22      29.8  T
   5    -91.8851536 -0.772405E-08  0.187E-04    3.22      71.0  T
     SCC iter.                  ...        0 min,  0.019 sec
     gradient                   ...        0 min,  0.078 sec
 * total energy  :   -90.5776661 Eh     change       -0.2957995E-04 Eh
   gradient norm :     0.0008639 Eh/α   predicted    -0.1869408E-04 ( -36.80%)
   displ. norm   :     0.1937963 α      lambda       -0.2923074E-04
   maximum displ.:     0.1365830 α      in ANC's #2, #1, #6, ...

........................................................................
.............................. CYCLE   26 ..............................
........................................................................

 iter      E             dE          RMSdq      gap      omega  full diag
   1    -91.8847907 -0.918848E+02  0.206E-02    3.22       0.0  T
   2    -91.8847910 -0.327322E-06  0.121E-02    3.22       1.1  T
   3    -91.8847908  0.186040E-06  0.219E-03    3.22       6.0  T
   4    -91.8847911 -0.249301E-06  0.623E-04    3.22      21.3  T
   5    -91.8847911 -0.115929E-07  0.286E-04    3.22      46.3  T
     SCC iter.                  ...        0 min,  0.019 sec
     gradient                   ...        0 min,  0.081 sec
 * total energy  :   -90.5776975 Eh     change       -0.3136168E-04 Eh
   gradient norm :     0.0025731 Eh/α   predicted    -0.1486131E-04 ( -52.61%)
   displ. norm   :     0.0792427 α      lambda       -0.1648015E-04
   maximum displ.:     0.0575072 α      in ANC's #2, #1, #4, ...

........................................................................
.............................. CYCLE   27 ..............................
........................................................................

 iter      E             dE          RMSdq      gap      omega  full diag
   1    -91.8849001 -0.918849E+02  0.816E-03    3.22       0.0  T
   2    -91.8849001 -0.249081E-07  0.479E-03    3.22       2.8  T
   3    -91.8849001  0.504072E-08  0.491E-04    3.22      27.0  T
   4    -91.8849001 -0.110518E-07  0.189E-04    3.22      70.0  T
     SCC iter.                  ...        0 min,  0.015 sec
     gradient                   ...        0 min,  0.075 sec
 * total energy  :   -90.5777133 Eh     change       -0.1585654E-04 Eh
   gradient norm :     0.0023955 Eh/α   predicted    -0.8294681E-05 ( -47.69%)
   displ. norm   :     0.0955566 α      lambda       -0.2668875E-04
   maximum displ.:     0.0692915 α      in ANC's #2, #1, #4, ...

........................................................................
.............................. CYCLE   28 ..............................
........................................................................

 iter      E             dE          RMSdq      gap      omega  full diag
   1    -91.8852224 -0.918852E+02  0.108E-02    3.22       0.0  T
   2    -91.8852225 -0.627038E-07  0.636E-03    3.22       2.1  T
   3    -91.8852225  0.117429E-07  0.727E-04    3.22      18.2  T
   4    -91.8852225 -0.224361E-07  0.261E-04    3.22      50.7  T
     SCC iter.                  ...        0 min,  0.015 sec
     gradient                   ...        0 min,  0.065 sec
 * total energy  :   -90.5777381 Eh     change       -0.2477706E-04 Eh
   gradient norm :     0.0013771 Eh/α   predicted    -0.1346721E-04 ( -45.65%)
   displ. norm   :     0.2362610 α      lambda       -0.4058542E-04
   maximum displ.:     0.1694088 α      in ANC's #2, #1, #4, ...

........................................................................
.............................. CYCLE   29 ..............................
........................................................................

 iter      E             dE          RMSdq      gap      omega  full diag
   1    -91.8856244 -0.918856E+02  0.279E-02    3.22       0.0  T
   2    -91.8856247 -0.367032E-06  0.164E-02    3.22       1.0  T
   3    -91.8856247  0.616376E-07  0.177E-03    3.22       7.5  T
   4    -91.8856248 -0.130598E-06  0.644E-04    3.22      20.6  T
   5    -91.8856248 -0.100839E-07  0.302E-04    3.22      43.9  T
     SCC iter.                  ...        0 min,  0.019 sec
     gradient                   ...        0 min,  0.065 sec
 * total energy  :   -90.5777884 Eh     change       -0.5033001E-04 Eh
   gradient norm :     0.0014843 Eh/α   predicted    -0.2079849E-04 ( -58.68%)
   displ. norm   :     0.2451750 α      lambda       -0.3230108E-04
   maximum displ.:     0.1748236 α      in ANC's #2, #1, #4, ...

........................................................................
.............................. CYCLE   30 ..............................
........................................................................

 iter      E             dE          RMSdq      gap      omega  full diag
   1    -91.8856138 -0.918856E+02  0.293E-02    3.22       0.0  T
   2    -91.8856141 -0.240932E-06  0.172E-02    3.22       1.0  T
   3    -91.8856140  0.360925E-07  0.155E-03    3.22       8.5  T
   4    -91.8856141 -0.104620E-06  0.588E-04    3.22      22.5  T
   5    -91.8856141 -0.592949E-08  0.262E-04    3.22      50.6  T
     SCC iter.                  ...        0 min,  0.019 sec
     gradient                   ...        0 min,  0.069 sec
 * total energy  :   -90.5778324 Eh     change       -0.4392136E-04 Eh
   gradient norm :     0.0024260 Eh/α   predicted    -0.1658610E-04 ( -62.24%)
   displ. norm   :     0.1739326 α      lambda       -0.3429258E-04
   maximum displ.:     0.1228997 α      in ANC's #2, #1, #4, ...

........................................................................
.............................. CYCLE   31 ..............................
........................................................................

 iter      E             dE          RMSdq      gap      omega  full diag
   1    -91.8855851 -0.918856E+02  0.215E-02    3.22       0.0  T
   2    -91.8855852 -0.111242E-06  0.126E-02    3.22       1.1  T
   3    -91.8855851  0.284113E-07  0.118E-03    3.22      11.2  T
   4    -91.8855852 -0.657042E-07  0.412E-04    3.22      32.1  T
   5    -91.8855852 -0.223105E-08  0.179E-04    3.22      73.9  T
     SCC iter.                  ...        0 min,  0.019 sec
     gradient                   ...        0 min,  0.075 sec
 * total energy  :   -90.5778653 Eh     change       -0.3288730E-04 Eh
   gradient norm :     0.0023308 Eh/α   predicted    -0.1766639E-04 ( -46.28%)
   displ. norm   :     0.2464769 α      lambda       -0.4983265E-04
   maximum displ.:     0.1727480 α      in ANC's #2, #1, #4, ...

........................................................................
.............................. CYCLE   32 ..............................
........................................................................

 iter      E             dE          RMSdq      gap      omega  full diag
   1    -91.8853904 -0.918854E+02  0.313E-02    3.22       0.0  T
   2    -91.8853906 -0.255529E-06  0.183E-02    3.22       1.0  T
   3    -91.8853905  0.756436E-07  0.181E-03    3.22       7.3  T
   4    -91.8853907 -0.157472E-06  0.609E-04    3.22      21.7  T
   5    -91.8853907 -0.497064E-08  0.279E-04    3.22      47.4  T
     SCC iter.                  ...        0 min,  0.052 sec
     gradient                   ...        0 min,  0.042 sec
 * total energy  :   -90.5779120 Eh     change       -0.4672480E-04 Eh
   gradient norm :     0.0017187 Eh/α   predicted    -0.2643368E-04 ( -43.43%)
   displ. norm   :     0.5154236 α      lambda       -0.6453505E-04
   maximum displ.:     0.3607144 α      in ANC's #2, #1, #5, ...

........................................................................
.............................. CYCLE   33 ..............................
........................................................................

 iter      E             dE          RMSdq      gap      omega  full diag
   1    -91.8843745 -0.918844E+02  0.661E-02    3.22       0.0  T
   2    -91.8843757 -0.123183E-05  0.388E-02    3.21       1.0  T
   3    -91.8843755  0.266503E-06  0.367E-03    3.22       3.6  T
   4    -91.8843761 -0.631141E-06  0.132E-03    3.21      10.0  T
   5    -91.8843761 -0.262538E-07  0.631E-04    3.21      21.0  T
   6    -91.8843761 -0.391282E-08  0.192E-04    3.21      68.9  T
     SCC iter.                  ...        0 min,  0.056 sec
     gradient                   ...        0 min,  0.042 sec
 * total energy  :   -90.5779937 Eh     change       -0.8174633E-04 Eh
   gradient norm :     0.0014984 Eh/α   predicted    -0.3608190E-04 ( -55.86%)
   displ. norm   :     0.4753674 α      lambda       -0.4819528E-04
   maximum displ.:     0.3342610 α      in ANC's #2, #1, #5, ...

........................................................................
.............................. CYCLE   34 ..............................
........................................................................

 iter      E             dE          RMSdq      gap      omega  full diag
   1    -91.8839630 -0.918840E+02  0.602E-02    3.21       0.0  T
   2    -91.8839640 -0.979254E-06  0.353E-02    3.21       1.0  T
   3    -91.8839639  0.112396E-06  0.316E-03    3.21       4.2  T
   4    -91.8839643 -0.410977E-06  0.122E-03    3.21      10.9  T
   5    -91.8839643 -0.187555E-07  0.557E-04    3.21      23.8  T
   6    -91.8839643 -0.459249E-08  0.162E-04    3.21      81.9  T
     SCC iter.                  ...        0 min,  0.023 sec
     gradient                   ...        0 min,  0.042 sec
 * total energy  :   -90.5780544 Eh     change       -0.6066949E-04 Eh
   gradient norm :     0.0023479 Eh/α   predicted    -0.2652055E-04 ( -56.29%)
   displ. norm   :     0.3017712 α      lambda       -0.4325652E-04
   maximum displ.:     0.2137712 α      in ANC's #2, #1, #5, ...

........................................................................
.............................. CYCLE   35 ..............................
........................................................................

 iter      E             dE          RMSdq      gap      omega  full diag
   1    -91.8841523 -0.918842E+02  0.377E-02    3.21       0.0  T
   2    -91.8841527 -0.399139E-06  0.221E-02    3.21       1.0  T
   3    -91.8841525  0.192011E-06  0.274E-03    3.21       4.8  T
   4    -91.8841528 -0.325451E-06  0.852E-04    3.21      15.5  T
   5    -91.8841528 -0.986495E-08  0.394E-04    3.21      33.6  T
     SCC iter.                  ...        0 min,  0.019 sec
     gradient                   ...        0 min,  0.042 sec
 * total energy  :   -90.5780937 Eh     change       -0.3927303E-04 Eh
   gradient norm :     0.0025211 Eh/α   predicted    -0.2359913E-04 ( -39.91%)
   displ. norm   :     0.4104175 α      lambda       -0.6193332E-04
   maximum displ.:     0.2921508 α      in ANC's #2, #1, #5, ...

........................................................................
.............................. CYCLE   36 ..............................
........................................................................

 iter      E             dE          RMSdq      gap      omega  full diag
   1    -91.8844827 -0.918845E+02  0.507E-02    3.21       0.0  T
   2    -91.8844835 -0.764888E-06  0.297E-02    3.20       1.0  T
   3    -91.8844831  0.358595E-06  0.376E-03    3.21       3.5  T
   4    -91.8844837 -0.606938E-06  0.119E-03    3.20      11.1  T
   5    -91.8844837 -0.200208E-07  0.548E-04    3.20      24.2  T
   6    -91.8844837 -0.382849E-08  0.170E-04    3.20      77.8  T
     SCC iter.                  ...        0 min,  0.023 sec
     gradient                   ...        0 min,  0.069 sec
 * total energy  :   -90.5781491 Eh     change       -0.5542441E-04 Eh
   gradient norm :     0.0024788 Eh/α   predicted    -0.3618534E-04 ( -34.71%)
   displ. norm   :     0.5149938 α      lambda       -0.7718204E-04
   maximum displ.:     0.3687250 α      in ANC's #2, #1, #5, ...

........................................................................
.............................. CYCLE   37 ..............................
........................................................................

 iter      E             dE          RMSdq      gap      omega  full diag
   1    -91.8844098 -0.918844E+02  0.634E-02    3.20       0.0  T
   2    -91.8844109 -0.110630E-05  0.372E-02    3.20       1.0  T
   3    -91.8844109  0.168034E-07  0.317E-03    3.20       4.2  T
   4    -91.8844113 -0.345800E-06  0.143E-03    3.20       9.3  T
   5    -91.8844113 -0.312300E-07  0.611E-04    3.20      21.7  T
   6    -91.8844113 -0.528178E-08  0.187E-04    3.20      71.0  T
     SCC iter.                  ...        0 min,  0.023 sec
     gradient                   ...        0 min,  0.056 sec
 * total energy  :   -90.5782172 Eh     change       -0.6814033E-04 Eh
   gradient norm :     0.0023823 Eh/α   predicted    -0.4883196E-04 ( -28.34%)
   displ. norm   :     0.5494471 α      lambda       -0.8593968E-04
   maximum displ.:     0.3961201 α      in ANC's #2, #1, #5, ...

........................................................................
.............................. CYCLE   38 ..............................
........................................................................

 iter      E             dE          RMSdq      gap      omega  full diag
   1    -91.8845809 -0.918846E+02  0.675E-02    3.20       0.0  T
   2    -91.8845821 -0.126231E-05  0.397E-02    3.20       1.0  T
   3    -91.8845820  0.155010E-06  0.377E-03    3.20       3.5  T
   4    -91.8845825 -0.529943E-06  0.159E-03    3.20       8.3  T
   5    -91.8845826 -0.435874E-07  0.689E-04    3.20      19.2  T
   6    -91.8845826 -0.560969E-08  0.201E-04    3.20      65.9  T
     SCC iter.                  ...        0 min,  0.023 sec
     gradient                   ...        0 min,  0.069 sec
 * total energy  :   -90.5782919 Eh     change       -0.7470247E-04 Eh
   gradient norm :     0.0020856 Eh/α   predicted    -0.5594784E-04 ( -25.11%)
   displ. norm   :     0.4933809 α      lambda       -0.8664586E-04
   maximum displ.:     0.3568189 α      in ANC's #2, #1, #5, ...

........................................................................
.............................. CYCLE   39 ..............................
........................................................................

 iter      E             dE          RMSdq      gap      omega  full diag
   1    -91.8855424 -0.918855E+02  0.623E-02    3.20       0.0  T
   2    -91.8855439 -0.150479E-05  0.366E-02    3.20       1.0  T
   3    -91.8855425  0.134039E-05  0.610E-03    3.20       2.2  T
   4    -91.8855443 -0.177934E-05  0.160E-03    3.20       8.3  T
   5    -91.8855443 -0.513329E-07  0.749E-04    3.20      17.7  T
   6    -91.8855444 -0.313881E-08  0.243E-04    3.20      54.5  T
     SCC iter.                  ...        0 min,  0.023 sec
     gradient                   ...        0 min,  0.065 sec
 * total energy  :   -90.5783669 Eh     change       -0.7494431E-04 Eh
   gradient norm :     0.0013746 Eh/α   predicted    -0.5386948E-04 ( -28.12%)
   displ. norm   :     0.8636948 α      lambda       -0.9067328E-04
   maximum displ.:     0.6258569 α      in ANC's #2, #1, #5, ...

........................................................................
.............................. CYCLE   40 ..............................
........................................................................

 iter      E             dE          RMSdq      gap      omega  full diag
   1    -91.8839767 -0.918840E+02  0.111E-01    3.20       0.0  T
   2    -91.8839797 -0.301287E-05  0.655E-02    3.20       1.0  T
   3    -91.8839789  0.870768E-06  0.639E-03    3.20       2.1  T
   4    -91.8839807 -0.183236E-05  0.264E-03    3.20       5.0  T
   5    -91.8839808 -0.136821E-06  0.111E-03    3.20      11.9  T
   6    -91.8839809 -0.122395E-07  0.269E-04    3.20      49.3  T
   7    -91.8839809 -0.145076E-08  0.129E-04    3.20     102.6  T
     SCC iter.                  ...        0 min,  0.027 sec
     gradient                   ...        0 min,  0.063 sec
 * total energy  :   -90.5784714 Eh     change       -0.1045505E-03 Eh
   gradient norm :     0.0024687 Eh/α   predicted    -0.6036927E-04 ( -42.26%)
   displ. norm   :     0.4411244 α      lambda       -0.9222356E-04
   maximum displ.:     0.3057787 α      in ANC's #2, #1, #5, ...

........................................................................
.............................. CYCLE   41 ..............................
........................................................................

 iter      E             dE          RMSdq      gap      omega  full diag
   1    -91.8862599 -0.918863E+02  0.634E-02    3.20       0.0  T
   2    -91.8862624 -0.254898E-05  0.376E-02    3.20       1.0  T
   3    -91.8862553  0.709493E-05  0.130E-02    3.20       1.0  T
   4    -91.8862637 -0.832763E-05  0.150E-03    3.20       8.8  T
   5    -91.8862637 -0.468360E-07  0.756E-04    3.20      17.5  T
   6    -91.8862637 -0.150128E-08  0.284E-04    3.20      46.6  T
     SCC iter.                  ...        0 min,  0.023 sec
     gradient                   ...        0 min,  0.063 sec
 * total energy  :   -90.5785369 Eh     change       -0.6542228E-04 Eh
   gradient norm :     0.0019582 Eh/α   predicted    -0.5508642E-04 ( -15.80%)
   displ. norm   :     0.8317051 α      lambda       -0.7080344E-04
   maximum displ.:     0.5986265 α      in ANC's #2, #1, #5, ...

........................................................................
.............................. CYCLE   42 ..............................
........................................................................

 iter      E             dE          RMSdq      gap      omega  full diag
   1    -91.8832988 -0.918833E+02  0.117E-01    3.20       0.0  T
   2    -91.8833023 -0.353347E-05  0.687E-02    3.20       1.0  T
   3    -91.8832951  0.720751E-05  0.130E-02    3.20       1.0  T
   4    -91.8833040 -0.886905E-05  0.256E-03    3.20       5.2  T
   5    -91.8833041 -0.100325E-06  0.119E-03    3.20      11.1  T
   6    -91.8833041 -0.554958E-08  0.262E-04    3.20      50.5  T
   7    -91.8833041 -0.145846E-08  0.118E-04    3.20     111.9  T
     SCC iter.                  ...        0 min,  0.060 sec
     gradient                   ...        0 min,  0.042 sec
 * total energy  :   -90.5785988 Eh     change       -0.6194586E-04 Eh
   gradient norm :     0.0036646 Eh/α   predicted    -0.4628862E-04 ( -25.28%)
   displ. norm   :     0.1918318 α      lambda       -0.5197176E-04
   maximum displ.:     0.1222492 α      in ANC's #2, #7, #3, ...
 * RMSD in coord.:     0.8999878 α      energy gain  -0.1077884E-02 Eh

generating ANC from exact Hessian ...
Using Lindh-Hessian (1995)
 Shifting diagonal of input Hessian by    9.8286147861685984E-003
 Lowest  eigenvalues of input Hessian
    0.000000    0.000000    0.000000    0.000000    0.000000    0.000000
    0.010000    0.010135    0.010226    0.010369    0.010836    0.011129
    0.011214    0.011672    0.012056    0.013342    0.014751    0.015251
 Highest eigenvalues
    2.116976    2.144559    2.198624    2.229193    2.307325    2.441934


........................................................................
.............................. CYCLE   43 ..............................
........................................................................

 iter      E             dE          RMSdq      gap      omega  full diag
   1    -91.8850262 -0.918850E+02  0.329E-02    3.20       0.0  T
   2    -91.8850268 -0.606758E-06  0.195E-02    3.20       1.0  T
   3    -91.8850247  0.204263E-05  0.700E-03    3.20       1.9  T
   4    -91.8850271 -0.239978E-05  0.683E-04    3.20      19.4  T
   5    -91.8850272 -0.118714E-07  0.362E-04    3.20      36.6  T
   6    -91.8850272 -0.101714E-08  0.143E-04    3.20      92.6  T
     SCC iter.                  ...        0 min,  0.023 sec
     gradient                   ...        0 min,  0.074 sec
 * total energy  :   -90.5786391 Eh     change       -0.4026087E-04 Eh
   gradient norm :     0.0025745 Eh/α   predicted     0.0000000E+00 (-100.00%)
   displ. norm   :     0.0284276 α      lambda       -0.1984239E-04
   maximum displ.:     0.0115660 α      in ANC's #5, #8, #7, ...

........................................................................
.............................. CYCLE   44 ..............................
........................................................................

 iter      E             dE          RMSdq      gap      omega  full diag
   1    -91.8859074 -0.918859E+02  0.756E-03    3.20       0.0  T
   2    -91.8859076 -0.208393E-06  0.474E-03    3.20       2.8  T
   3    -91.8859075  0.816815E-07  0.269E-03    3.20       4.9  T
   4    -91.8859077 -0.189014E-06  0.440E-04    3.20      30.1  T
   5    -91.8859077 -0.797182E-08  0.119E-04    3.20     111.7  T
     SCC iter.                  ...        0 min,  0.019 sec
     gradient                   ...        0 min,  0.063 sec
 * total energy  :   -90.5786551 Eh     change       -0.1604845E-04 Eh
   gradient norm :     0.0010490 Eh/α   predicted    -0.1015915E-04 ( -36.70%)
   displ. norm   :     0.1129040 α      lambda       -0.2863950E-04
   maximum displ.:     0.0480169 α      in ANC's #5, #4, #8, ...

........................................................................
.............................. CYCLE   45 ..............................
........................................................................

 iter      E             dE          RMSdq      gap      omega  full diag
   1    -91.8871417 -0.918871E+02  0.241E-02    3.20       0.0  T
   2    -91.8871428 -0.102945E-05  0.145E-02    3.20       1.0  T
   3    -91.8871414  0.136714E-05  0.675E-03    3.20       2.0  T
   4    -91.8871432 -0.177502E-05  0.105E-03    3.20      12.6  T
   5    -91.8871432 -0.438978E-07  0.322E-04    3.20      41.1  T
   6    -91.8871432 -0.551680E-09  0.129E-04    3.20     102.6  T
     SCC iter.                  ...        0 min,  0.023 sec
     gradient                   ...        0 min,  0.063 sec
 * total energy  :   -90.5786770 Eh     change       -0.2191812E-04 Eh
   gradient norm :     0.0024929 Eh/α   predicted    -0.1440099E-04 ( -34.30%)
   displ. norm   :     0.0403342 α      lambda       -0.1103712E-04
   maximum displ.:     0.0166821 α      in ANC's #5, #4, #2, ...

........................................................................
.............................. CYCLE   46 ..............................
........................................................................

 iter      E             dE          RMSdq      gap      omega  full diag
   1    -91.8867568 -0.918868E+02  0.844E-03    3.20       0.0  T
   2    -91.8867568 -0.483925E-07  0.501E-03    3.20       2.6  T
   3    -91.8867566  0.160601E-06  0.194E-03    3.20       6.8  T
   4    -91.8867568 -0.189186E-06  0.191E-04    3.20      69.3  T
   5    -91.8867568 -0.865370E-09  0.821E-05    3.20     161.4  T
     SCC iter.                  ...        0 min,  0.019 sec
     gradient                   ...        0 min,  0.069 sec
 * total energy  :   -90.5786874 Eh     change       -0.1032774E-04 Eh
   gradient norm :     0.0019363 Eh/α   predicted    -0.5708394E-05 ( -44.73%)
   displ. norm   :     0.2271904 α      lambda       -0.3701798E-04
   maximum displ.:     0.0928505 α      in ANC's #4, #5, #2, ...

........................................................................
.............................. CYCLE   47 ..............................
........................................................................

 iter      E             dE          RMSdq      gap      omega  full diag
   1    -91.8846664 -0.918847E+02  0.474E-02    3.21       0.0  T
   2    -91.8846679 -0.155236E-05  0.282E-02    3.21       1.0  T
   3    -91.8846628  0.510443E-05  0.110E-02    3.20       1.2  T
   4    -91.8846688 -0.600277E-05  0.111E-03    3.21      11.9  T
   5    -91.8846689 -0.347612E-07  0.444E-04    3.21      29.9  T
   6    -91.8846689 -0.305576E-09  0.172E-04    3.21      77.1  T
     SCC iter.                  ...        0 min,  0.023 sec
     gradient                   ...        0 min,  0.063 sec
 * total energy  :   -90.5787158 Eh     change       -0.2844697E-04 Eh
   gradient norm :     0.0017993 Eh/α   predicted    -0.1894315E-04 ( -33.41%)
   displ. norm   :     0.0718923 α      lambda       -0.8922691E-05
   maximum displ.:     0.0322559 α      in ANC's #4, #2, #1, ...

........................................................................
.............................. CYCLE   48 ..............................
........................................................................

 iter      E             dE          RMSdq      gap      omega  full diag
   1    -91.8850344 -0.918850E+02  0.151E-02    3.21       0.0  T
   2    -91.8850344 -0.381052E-07  0.884E-03    3.21       1.5  T
   3    -91.8850344  0.482859E-07  0.107E-03    3.21      12.3  T
   4    -91.8850344 -0.643079E-07  0.216E-04    3.21      61.3  T
   5    -91.8850344 -0.634572E-09  0.117E-04    3.21     113.0  T
     SCC iter.                  ...        0 min,  0.019 sec
     gradient                   ...        0 min,  0.081 sec
 * total energy  :   -90.5787280 Eh     change       -0.1222009E-04 Eh
   gradient norm :     0.0013443 Eh/α   predicted    -0.4475125E-05 ( -63.38%)
   displ. norm   :     0.2563416 α      lambda       -0.3594060E-04
   maximum displ.:     0.1155121 α      in ANC's #2, #4, #1, ...

........................................................................
.............................. CYCLE   49 ..............................
........................................................................

 iter      E             dE          RMSdq      gap      omega  full diag
   1    -91.8861326 -0.918861E+02  0.555E-02    3.20       0.0  T
   2    -91.8861334 -0.763736E-06  0.326E-02    3.20       1.0  T
   3    -91.8861313  0.207573E-05  0.667E-03    3.21       2.0  T
   4    -91.8861337 -0.245732E-05  0.855E-04    3.20      15.5  T
   5    -91.8861338 -0.127173E-07  0.463E-04    3.21      28.6  T
   6    -91.8861338 -0.670241E-09  0.203E-04    3.21      65.4  T
     SCC iter.                  ...        0 min,  0.068 sec
     gradient                   ...        0 min,  0.087 sec
 * total energy  :   -90.5787688 Eh     change       -0.4074475E-04 Eh
   gradient norm :     0.0011083 Eh/α   predicted    -0.1854819E-04 ( -54.48%)
   displ. norm   :     0.3538829 α      lambda       -0.3154577E-04
   maximum displ.:     0.1624713 α      in ANC's #2, #4, #1, ...

........................................................................
.............................. CYCLE   50 ..............................
........................................................................

 iter      E             dE          RMSdq      gap      omega  full diag
   1    -91.8852769 -0.918853E+02  0.765E-02    3.20       0.0  T
   2    -91.8852778 -0.902079E-06  0.449E-02    3.21       1.0  T
   3    -91.8852769  0.942500E-06  0.472E-03    3.21       2.8  T
   4    -91.8852782 -0.131614E-05  0.103E-03    3.21      12.9  T
   5    -91.8852782 -0.139193E-07  0.573E-04    3.21      23.1  T
   6    -91.8852782 -0.184865E-08  0.216E-04    3.21      61.3  T
     SCC iter.                  ...        0 min,  0.023 sec
     gradient                   ...        0 min,  0.093 sec
 * total energy  :   -90.5788044 Eh     change       -0.3561019E-04 Eh
   gradient norm :     0.0020370 Eh/α   predicted    -0.1666955E-04 ( -53.19%)
   displ. norm   :     0.2208980 α      lambda       -0.2841735E-04
   maximum displ.:     0.1045589 α      in ANC's #2, #4, #1, ...

........................................................................
.............................. CYCLE   51 ..............................
........................................................................

 iter      E             dE          RMSdq      gap      omega  full diag
   1    -91.8853183 -0.918853E+02  0.470E-02    3.21       0.0  T
   2    -91.8853186 -0.293393E-06  0.276E-02    3.21       1.0  T
   3    -91.8853183  0.212641E-06  0.232E-03    3.21       5.7  T
   4    -91.8853187 -0.340147E-06  0.606E-04    3.21      21.9  T
   5    -91.8853187 -0.389672E-08  0.312E-04    3.21      42.5  T
     SCC iter.                  ...        0 min,  0.019 sec
     gradient                   ...        0 min,  0.087 sec
 * total energy  :   -90.5788293 Eh     change       -0.2491556E-04 Eh
   gradient norm :     0.0018507 Eh/α   predicted    -0.1491005E-04 ( -40.16%)
   displ. norm   :     0.5421506 α      lambda       -0.4797921E-04
   maximum displ.:     0.2617073 α      in ANC's #2, #4, #1, ...

........................................................................
.............................. CYCLE   52 ..............................
........................................................................

 iter      E             dE          RMSdq      gap      omega  full diag
   1    -91.8844019 -0.918844E+02  0.115E-01    3.21       0.0  T
   2    -91.8844036 -0.175428E-05  0.672E-02    3.21       1.0  T
   3    -91.8844023  0.133553E-05  0.583E-03    3.21       2.3  T
   4    -91.8844044 -0.210860E-05  0.152E-03    3.21       8.7  T
   5    -91.8844044 -0.246936E-07  0.757E-04    3.21      17.5  T
   6    -91.8844044 -0.519276E-08  0.278E-04    3.21      47.7  T
     SCC iter.                  ...        0 min,  0.023 sec
     gradient                   ...        0 min,  0.087 sec
 * total energy  :   -90.5788791 Eh     change       -0.4984738E-04 Eh
   gradient norm :     0.0018713 Eh/α   predicted    -0.2712433E-04 ( -45.59%)
   displ. norm   :     0.2604990 α      lambda       -0.2622177E-04
   maximum displ.:     0.1350662 α      in ANC's #2, #4, #1, ...

........................................................................
.............................. CYCLE   53 ..............................
........................................................................

 iter      E             dE          RMSdq      gap      omega  full diag
   1    -91.8859442 -0.918859E+02  0.522E-02    3.21       0.0  T
   2    -91.8859447 -0.574023E-06  0.306E-02    3.21       1.0  T
   3    -91.8859442  0.542044E-06  0.341E-03    3.21       3.9  T
   4    -91.8859449 -0.751516E-06  0.866E-04    3.21      15.3  T
   5    -91.8859450 -0.172406E-07  0.441E-04    3.21      30.0  T
     SCC iter.                  ...        0 min,  0.064 sec
     gradient                   ...        0 min,  0.042 sec
 * total energy  :   -90.5789031 Eh     change       -0.2399481E-04 Eh
   gradient norm :     0.0011690 Eh/α   predicted    -0.1350651E-04 ( -43.71%)
   displ. norm   :     0.3849890 α      lambda       -0.1690205E-04
   maximum displ.:     0.1981575 α      in ANC's #2, #4, #1, ...

........................................................................
.............................. CYCLE   54 ..............................
........................................................................

 iter      E             dE          RMSdq      gap      omega  full diag
   1    -91.8835732 -0.918836E+02  0.806E-02    3.21       0.0  T
   2    -91.8835743 -0.107186E-05  0.473E-02    3.21       1.0  T
   3    -91.8835733  0.977556E-06  0.503E-03    3.21       2.6  T
   4    -91.8835747 -0.142346E-05  0.111E-03    3.21      11.9  T
   5    -91.8835747 -0.135097E-07  0.586E-04    3.21      22.6  T
   6    -91.8835747 -0.377702E-08  0.184E-04    3.21      71.9  T
     SCC iter.                  ...        0 min,  0.023 sec
     gradient                   ...        0 min,  0.087 sec
 * total energy  :   -90.5789070 Eh     change       -0.3842959E-05 Eh
   gradient norm :     0.0026111 Eh/α   predicted    -0.9008613E-05 ( 134.42%)
   displ. norm   :     0.0650034 α      lambda       -0.1528994E-04
   maximum displ.:     0.0291182 α      in ANC's #6, #1, #4, ...

........................................................................
.............................. CYCLE   55 ..............................
........................................................................

 iter      E             dE          RMSdq      gap      omega  full diag
   1    -91.8851878 -0.918852E+02  0.153E-02    3.21       0.0  T
   2    -91.8851878 -0.626670E-07  0.902E-03    3.21       1.5  T
   3    -91.8851878  0.834454E-07  0.149E-03    3.21       8.9  T
   4    -91.8851879 -0.107324E-06  0.224E-04    3.21      59.1  T
   5    -91.8851879 -0.663150E-09  0.122E-04    3.21     108.4  T
     SCC iter.                  ...        0 min,  0.019 sec
     gradient                   ...        0 min,  0.087 sec
 * total energy  :   -90.5789177 Eh     change       -0.1069194E-04 Eh
   gradient norm :     0.0011749 Eh/α   predicted    -0.7679871E-05 ( -28.17%)
   displ. norm   :     0.0448486 α      lambda       -0.8597326E-05
   maximum displ.:     0.0278467 α      in ANC's #2, #4, #3, ...

........................................................................
.............................. CYCLE   56 ..............................
........................................................................

 iter      E             dE          RMSdq      gap      omega  full diag
   1    -91.8867747 -0.918868E+02  0.949E-03    3.21       0.0  T
   2    -91.8867748 -0.885864E-07  0.563E-03    3.21       2.4  T
   3    -91.8867747  0.806030E-07  0.151E-03    3.21       8.8  T
   4    -91.8867748 -0.101565E-06  0.262E-04    3.21      50.5  T
   5    -91.8867748 -0.201527E-08  0.122E-04    3.21     108.4  T
     SCC iter.                  ...        0 min,  0.064 sec
     gradient                   ...        0 min,  0.042 sec
 * total energy  :   -90.5789250 Eh     change       -0.7304321E-05 Eh
   gradient norm :     0.0008713 Eh/α   predicted    -0.4305314E-05 ( -41.06%)
   displ. norm   :     0.0943112 α      lambda       -0.5226554E-05
   maximum displ.:     0.0623001 α      in ANC's #2, #4, #1, ...

........................................................................
.............................. CYCLE   57 ..............................
........................................................................

 iter      E             dE          RMSdq      gap      omega  full diag
   1    -91.8869166 -0.918869E+02  0.179E-02    3.21       0.0  T
   2    -91.8869167 -0.698872E-07  0.105E-02    3.21       1.3  T
   3    -91.8869166  0.612980E-07  0.114E-03    3.21      11.6  T
   4    -91.8869167 -0.829001E-07  0.297E-04    3.21      44.5  T
   5    -91.8869167 -0.217182E-08  0.134E-04    3.21      98.7  T
     SCC iter.                  ...        0 min,  0.019 sec
     gradient                   ...        0 min,  0.081 sec
 * total energy  :   -90.5789322 Eh     change       -0.7259673E-05 Eh
   gradient norm :     0.0009069 Eh/α   predicted    -0.2624036E-05 ( -63.85%)
   displ. norm   :     0.1335071 α      lambda       -0.1052918E-04
   maximum displ.:     0.0856676 α      in ANC's #2, #4, #5, ...

........................................................................
.............................. CYCLE   58 ..............................
........................................................................

 iter      E             dE          RMSdq      gap      omega  full diag
   1    -91.8864673 -0.918865E+02  0.261E-02    3.21       0.0  T
   2    -91.8864675 -0.217250E-06  0.153E-02    3.21       1.0  T
   3    -91.8864673  0.175088E-06  0.196E-03    3.21       6.7  T
   4    -91.8864676 -0.228243E-06  0.500E-04    3.21      26.5  T
   5    -91.8864676 -0.740800E-08  0.219E-04    3.21      60.6  T
     SCC iter.                  ...        0 min,  0.019 sec
     gradient                   ...        0 min,  0.087 sec
 * total energy  :   -90.5789453 Eh     change       -0.1310688E-04 Eh
   gradient norm :     0.0007223 Eh/α   predicted    -0.5307353E-05 ( -59.51%)
   displ. norm   :     0.1763105 α      lambda       -0.1175689E-04
   maximum displ.:     0.1138545 α      in ANC's #2, #4, #5, ...

........................................................................
.............................. CYCLE   59 ..............................
........................................................................

 iter      E             dE          RMSdq      gap      omega  full diag
   1    -91.8859825 -0.918860E+02  0.338E-02    3.22       0.0  T
   2    -91.8859829 -0.409671E-06  0.199E-02    3.22       1.0  T
   3    -91.8859826  0.336176E-06  0.268E-03    3.22       4.9  T
   4    -91.8859830 -0.427495E-06  0.670E-04    3.22      19.8  T
   5    -91.8859830 -0.146253E-07  0.279E-04    3.22      47.4  T
     SCC iter.                  ...        0 min,  0.064 sec
     gradient                   ...        0 min,  0.042 sec
 * total energy  :   -90.5789594 Eh     change       -0.1400988E-04 Eh
   gradient norm :     0.0010568 Eh/α   predicted    -0.5962557E-05 ( -57.44%)
   displ. norm   :     0.2573281 α      lambda       -0.1430400E-04
   maximum displ.:     0.1665865 α      in ANC's #2, #4, #3, ...

........................................................................
.............................. CYCLE   60 ..............................
........................................................................

 iter      E             dE          RMSdq      gap      omega  full diag
   1    -91.8853396 -0.918853E+02  0.481E-02    3.22       0.0  T
   2    -91.8853404 -0.844665E-06  0.282E-02    3.22       1.0  T
   3    -91.8853398  0.614834E-06  0.364E-03    3.22       3.6  T
   4    -91.8853406 -0.788084E-06  0.995E-04    3.22      13.3  T
   5    -91.8853406 -0.346046E-07  0.404E-04    3.22      32.8  T
     SCC iter.                  ...        0 min,  0.048 sec
     gradient                   ...        0 min,  0.086 sec
 * total energy  :   -90.5789761 Eh     change       -0.1677466E-04 Eh
   gradient norm :     0.0013818 Eh/α   predicted    -0.7363820E-05 ( -56.10%)
   displ. norm   :     0.3739107 α      lambda       -0.1868583E-04
   maximum displ.:     0.2450499 α      in ANC's #2, #4, #3, ...

........................................................................
.............................. CYCLE   61 ..............................
........................................................................

[...]
   J. Seibert, P. Shushkov, S. Spicher, M. Stahn, M. Steiner, T. Strunk,
   J. Stückrath, T. Rose, and J. Unsleber
   
 * started run on 2025/05/15 at 16:20:36.498     
   ID    Z sym.   atoms
    1    6 C      1, 3, 5-7, 10-14, 16, 18, 19, 21-25, 27-32
    2    7 N      2, 4, 8, 15, 17, 20
    3    8 O      9
    4    9 F      26
    5    1 H      33-57

           -------------------------------------------------
          |                Calculation Setup                |
           -------------------------------------------------

          program call               : xtb /rds/general/user/hgt20/home/callum/QDESCP/Mizolastine_rdkit_conf_19/Mizolastine_rdkit_conf_19.xyz --acc 1 --gfn 2 --chrg 0 --uhf 2 --etemp 300 --input /rds/general/user/hgt20/home/callum/QDESCP/Mizolastine_rdkit_conf_19/Mizolastine_rdkit_conf_19_xtb.inp -P 1
          hostname                   : login-c
          coordinate file            : /rds/general/user/hgt20/home/callum/QDESCP/Mizolastine_rdkit_conf_19/Mizolastine_rdkit_conf_19.xyz
          omp threads                :                     1


           -------------------------------------------------
          |                 G F N 2 - x T B                 |
           -------------------------------------------------

        Reference                      10.1021/acs.jctc.8b01176
      * Hamiltonian:
        H0-scaling (s, p, d)           1.850000    2.230000    2.230000
        zeta-weighting                 0.500000
      * Dispersion:
        s8                             2.700000
        a1                             0.520000
        a2                             5.000000
        s9                             5.000000
      * Repulsion:
        kExp                           1.500000    1.000000
        rExp                           1.000000
      * Coulomb:
        alpha                          2.000000
        third order                    shell-resolved
        anisotropic                    true
        a3                             3.000000
        a5                             4.000000
        cn-shift                       1.200000
        cn-exp                         4.000000
        max-rad                        5.000000


          ...................................................
          :                      SETUP                      :
          :.................................................:
          :  # basis functions                 153          :
          :  # atomic orbitals                 153          :
          :  # shells                           89          :
          :  # electrons                       164          :
          :  max. iterations                   250          :
          :  Hamiltonian                  GFN2-xTB          :
          :  restarted?                      false          :
          :  GBSA solvation                  false          :
          :  PC potential                    false          :
          :  electronic temp.          300.0000000     K    :
          :  accuracy                    1.0000000          :
          :  -> integral cutoff          0.2500000E+02      :
          :  -> integral neglect         0.1000000E-07      :
          :  -> SCF convergence          0.1000000E-05 Eh   :
          :  -> wf. convergence          0.1000000E-03 e    :
          :  Broyden damping             0.4000000          :
          :  net charge                          0          :
          :  unpaired electrons                  2          :
          ...................................................

 iter      E             dE          RMSdq      gap      omega  full diag
   1    -91.3289412 -0.913289E+02  0.383E+00    0.22       0.0  T
   2    -91.3214407  0.750040E-02  0.318E+00    1.00       1.0  T
   3    -91.5029357 -0.181495E+00  0.211E+00    0.07       1.0  T
   4    -91.4562306  0.467051E-01  0.175E+00    1.14       1.0  T
   5    -91.5637410 -0.107510E+00  0.118E+00    0.14       1.0  T
   6    -91.5561865  0.755451E-02  0.109E+00    0.65       1.0  T
   7    -91.7105676 -0.154381E+00  0.633E-01    0.00       1.0  T
   8    -91.6669361  0.436315E-01  0.723E-01    0.21       1.0  T
   9    -91.5813645  0.855716E-01  0.996E-01    0.15       1.0  T
  10    -91.5774808  0.388370E-02  0.963E-01    0.30       1.0  T
  11    -91.7264251 -0.148944E+00  0.470E-01    0.14       1.0  T
  12    -91.7262423  0.182853E-03  0.440E-01    0.12       1.0  T
  13    -91.7535637 -0.273214E-01  0.211E-01    0.07       1.0  T
  14    -91.7536740 -0.110320E-03  0.174E-01    0.06       1.0  T
  15    -91.7548754 -0.120141E-02  0.982E-02    0.05       1.0  T
  16    -91.7552253 -0.349827E-03  0.627E-02    0.04       1.0  T
  17    -91.7550443  0.180932E-03  0.514E-02    0.04       1.0  T
  18    -91.7554094 -0.365114E-03  0.101E-02    0.04       1.3  T
  19    -91.7552021  0.207383E-03  0.340E-02    0.04       1.0  T
  20    -91.7554005 -0.198455E-03  0.796E-03    0.04       1.7  T
  21    -91.7554110 -0.104859E-04  0.262E-03    0.04       5.1  T
  22    -91.7554118 -0.796085E-06  0.110E-03    0.04      12.0  T
  23    -91.7554120 -0.218606E-06  0.219E-04    0.04      60.5  T
  24    -91.7554120 -0.266505E-08  0.722E-05    0.04     183.4  T

   *** convergence criteria satisfied after 24 iterations ***

         #    Occupation            Energy/Eh            Energy/eV
      -------------------------------------------------------------
         1        2.0000           -0.8134426             -22.1349
       ...           ...                  ...                  ...
        77        2.0000           -0.3969117             -10.8005
        78        2.0000           -0.3934022             -10.7050
        79        1.9985           -0.3882793             -10.5656
        80        1.9969           -0.3875901             -10.5469
        81        1.7047           -0.3829448             -10.4205
        82        1.3000           -0.3813134             -10.3761
        83        0.6404           -0.2435400              -6.6271 (HOMO)
        84        0.3015           -0.2421936              -6.5904 (LUMO)
        85        0.0564           -0.2403154              -6.5393
        86        0.0017           -0.2369194              -6.4469
        87                         -0.2150618              -5.8521
        88                         -0.2111192              -5.7448
       ...                                ...                  ...
       153                          0.7046198              19.1737
      -------------------------------------------------------------
                  HL-Gap            0.0013464 Eh            0.0366 eV
             Fermi-level           -0.3125551 Eh           -8.5051 eV

 transition dipole moment (au) for excitation:          82          83
     X       Y       Z   
  -1.0573   1.0663  -0.6143  total (au/Debye):    1.622   4.124
 dE (eV)             :    3.749
 oscillator strength :  0.34191E+00

 SCC (total)                   0 d,  0 h,  0 min,  0.214 sec
 SCC setup                      ...        0 min,  0.001 sec (  0.280%)
 Dispersion                     ...        0 min,  0.001 sec (  0.412%)
 classical contributions        ...        0 min,  0.000 sec (  0.125%)
 integral evaluation            ...        0 min,  0.013 sec (  6.030%)
 iterations                     ...        0 min,  0.130 sec ( 60.753%)
 molecular gradient             ...        0 min,  0.059 sec ( 27.368%)
 printout                       ...        0 min,  0.011 sec (  5.029%)

         :::::::::::::::::::::::::::::::::::::::::::::::::::::
         ::                     SUMMARY                     ::
         :::::::::::::::::::::::::::::::::::::::::::::::::::::
         :: total energy             -90.448720270580 Eh    ::
         :: gradient norm              0.101480002550 Eh/a0 ::
         :: HOMO-LUMO gap              0.036636845022 eV    ::
         ::.................................................::
         :: SCC energy               -91.754812265703 Eh    ::
         :: -> isotropic ES            0.088007816786 Eh    ::
         :: -> anisotropic ES          0.004765086903 Eh    ::
         :: -> anisotropic XC          0.042051595006 Eh    ::
         :: -> dispersion             -0.068775037450 Eh    ::
         :: repulsion energy           1.306091995123 Eh    ::
         :: add. restraining           0.000000000000 Eh    ::
         :: total charge               0.000000000000 e     ::
         :::::::::::::::::::::::::::::::::::::::::::::::::::::

           -------------------------------------------------
          |                Property Printout                |
           -------------------------------------------------

    * Orbital Energies and Occupations

         #    Occupation            Energy/Eh            Energy/eV
      -------------------------------------------------------------
         1        2.0000           -0.8134426             -22.1349
       ...           ...                  ...                  ...
        71        2.0000           -0.4363348             -11.8733
        72        2.0000           -0.4339040             -11.8071
        73        2.0000           -0.4214897             -11.4693
        74        2.0000           -0.4175275             -11.3615
        75        2.0000           -0.4143254             -11.2744
        76        2.0000           -0.4071676             -11.0796
        77        2.0000           -0.3969117             -10.8005
        78        2.0000           -0.3934022             -10.7050
        79        1.9985           -0.3882793             -10.5656
        80        1.9969           -0.3875901             -10.5469
        81        1.7047           -0.3829448             -10.4205
        82        1.3000           -0.3813134             -10.3761
        83        0.6404           -0.2435400              -6.6271 (HOMO)
        84        0.3015           -0.2421936              -6.5904 (LUMO)
        85        0.0564           -0.2403154              -6.5393
        86        0.0017           -0.2369194              -6.4469
        87                         -0.2150618              -5.8521
        88                         -0.2111192              -5.7448
        89                         -0.1843165              -5.0155
        90                         -0.1106503              -3.0109
        91                         -0.1105311              -3.0077
        92                         -0.0835888              -2.2746
        93                         -0.0500213              -1.3611
        94                         -0.0214247              -0.5830
       ...                                ...                  ...
       153                          0.7046198              19.1737
      -------------------------------------------------------------
                  HL-Gap            0.0013464 Eh            0.0366 eV
             Fermi-level           -0.3125551 Eh           -8.5051 eV

     #   Z          covCN         q      C6AA      α(0)
     1   6 C        3.702    -0.068    21.971     6.703
     2   7 N        2.746    -0.069    22.574     7.057
     3   6 C        2.831     0.197    23.803     7.995
     4   7 N        1.847    -0.267    27.777     7.811
     5   6 C        2.901     0.026    27.423     8.586
     6   6 C        2.904    -0.076    29.892     8.965
     7   6 C        2.768     0.266    22.504     7.769
     8   7 N        2.704    -0.202    25.399     7.485
     9   8 O        0.859    -0.437    22.432     6.350
    10   6 C        3.798     0.037    19.956     6.361
    11   6 C        3.805    -0.070    21.827     6.651
    12   6 C        3.766     0.006    20.509     6.455
    13   6 C        3.806    -0.083    22.070     6.688
    14   6 C        3.769     0.005    20.522     6.456
    15   7 N        2.732    -0.141    24.051     7.284
    16   6 C        3.149     0.186    23.799     7.980
    17   7 N        1.883    -0.327    29.327     8.028
    18   6 C        3.198     0.070    25.922     8.298
    19   6 C        3.094     0.040    27.000     8.516
    20   7 N        2.820    -0.074    22.666     7.071
    21   6 C        3.744     0.000    20.645     6.482
    22   6 C        2.970    -0.001    28.055     8.688
    23   6 C        2.929    -0.036    28.908     8.817
    24   6 C        2.916    -0.053    29.305     8.877
    25   6 C        2.788     0.166    24.405     8.092
    26   9 F        0.787    -0.228    11.531     4.011
    27   6 C        2.916    -0.053    29.311     8.878
    28   6 C        2.927    -0.041    29.023     8.835
    29   6 C        2.908    -0.061    29.507     8.907
    30   6 C        2.927    -0.032    28.810     8.802
    31   6 C        2.923    -0.038    28.939     8.822
    32   6 C        2.911    -0.053    29.318     8.879
    33   1 H        0.924     0.069     2.096     2.264
    34   1 H        0.925     0.100     1.787     2.091
    35   1 H        0.925     0.067     2.120     2.277
    36   1 H        0.925     0.033     2.544     2.494
    37   1 H        0.926     0.055     2.253     2.347
    38   1 H        0.860     0.175     1.240     1.745
    39   1 H        0.923     0.046     2.369     2.407
    40   1 H        0.924     0.045     2.382     2.414
    41   1 H        0.924     0.053     2.283     2.363
    42   1 H        0.924     0.046     2.366     2.406
    43   1 H        0.924     0.050     2.319     2.381
    44   1 H        0.925     0.051     2.309     2.376
    45   1 H        0.925     0.085     1.927     2.171
    46   1 H        0.924     0.045     2.379     2.412
    47   1 H        0.924     0.062     2.170     2.304
    48   1 H        0.924     0.061     2.193     2.316
    49   1 H        0.924     0.048     2.349     2.397
    50   1 H        0.926     0.037     2.484     2.465
    51   1 H        0.926     0.055     2.258     2.350
    52   1 H        0.926     0.056     2.252     2.347
    53   1 H        0.926     0.037     2.493     2.469
    54   1 H        0.926     0.026     2.642     2.542
    55   1 H        0.926     0.033     2.539     2.492
    56   1 H        0.926     0.033     2.542     2.493
    57   1 H        0.926     0.039     2.462     2.454

 Mol. C6AA /au·bohr⁶  :      38613.484590
 Mol. C8AA /au·bohr⁸  :     915312.943473
 Mol. α(0) /au        :        305.371762


Wiberg/Mayer (AO) data.
largest (>0.10) Wiberg bond orders for each atom

 ---------------------------------------------------------------------------
     #   Z sym  total        # sym  WBO       # sym  WBO       # sym  WBO
 ---------------------------------------------------------------------------
     1   6 C    3.951 --     2 N    0.998    35 H    0.969    33 H    0.967
                            34 H    0.967
     2   7 N    3.423 --     3 C    1.204     1 C    0.998    10 C    0.981
     3   6 C    3.862 --     4 N    1.364     2 N    1.204     8 N    1.144
     4   7 N    2.947 --     3 C    1.364     5 C    1.331
     5   6 C    3.731 --     4 N    1.331     6 C    1.297    36 H    0.964
     6   6 C    3.662 --     5 C    1.297     7 C    1.202    37 H    0.967
     7   6 C    3.898 --     9 O    1.606     6 C    1.202     8 N    1.020
     8   7 N    3.384 --     3 C    1.144     7 C    1.020    38 H    0.925
                             9 O    0.103
     9   8 O    1.898 --     7 C    1.606     8 N    0.103
    10   6 C    3.970 --    13 C    0.992     2 N    0.981    11 C    0.975
                            39 H    0.950
    11   6 C    3.973 --    12 C    0.989    10 C    0.975    41 H    0.973
                            40 H    0.973
    12   6 C    3.964 --    11 C    0.989    15 N    0.979    42 H    0.971
                            43 H    0.970
    13   6 C    3.977 --    10 C    0.992    14 C    0.991    44 H    0.973
                            45 H    0.962
    14   6 C    3.973 --    15 N    0.992    13 C    0.991    47 H    0.972
                            46 H    0.969
    15   7 N    3.210 --    16 C    1.085    14 C    0.992    12 C    0.979
    16   6 C    3.809 --    17 N    1.425    20 N    1.148    15 N    1.085
    17   7 N    2.933 --    16 C    1.425    18 C    1.239
    18   6 C    3.901 --    32 C    1.281    17 N    1.239    19 C    1.219
    19   6 C    3.908 --    29 C    1.364    18 C    1.219    20 N    1.138
    20   7 N    3.541 --    16 C    1.148    19 C    1.138    21 C    0.983
    21   6 C    3.971 --    22 C    0.994    20 N    0.983    49 H    0.964
                            48 H    0.956
    22   6 C    3.968 --    28 C    1.408    23 C    1.402    21 C    0.994
    23   6 C    3.959 --    24 C    1.434    22 C    1.402    50 H    0.969
                            27 C    0.100
    24   6 C    3.958 --    23 C    1.434    25 C    1.385    51 H    0.967
    25   6 C    3.867 --    27 C    1.394    24 C    1.385    26 F    0.957
    26   9 F    1.084 --    25 C    0.957
    27   6 C    3.958 --    28 C    1.424    25 C    1.394    52 H    0.967
                            23 C    0.100
    28   6 C    3.955 --    27 C    1.424    22 C    1.408    53 H    0.968
    29   6 C    3.908 --    30 C    1.407    19 C    1.364    54 H    0.967
    30   6 C    3.866 --    29 C    1.407    31 C    1.379    55 H    0.972
    31   6 C    3.962 --    32 C    1.482    30 C    1.379    56 H    0.971
    32   6 C    3.877 --    31 C    1.482    18 C    1.281    57 H    0.969
    33   1 H    0.986 --     1 C    0.967
    34   1 H    0.989 --     1 C    0.967
    35   1 H    0.988 --     1 C    0.969
    36   1 H    0.998 --     5 C    0.964
    37   1 H    0.997 --     6 C    0.967
    38   1 H    0.969 --     8 N    0.925
    39   1 H    0.996 --    10 C    0.950
    40   1 H    0.997 --    11 C    0.973
    41   1 H    0.997 --    11 C    0.973
    42   1 H    0.996 --    12 C    0.971
    43   1 H    0.995 --    12 C    0.970
    44   1 H    0.996 --    13 C    0.973
    45   1 H    0.992 --    13 C    0.962
    46   1 H    0.994 --    14 C    0.969
    47   1 H    0.995 --    14 C    0.972
    48   1 H    0.995 --    21 C    0.956
    49   1 H    0.996 --    21 C    0.964
    50   1 H    0.999 --    23 C    0.969
    51   1 H    0.997 --    24 C    0.967
    52   1 H    0.997 --    27 C    0.967
    53   1 H    0.999 --    28 C    0.968
    54   1 H    0.999 --    29 C    0.967
    55   1 H    0.998 --    30 C    0.972
    56   1 H    0.998 --    31 C    0.971
    57   1 H    0.998 --    32 C    0.969
 ---------------------------------------------------------------------------

Topologies differ in total number of bonds
Writing topology from bond orders to xtbtopo.mol

molecular dipole:
                 x           y           z       tot (Debye)
 q only:       -0.412       0.842      -0.374
   full:       -0.592       0.446      -0.012       1.883
molecular quadrupole (traceless):
                xx          xy          yy          xz          yz          zz
 q only:      -51.709      17.117      20.818     -24.029       1.632      30.891
  q+dip:      -50.140      12.248      16.122     -27.145       2.133      34.018
   full:      -51.334      12.128      16.442     -25.561       3.852      34.893


           -------------------------------------------------
          | TOTAL ENERGY              -90.448720270580 Eh   |
          | GRADIENT NORM               0.101480002550 Eh/α |
          | HOMO-LUMO GAP               0.036636845022 eV   |
           -------------------------------------------------

------------------------------------------------------------------------
 * finished run on 2025/05/15 at 16:20:36.731     
------------------------------------------------------------------------
 total:
 * wall-time:     0 d,  0 h,  0 min,  0.233 sec
 *  cpu-time:     0 d,  0 h,  0 min,  0.180 sec
 * ratio c/w:     0.772 speedup
 SCF:
 * wall-time:     0 d,  0 h,  0 min,  0.214 sec
 *  cpu-time:     0 d,  0 h,  0 min,  0.162 sec
 * ratio c/w:     0.758 speedup


