57
 energy: -90.579323686512 gnorm: 0.000509158464 xtb: 6.7.1 (edcfbbe)
C            3.58106181711082        2.16150237738441       -0.66702501306065
N            3.84132812022291        0.76363771214079       -0.39188032142399
C            5.04906708776409        0.42458023680020        0.10895679385229
N            5.98965085313730        1.33881833750633        0.16396982598031
C            7.19144948789244        0.97659441865350        0.64582707417097
C            7.51186486334171       -0.27255630694476        1.07402352230170
C            6.51449570498172       -1.29927964002935        1.04365772629267
N            5.27858812913914       -0.84534071260818        0.54315374535953
O            6.60618804971159       -2.45943315521591        1.39413195455165
C            2.74869674169947       -0.18632711189257       -0.52497381666569
C            1.92313133957123       -0.28239776330257        0.76720908576896
C            0.80252211188527       -1.31317838561243        0.59740984923024
C            1.81770466927527        0.15969887066352       -1.68830197007886
C            0.70047769627948       -0.88398007392026       -1.76537211162458
N           -0.06074097344847       -0.98773996420588       -0.53043563605183
C           -0.94065803389052        0.06288933288576       -0.31005845997705
N           -0.85836463124707        1.25977489635716       -0.82069698439135
C           -1.96470761588906        1.93425105744593       -0.36619991366749
C           -2.72908113386339        1.07848775791968        0.45832094580362
N           -2.04921024829997       -0.12029950233380        0.47954402644504
C           -2.54252508379817       -1.35826557992007        1.02567121208903
C           -3.92030564761501       -1.66917161787181        0.49229528867587
C           -4.15923565696457       -1.58876749254880       -0.87501542568495
C           -5.41481555282164       -1.85129131411466       -1.38839071369828
C           -6.42888547508608       -2.20178371879265       -0.51472916973687
F           -7.65714569246352       -2.46017412796082       -1.00648673561458
C           -6.21830654342581       -2.29562150637734        0.84850931198824
C           -4.95605990432732       -2.02331946476377        1.34566865623671
C           -3.90014931930222        1.50255246257017        1.06152677644170
C           -4.29290760418856        2.80533912312751        0.82102258803859
C           -3.54268181614007        3.65800965066586        0.01150223684922
C           -2.37397360714026        3.24156478575625       -0.59252062750023
H            3.49316458419234        2.33661055302780       -1.73978250510080
H            4.42120226420008        2.73473267757820       -0.28409284173664
H            2.66260326454890        2.47929673431809       -0.17367471194417
H            7.91516710359449        1.78107478982427        0.66424835120026
H            8.48940781561729       -0.52321382940525        1.44759171707072
H            4.55464493716326       -1.55131965800738        0.53431602584311
H            3.17838916101280       -1.17250904691959       -0.74770623201378
H            2.55798562526542       -0.55969607556967        1.61083765670315
H            1.47847537043094        0.69206542291355        0.97921960781983
H            1.22708670084518       -2.30473859535529        0.40957525174024
H            0.20457851790962       -1.35976694705396        1.50919512120971
H            2.37353982294040        0.17237366963155       -2.62601454670477
H            1.34210879348916        1.12698033276423       -1.53529795351340
H            1.11358198032825       -1.87721122376221       -1.96962908158778
H            0.00737746118261       -0.61935725031875       -2.56441677514235
H           -1.84811398026978       -2.14903508880172        0.72423418282266
H           -2.56677153514220       -1.30253948623575        2.12076978403153
H           -3.35533280777720       -1.31201978618718       -1.54129265736734
H           -5.61487723265309       -1.78773499789408       -2.44628962194836
H           -7.03206522683909       -2.57088041615247        1.50050567619923
H           -4.77897939503839       -2.08833551077455        2.40975083933183
H           -4.48564256514588        0.84599845042179        1.68675134128090
H           -5.20316448430528        3.17289919239219        1.27064226799910
H           -3.88935511889293        4.66886946807081       -0.14413515661385
H           -1.79148318879212        3.89858304010133       -1.21821946034080
