43
 energy: -70.317517723384 gnorm: 0.000185883844 xtb: 6.7.1 (edcfbbe)
C           -2.63135930922586       -0.45329491751799       -2.56269669353092
C           -2.26044909681950       -0.24916514261936       -1.12733787700883
C           -3.02217994909380        0.55968058025575       -0.27828017404866
O           -4.14524075678544        1.20553814298667       -0.76550265887401
C           -5.32504655380456        0.43353508186081       -0.69602422211658
C           -2.62775932480007        0.76032728488838        1.04723346182377
C           -3.40083364672968        1.67061551597856        1.94931159435359
C           -1.13380694240188       -0.84728609326004       -0.57764488787362
N           -0.76301903713758       -0.69462710602278        0.67669219669555
C           -1.47971196190172        0.08558414503021        1.47590594942786
C           -0.92804910203722        0.25598377474213        2.84415109510697
S            0.24849012241768        1.71973753541669        2.85381132551212
C            1.36826813778700        0.97883682423444        1.66598029598336
N            2.26643615179237        0.07113811893663        1.90942314757272
C            2.87199166848505       -0.15734640286559        0.70026434840893
C            2.29269466062243        0.67707197967628       -0.28546132953767
N            1.33971526700673        1.40465188390042        0.37761955584878
C            2.72173726720884        0.64136180214856       -1.60365499134748
C            3.74052992445444       -0.23049438244458       -1.90814554893049
C            4.33400032553928       -1.05774708073441       -0.93411284702894
O            5.33921429806955       -1.85221154043509       -1.40570918524625
C            6.01362141917827       -2.68290009815114       -0.49300990057116
C            3.90478361853417       -1.03449172227065        0.38034849867271
O           -0.39923817328747        2.78636458318578        2.07790082795304
H           -1.73681373648713       -0.53031899988604       -3.17661850001131
H           -3.19917579812662       -1.37713948172113       -2.68096585509477
H           -3.24036064702334        0.37587621933629       -2.91538692940748
H           -5.24326017362850       -0.48301957442033       -1.28950102106047
H           -6.11897470611892        1.05847056414601       -1.10128964953670
H           -5.56498417327245        0.16338969560212        0.33840897244957
H           -3.83440577843008        1.11621922536950        2.78238756450680
H           -2.74166092342537        2.43948998026368        2.34636043752748
H           -4.19725814708811        2.15539594280645        1.39148395497559
H           -0.49244111179054       -1.47897925126608       -1.17865327035090
H           -0.30877503050505       -0.59038143578313        3.12814857093190
H           -1.68653529477424        0.46523209803191        3.59350221303927
H            0.70218119727622        2.10060531894610        0.02430010797591
H            2.27871835047593        1.27124973901076       -2.35954826333507
H            4.12075197400284       -0.30326127869766       -2.91463745593842
H            5.33899973058411       -3.41971928100233       -0.04521855483113
H            6.77773874249032       -3.19883999197624       -1.07247924719401
H            6.49222370111208       -2.10046437129192        0.30095038997859
H            4.32934281765462       -1.65456788439218        1.15079455409027
