29
 energy: -55.284375659495 gnorm: 0.000196773840 xtb: 6.7.1 (edcfbbe)
O           -2.14791085738468       -1.09369521318145        1.03973404877608
C           -2.65464503821686        0.07347396748448        1.64876968101315
C           -2.13630621082864        1.30478754375519        0.90025936841492
C           -2.33835026850630        1.21402605947987       -0.61899605790271
C           -1.00330048894438        0.61916126640522       -1.08944026133765
C           -0.01971846265726        1.20021582668673       -0.04643480691693
N            1.03942831787163        0.25379369451184        0.19949233839689
C            1.54463443515969       -0.24296937797692        1.34071884657033
N            2.50468185523970       -1.09168916448167        1.07010374060897
C            2.56208137083340       -1.09303770457008       -0.28692650002344
C            3.52704923295995       -1.92374062966139       -1.04713583436442
N            4.34892171771756       -2.61015981126685       -0.22424683324718
O            3.57179823915360       -1.97831688972574       -2.25570894614928
N            1.67976446802901       -0.28458031885893       -0.83859362849516
O           -0.73460560915910        1.46922925357927        1.11735703338994
O           -0.71094498260345        1.00194752451935       -2.39863292830793
O           -2.55068089554085        2.49062263399981       -1.14881001906560
H           -2.44349893982812       -1.86161348116782        1.54066964833730
H           -3.75241303286447        0.08313234925551        1.62186892952021
H           -2.32060916450460        0.14427527723818        2.69155797563023
H           -2.63365086689960        2.19832573460361        1.29031816227329
H           -3.17698231929214        0.55065750608179       -0.86788028324318
H           -1.03263760546501       -0.47195890289981       -0.97871475248474
H            0.43427355799445        2.12698135354016       -0.43988177198440
H            1.19277397334391        0.03601372254153        2.31090923357503
H            4.24269940025710       -2.51574879002371        0.77138585417103
H            5.05279021872567       -3.21436683249031       -0.61225984412827
H            0.12629665081329        0.58918281804576       -2.65002707008547
H           -2.17093869540509        2.49465058457518       -2.03925532294121
