----- Optimization -----
      -----------------------------------------------------------      
     |                   =====================                   |     
     |                           x T B                           |     
     |                   =====================                   |     
     |                         S. Grimme                         |     
     |          Mulliken Center for Theoretical Chemistry        |     
     |                    University of Bonn                     |     
      -----------------------------------------------------------      

   * xtb version 6.7.1 (edcfbbe) compiled by 'conda@3ef47c1a292c' on 2024-11-25

   xtb is free software: you can redistribute it and/or modify it under
   the terms of the GNU Lesser General Public License as published by
   the Free Software Foundation, either version 3 of the License, or
   (at your option) any later version.
   
   xtb is distributed in the hope that it will be useful,
   but WITHOUT ANY WARRANTY; without even the implied warranty of
   MERCHANTABILITY or FITNESS FOR A PARTICULAR PURPOSE.  See the
   GNU Lesser General Public License for more details.
   
   Cite this work as:
   * C. Bannwarth, E. Caldeweyher, S. Ehlert, A. Hansen, P. Pracht,
     J. Seibert, S. Spicher, S. Grimme, WIREs Comput. Mol. Sci., 2020, 11,
     e01493. DOI: 10.1002/wcms.1493
   
   for GFN2-xTB:
   * C. Bannwarth, S. Ehlert and S. Grimme., J. Chem. Theory Comput., 2019,
     15, 1652-1671. DOI: 10.1021/acs.jctc.8b01176
   for GFN1-xTB:
   * S. Grimme, C. Bannwarth, P. Shushkov, J. Chem. Theory Comput., 2017,
     13, 1989-2009. DOI: 10.1021/acs.jctc.7b00118
   for GFN0-xTB:
   * P. Pracht, E. Caldeweyher, S. Ehlert, S. Grimme, ChemRxiv, 2019, preprint.
     DOI: 10.26434/chemrxiv.8326202.v1
   for GFN-FF:
   * S. Spicher and S. Grimme, Angew. Chem. Int. Ed., 2020, 59, 15665-15673.
     DOI: 10.1002/anie.202004239
   
   for ALPB and GBSA implicit solvation:
   * S. Ehlert, M. Stahn, S. Spicher, S. Grimme, J. Chem. Theory Comput.,
     2021, 17, 4250-4261. DOI: 10.1021/acs.jctc.1c00471
   
   for ddCOSMO and CPCM-X implicit solvation:
   * M. Stahn, S. Ehlert, S. Grimme, J. Phys. Chem. A,
     2023, XX, XXXX-XXXX. DOI: 10.1021/acs.jpca.3c04382
   
   for DFT-D4:
   * E. Caldeweyher, C. Bannwarth and S. Grimme, J. Chem. Phys., 2017,
     147, 034112. DOI: 10.1063/1.4993215
   * E. Caldeweyher, S. Ehlert, A. Hansen, H. Neugebauer, S. Spicher,
     C. Bannwarth and S. Grimme, J. Chem. Phys., 2019, 150, 154122.
     DOI: 10.1063/1.5090222
   * E. Caldeweyher, J.-M. Mewes, S. Ehlert and S. Grimme, Phys. Chem. Chem. Phys.
     2020, 22, 8499-8512. DOI: 10.1039/D0CP00502A
   
   for sTDA-xTB:
   * S. Grimme and C. Bannwarth, J. Chem. Phys., 2016, 145, 054103.
     DOI: 10.1063/1.4959605
   
   in the mass-spec context:
   * V. Asgeirsson, C. Bauer and S. Grimme, Chem. Sci., 2017, 8, 4879.
     DOI: 10.1039/c7sc00601b
   * J. Koopman and S. Grimme, ACS Omega 2019, 4, 12, 15120-15133.
     DOI: 10.1021/acsomega.9b02011
   
   for metadynamics refer to:
   * S. Grimme, J. Chem. Theory Comput., 2019, 155, 2847-2862
     DOI: 10.1021/acs.jctc.9b00143
   
   for SPH calculations refer to:
   * S. Spicher and S. Grimme, J. Chem. Theory Comput., 2021, 17, 1701-1714
     DOI: 10.1021/acs.jctc.0c01306
   
   for ONIOM refer to:
   * C. Plett, A. Katbashev, S. Ehlert, S. Grimme, M. Bursch,
     Phys. Chem. Chem. Phys., 2023, 25, 17860-17868. DOI: 10.1039/D3CP02178E
   
   for DIPRO refer to:
   * J. Kohn, N. Gildemeister, S. Grimme, D. Fazzi, A. Hansen,
     J. Chem. Phys., 2023, just accepted.
   
   for PTB refer to:
   * S. Grimme, M. Mueller, A. Hansen, J. Chem. Phys., 2023, 158, 124111.
     DOI: 10.1063/5.0137838
   
   with help from (in alphabetical order)
   P. Atkinson, C. Bannwarth, F. Bohle, G. Brandenburg, E. Caldeweyher
   M. Checinski, S. Dohm, S. Ehlert, S. Ehrlich, I. Gerasimov, C. Hölzer
   A. Katbashev, J. Kohn, J. Koopman, C. Lavigne, S. Lehtola, F. März, M. Müller,
   F. Musil, H. Neugebauer, J. Pisarek, C. Plett, P. Pracht, F. Pultar,
   J. Seibert, P. Shushkov, S. Spicher, M. Stahn, M. Steiner, T. Strunk,
   J. Stückrath, T. Rose, and J. Unsleber
   
 * started run on 2025/05/15 at 16:19:51.040     
   ID    Z sym.   atoms
    1    8 O      1, 13, 15-17
    2    6 C      2-6, 8, 10, 11
    3    7 N      7, 9, 12, 14
    4    1 H      18-29

           -------------------------------------------------
          |                Calculation Setup                |
           -------------------------------------------------

          program call               : xtb /rds/general/user/hgt20/home/callum/QDESCP/Ribavirin_rdkit_conf_1/Ribavirin_rdkit_conf_1.xyz --opt normal --acc 1 --gfn 2 --chrg 0 --uhf 0 -P 1
          hostname                   : login-c
          coordinate file            : /rds/general/user/hgt20/home/callum/QDESCP/Ribavirin_rdkit_conf_1/Ribavirin_rdkit_conf_1.xyz
          omp threads                :                     1


           -------------------------------------------------
          |                 G F N 2 - x T B                 |
           -------------------------------------------------

        Reference                      10.1021/acs.jctc.8b01176
      * Hamiltonian:
        H0-scaling (s, p, d)           1.850000    2.230000    2.230000
        zeta-weighting                 0.500000
      * Dispersion:
        s8                             2.700000
        a1                             0.520000
        a2                             5.000000
        s9                             5.000000
      * Repulsion:
        kExp                           1.500000    1.000000
        rExp                           1.000000
      * Coulomb:
        alpha                          2.000000
        third order                    shell-resolved
        anisotropic                    true
        a3                             3.000000
        a5                             4.000000
        cn-shift                       1.200000
        cn-exp                         4.000000
        max-rad                        5.000000


          ...................................................
          :                      SETUP                      :
          :.................................................:
          :  # basis functions                  80          :
          :  # atomic orbitals                  80          :
          :  # shells                           46          :
          :  # electrons                        94          :
          :  max. iterations                   250          :
          :  Hamiltonian                  GFN2-xTB          :
          :  restarted?                      false          :
          :  GBSA solvation                  false          :
          :  PC potential                    false          :
          :  electronic temp.          300.0000000     K    :
          :  accuracy                    1.0000000          :
          :  -> integral cutoff          0.2500000E+02      :
          :  -> integral neglect         0.1000000E-07      :
          :  -> SCF convergence          0.1000000E-05 Eh   :
          :  -> wf. convergence          0.1000000E-03 e    :
          :  Broyden damping             0.4000000          :
          :  net charge                          0          :
          :  unpaired electrons                  0          :
          ...................................................

 iter      E             dE          RMSdq      gap      omega  full diag
   1    -55.5560786 -0.555561E+02  0.480E+00    3.47       0.0  T
   2    -55.7042191 -0.148141E+00  0.288E+00    3.31       1.0  T
   3    -55.7282883 -0.240692E-01  0.153E+00    3.43       1.0  T
   4    -55.7353686 -0.708028E-02  0.539E-01    3.39       1.0  T
   5    -55.7400731 -0.470449E-02  0.112E-01    3.35       1.0  T
   6    -55.7401124 -0.392939E-04  0.476E-02    3.38       1.0  T
   7    -55.7401187 -0.632319E-05  0.226E-02    3.38       1.0  T
   8    -55.7401205 -0.185660E-05  0.685E-03    3.38       2.7  T
   9    -55.7401209 -0.333387E-06  0.265E-03    3.38       7.0  T
  10    -55.7401209 -0.442860E-07  0.120E-03    3.38      15.5  T
  11    -55.7401209 -0.109287E-07  0.435E-04    3.38      42.7  T
  12    -55.7401209 -0.109041E-08  0.141E-04    3.38     131.6  T

   *** convergence criteria satisfied after 12 iterations ***

         #    Occupation            Energy/Eh            Energy/eV
      -------------------------------------------------------------
         1        2.0000           -0.7344878             -19.9864
       ...           ...                  ...                  ...
        41        2.0000           -0.4401661             -11.9775
        42        2.0000           -0.4365706             -11.8797
        43        2.0000           -0.4329370             -11.7808
        44        2.0000           -0.4217140             -11.4754
        45        2.0000           -0.4161379             -11.3237
        46        2.0000           -0.4128008             -11.2329
        47        2.0000           -0.3982123             -10.8359 (HOMO)
        48                         -0.2740476              -7.4572 (LUMO)
        49                         -0.2358782              -6.4186
        50                         -0.1522395              -4.1426
        51                         -0.0807558              -2.1975
        52                         -0.0380488              -1.0354
       ...                                ...                  ...
        80                          0.6267997              17.0561
      -------------------------------------------------------------
                  HL-Gap            0.1241647 Eh            3.3787 eV
             Fermi-level           -0.3361300 Eh           -9.1466 eV

 SCC (total)                   0 d,  0 h,  0 min,  0.050 sec
 SCC setup                      ...        0 min,  0.000 sec (  0.485%)
 Dispersion                     ...        0 min,  0.000 sec (  0.443%)
 classical contributions        ...        0 min,  0.000 sec (  0.150%)
 integral evaluation            ...        0 min,  0.005 sec (  9.132%)
 iterations                     ...        0 min,  0.032 sec ( 65.151%)
 molecular gradient             ...        0 min,  0.012 sec ( 24.396%)
 printout                       ...        0 min,  0.000 sec (  0.230%)

         :::::::::::::::::::::::::::::::::::::::::::::::::::::
         ::                     SUMMARY                     ::
         :::::::::::::::::::::::::::::::::::::::::::::::::::::
         :: total energy             -55.273084544728 Eh    ::
         :: gradient norm              0.097516066551 Eh/a0 ::
         :: HOMO-LUMO gap              3.378693560655 eV    ::
         ::.................................................::
         :: SCC energy               -55.739979911262 Eh    ::
         :: -> isotropic ES            0.148472632361 Eh    ::
         :: -> anisotropic ES          0.000129908859 Eh    ::
         :: -> anisotropic XC          0.010871300117 Eh    ::
         :: -> dispersion             -0.027029964502 Eh    ::
         :: repulsion energy           0.466895366535 Eh    ::
         :: add. restraining           0.000000000000 Eh    ::
         :: total charge              -0.000000000000 e     ::
         :::::::::::::::::::::::::::::::::::::::::::::::::::::

      ----------------------------------------------------------- 
     |                   =====================                   |
     |                        A N C O P T                        |
     |                   =====================                   |
     |               Approximate Normal Coordinate               |
     |                Rational Function Optimizer                |
      ----------------------------------------------------------- 
      ----------------------------------------------------------- 
     |                   =====================                   |
     |                        A N C O P T                        |
     |                   =====================                   |
     |               Approximate Normal Coordinate               |
     |                Rational Function Optimizer                |
      ----------------------------------------------------------- 

          ...................................................
          :                      SETUP                      :
          :.................................................:
          :   optimization level            normal          :
          :   max. optcycles                   200          :
          :   ANC micro-cycles                  20          :
          :   degrees of freedom                81          :
          :.................................................:
          :   RF solver                   davidson          :
          :   write xtbopt.log                true          :
          :   linear?                        false          :
          :   energy convergence         0.5000000E-05 Eh   :
          :   grad. convergence          0.1000000E-02 Eh/α :
          :   maxmium RF displ.          1.0000000          :
          :   Hlow (freq-cutoff)         0.1000000E-01      :
          :   Hmax (freq-cutoff)         5.0000000          :
          :   S6 in model hess.         20.0000000          :
          ...................................................

generating ANC from exact Hessian ...
Using Lindh-Hessian (1995)
 Shifting diagonal of input Hessian by    9.3241867225628810E-003
 Lowest  eigenvalues of input Hessian
    0.000000    0.000000    0.000000    0.000000    0.000000    0.000000
    0.010000    0.011001    0.011336    0.012962    0.013502    0.015435
    0.018202    0.019189    0.019856    0.023767    0.027296    0.030263
 Highest eigenvalues
    1.715246    1.760915    1.949378    2.045440    2.100493    2.325988


........................................................................
.............................. CYCLE    1 ..............................
........................................................................

 iter      E             dE          RMSdq      gap      omega  full diag
   1    -55.7401209 -0.557401E+02  0.602E-05    3.38       0.0  T
   2    -55.7401209 -0.187015E-10  0.327E-05    3.38     567.3  T
   3    -55.7401209 -0.216716E-11  0.202E-05    3.38     918.9  T
     SCC iter.                  ...        0 min,  0.004 sec
     gradient                   ...        0 min,  0.013 sec
 * total energy  :   -55.2730845 Eh     change       -0.1367368E-09 Eh
   gradient norm :     0.0975162 Eh/α   predicted     0.0000000E+00 (-100.00%)
   displ. norm   :     0.2300997 α      lambda       -0.1210715E-01
   maximum displ.:     0.1064745 α      in ANC's #14, #28, #55, ...

........................................................................
.............................. CYCLE    2 ..............................
........................................................................

 iter      E             dE          RMSdq      gap      omega  full diag
   1    -55.7727256 -0.557727E+02  0.212E-01    3.55       0.0  T
   2    -55.7728221 -0.965523E-04  0.121E-01    3.55       1.0  T
   3    -55.7728170  0.516283E-05  0.468E-02    3.57       1.0  T
   4    -55.7728341 -0.171780E-04  0.109E-02    3.57       1.7  T
   5    -55.7728362 -0.204421E-05  0.442E-03    3.57       4.2  T
   6    -55.7728363 -0.114040E-06  0.205E-03    3.57       9.1  T
   7    -55.7728363 -0.204590E-07  0.661E-04    3.57      28.1  T
   8    -55.7728363 -0.236474E-08  0.318E-04    3.57      58.3  T
     SCC iter.                  ...        0 min,  0.009 sec
     gradient                   ...        0 min,  0.038 sec
 * total energy  :   -55.2813737 Eh     change       -0.8289179E-02 Eh
   gradient norm :     0.0442216 Eh/α   predicted    -0.6375151E-02 ( -23.09%)
   displ. norm   :     0.2088204 α      lambda       -0.3774823E-02
   maximum displ.:     0.1035182 α      in ANC's #14, #15, #6, ...

........................................................................
.............................. CYCLE    3 ..............................
........................................................................

 iter      E             dE          RMSdq      gap      omega  full diag
   1    -55.7887270 -0.557887E+02  0.134E-01    3.67       0.0  T
   2    -55.7887639 -0.368765E-04  0.778E-02    3.67       1.0  T
   3    -55.7887626  0.131729E-05  0.273E-02    3.68       1.0  T
   4    -55.7887674 -0.485974E-05  0.622E-03    3.67       3.0  T
   5    -55.7887681 -0.649348E-06  0.251E-03    3.67       7.4  T
   6    -55.7887682 -0.600500E-07  0.106E-03    3.67      17.5  T
   7    -55.7887682 -0.462479E-08  0.425E-04    3.67      43.7  T
   8    -55.7887682 -0.721158E-09  0.155E-04    3.67     120.1  T
     SCC iter.                  ...        0 min,  0.009 sec
     gradient                   ...        0 min,  0.013 sec
 * total energy  :   -55.2835231 Eh     change       -0.2149394E-02 Eh
   gradient norm :     0.0132420 Eh/α   predicted    -0.1970479E-02 (  -8.32%)
   displ. norm   :     0.1116399 α      lambda       -0.4389475E-03
   maximum displ.:     0.0678298 α      in ANC's #6, #14, #9, ...

........................................................................
.............................. CYCLE    4 ..............................
........................................................................

 iter      E             dE          RMSdq      gap      omega  full diag
   1    -55.7881050 -0.557881E+02  0.486E-02    3.67       0.0  T
   2    -55.7881069 -0.188544E-05  0.289E-02    3.67       1.0  T
   3    -55.7881061  0.776394E-06  0.817E-03    3.67       2.3  T
   4    -55.7881073 -0.118229E-05  0.197E-03    3.67       9.4  T
   5    -55.7881073 -0.351986E-07  0.762E-04    3.67      24.4  T
   6    -55.7881073 -0.365910E-08  0.332E-04    3.67      56.0  T
     SCC iter.                  ...        0 min,  0.007 sec
     gradient                   ...        0 min,  0.013 sec
 * total energy  :   -55.2838316 Eh     change       -0.3084673E-03 Eh
   gradient norm :     0.0056808 Eh/α   predicted    -0.2222259E-03 ( -27.96%)
   displ. norm   :     0.1361856 α      lambda       -0.2356645E-03
   maximum displ.:     0.0936561 α      in ANC's #6, #2, #1, ...

........................................................................
.............................. CYCLE    5 ..............................
........................................................................

 iter      E             dE          RMSdq      gap      omega  full diag
   1    -55.7861240 -0.557861E+02  0.495E-02    3.66       0.0  T
   2    -55.7861255 -0.152126E-05  0.295E-02    3.67       1.0  T
   3    -55.7861248  0.700115E-06  0.752E-03    3.67       2.5  T
   4    -55.7861259 -0.107797E-05  0.182E-03    3.67      10.2  T
   5    -55.7861259 -0.242364E-07  0.846E-04    3.67      22.0  T
   6    -55.7861259 -0.459897E-08  0.322E-04    3.67      57.6  T
     SCC iter.                  ...        0 min,  0.007 sec
     gradient                   ...        0 min,  0.013 sec
 * total energy  :   -55.2839849 Eh     change       -0.1532674E-03 Eh
   gradient norm :     0.0039247 Eh/α   predicted    -0.1200908E-03 ( -21.65%)
   displ. norm   :     0.1221039 α      lambda       -0.1026303E-03
   maximum displ.:     0.0839251 α      in ANC's #6, #1, #2, ...

........................................................................
.............................. CYCLE    6 ..............................
........................................................................

 iter      E             dE          RMSdq      gap      omega  full diag
   1    -55.7853233 -0.557853E+02  0.368E-02    3.66       0.0  T
   2    -55.7853238 -0.529933E-06  0.221E-02    3.66       1.0  T
   3    -55.7853238  0.144713E-08  0.298E-03    3.66       6.2  T
   4    -55.7853240 -0.140107E-06  0.107E-03    3.66      17.3  T
   5    -55.7853240 -0.169810E-08  0.472E-04    3.66      39.4  T
   6    -55.7853240 -0.193828E-08  0.197E-04    3.66      94.4  T
     SCC iter.                  ...        0 min,  0.006 sec
     gradient                   ...        0 min,  0.013 sec
 * total energy  :   -55.2840627 Eh     change       -0.7784395E-04 Eh
   gradient norm :     0.0044539 Eh/α   predicted    -0.5208040E-04 ( -33.10%)
   displ. norm   :     0.1854473 α      lambda       -0.1197272E-03
   maximum displ.:     0.1213103 α      in ANC's #6, #1, #2, ...

........................................................................
.............................. CYCLE    7 ..............................
........................................................................

 iter      E             dE          RMSdq      gap      omega  full diag
   1    -55.7852063 -0.557852E+02  0.538E-02    3.66       0.0  T
   2    -55.7852071 -0.818123E-06  0.321E-02    3.66       1.0  T
   3    -55.7852072 -0.666355E-07  0.374E-03    3.66       5.0  T
   4    -55.7852074 -0.202916E-06  0.172E-03    3.66      10.8  T
   5    -55.7852074 -0.797844E-08  0.761E-04    3.66      24.4  T
   6    -55.7852074 -0.601181E-08  0.243E-04    3.66      76.3  T
     SCC iter.                  ...        0 min,  0.007 sec
     gradient                   ...        0 min,  0.013 sec
 * total energy  :   -55.2841447 Eh     change       -0.8196845E-04 Eh
   gradient norm :     0.0035305 Eh/α   predicted    -0.6193050E-04 ( -24.45%)
   displ. norm   :     0.1306857 α      lambda       -0.6191948E-04
   maximum displ.:     0.0726514 α      in ANC's #6, #1, #2, ...

........................................................................
.............................. CYCLE    8 ..............................
........................................................................

 iter      E             dE          RMSdq      gap      omega  full diag
   1    -55.7860060 -0.557860E+02  0.363E-02    3.67       0.0  T
   2    -55.7860063 -0.342981E-06  0.217E-02    3.67       1.0  T
   3    -55.7860061  0.193473E-06  0.383E-03    3.67       4.8  T
   4    -55.7860065 -0.329785E-06  0.117E-03    3.67      15.9  T
   5    -55.7860065 -0.562726E-08  0.482E-04    3.67      38.5  T
   6    -55.7860065 -0.131163E-08  0.149E-04    3.67     125.0  T
     SCC iter.                  ...        0 min,  0.028 sec
     gradient                   ...        0 min,  0.013 sec
 * total energy  :   -55.2841884 Eh     change       -0.4377231E-04 Eh
   gradient norm :     0.0020807 Eh/α   predicted    -0.3148892E-04 ( -28.06%)
   displ. norm   :     0.1011201 α      lambda       -0.3870464E-04
   maximum displ.:     0.0623433 α      in ANC's #1, #2, #6, ...

........................................................................
.............................. CYCLE    9 ..............................
........................................................................

 iter      E             dE          RMSdq      gap      omega  full diag
   1    -55.7868907 -0.557869E+02  0.278E-02    3.67       0.0  T
   2    -55.7868909 -0.220746E-06  0.165E-02    3.67       1.1  T
   3    -55.7868908  0.635795E-07  0.255E-03    3.67       7.3  T
   4    -55.7868910 -0.136670E-06  0.848E-04    3.67      21.9  T
   5    -55.7868910 -0.312000E-08  0.424E-04    3.67      43.8  T
     SCC iter.                  ...        0 min,  0.005 sec
     gradient                   ...        0 min,  0.013 sec
 * total energy  :   -55.2842160 Eh     change       -0.2761117E-04 Eh
   gradient norm :     0.0016592 Eh/α   predicted    -0.1955113E-04 ( -29.19%)
   displ. norm   :     0.1152743 α      lambda       -0.2297694E-04
   maximum displ.:     0.0805213 α      in ANC's #1, #5, #2, ...

........................................................................
.............................. CYCLE   10 ..............................
........................................................................

 iter      E             dE          RMSdq      gap      omega  full diag
   1    -55.7873238 -0.557873E+02  0.320E-02    3.67       0.0  T
   2    -55.7873241 -0.320806E-06  0.189E-02    3.67       1.0  T
   3    -55.7873241 -0.603649E-09  0.230E-03    3.67       8.1  T
   4    -55.7873242 -0.933235E-07  0.914E-04    3.67      20.3  T
   5    -55.7873242 -0.311912E-08  0.475E-04    3.67      39.1  T
     SCC iter.                  ...        0 min,  0.005 sec
     gradient                   ...        0 min,  0.013 sec
 * total energy  :   -55.2842372 Eh     change       -0.2116552E-04 Eh
   gradient norm :     0.0018456 Eh/α   predicted    -0.1155679E-04 ( -45.40%)
   displ. norm   :     0.0507699 α      lambda       -0.9925490E-05
   maximum displ.:     0.0414191 α      in ANC's #1, #3, #5, ...

........................................................................
.............................. CYCLE   11 ..............................
........................................................................

 iter      E             dE          RMSdq      gap      omega  full diag
   1    -55.7869830 -0.557870E+02  0.144E-02    3.67       0.0  T
   2    -55.7869831 -0.913327E-07  0.839E-03    3.67       2.2  T
   3    -55.7869831  0.412496E-07  0.199E-03    3.67       9.3  T
   4    -55.7869832 -0.778954E-07  0.545E-04    3.67      34.1  T
   5    -55.7869832 -0.111109E-08  0.231E-04    3.67      80.5  T
     SCC iter.                  ...        0 min,  0.005 sec
     gradient                   ...        0 min,  0.040 sec
 * total energy  :   -55.2842487 Eh     change       -0.1150077E-04 Eh
   gradient norm :     0.0009028 Eh/α   predicted    -0.4970660E-05 ( -56.78%)
   displ. norm   :     0.0606719 α      lambda       -0.1010112E-04
   maximum displ.:     0.0440847 α      in ANC's #1, #3, #7, ...

........................................................................
.............................. CYCLE   12 ..............................
........................................................................

 iter      E             dE          RMSdq      gap      omega  full diag
   1    -55.7866418 -0.557866E+02  0.180E-02    3.67       0.0  T
   2    -55.7866420 -0.171864E-06  0.104E-02    3.67       1.8  T
   3    -55.7866420  0.178106E-07  0.208E-03    3.67       8.9  T
   4    -55.7866420 -0.703648E-07  0.688E-04    3.67      27.0  T
   5    -55.7866420 -0.199188E-08  0.317E-04    3.67      58.6  T
     SCC iter.                  ...        0 min,  0.006 sec
     gradient                   ...        0 min,  0.013 sec
 * total energy  :   -55.2842596 Eh     change       -0.1090995E-04 Eh
   gradient norm :     0.0009686 Eh/α   predicted    -0.5070840E-05 ( -53.52%)
   displ. norm   :     0.0627410 α      lambda       -0.8050807E-05
   maximum displ.:     0.0467269 α      in ANC's #1, #3, #7, ...

........................................................................
.............................. CYCLE   13 ..............................
........................................................................

 iter      E             dE          RMSdq      gap      omega  full diag
   1    -55.7864527 -0.557865E+02  0.166E-02    3.67       0.0  T
   2    -55.7864529 -0.131669E-06  0.963E-03    3.67       1.9  T
   3    -55.7864528  0.150204E-07  0.186E-03    3.67      10.0  T
   4    -55.7864529 -0.640148E-07  0.634E-04    3.67      29.3  T
   5    -55.7864529 -0.117996E-08  0.277E-04    3.67      67.1  T
     SCC iter.                  ...        0 min,  0.006 sec
     gradient                   ...        0 min,  0.059 sec
 * total energy  :   -55.2842695 Eh     change       -0.9892281E-05 Eh
   gradient norm :     0.0012570 Eh/α   predicted    -0.4033293E-05 ( -59.23%)
   displ. norm   :     0.0739584 α      lambda       -0.9020214E-05
   maximum displ.:     0.0553950 α      in ANC's #1, #3, #2, ...

........................................................................
.............................. CYCLE   14 ..............................
........................................................................

 iter      E             dE          RMSdq      gap      omega  full diag
   1    -55.7864423 -0.557864E+02  0.195E-02    3.67       0.0  T
   2    -55.7864425 -0.140423E-06  0.113E-02    3.67       1.6  T
   3    -55.7864425 -0.241525E-07  0.144E-03    3.67      12.9  T
   4    -55.7864425 -0.319887E-07  0.680E-04    3.67      27.3  T
   5    -55.7864425 -0.143476E-08  0.234E-04    3.67      79.4  T
     SCC iter.                  ...        0 min,  0.006 sec
     gradient                   ...        0 min,  0.013 sec
 * total energy  :   -55.2842818 Eh     change       -0.1223787E-04 Eh
   gradient norm :     0.0011413 Eh/α   predicted    -0.4523840E-05 ( -63.03%)
   displ. norm   :     0.1112959 α      lambda       -0.1345853E-04
   maximum displ.:     0.0842746 α      in ANC's #1, #3, #2, ...

........................................................................
.............................. CYCLE   15 ..............................
........................................................................

 iter      E             dE          RMSdq      gap      omega  full diag
   1    -55.7865464 -0.557865E+02  0.297E-02    3.67       0.0  T
   2    -55.7865468 -0.312614E-06  0.172E-02    3.67       1.1  T
   3    -55.7865468 -0.871206E-07  0.176E-03    3.67      10.5  T
   4    -55.7865469 -0.339503E-07  0.963E-04    3.67      19.3  T
   5    -55.7865469 -0.373579E-08  0.360E-04    3.67      51.6  T
     SCC iter.                  ...        0 min,  0.006 sec
     gradient                   ...        0 min,  0.013 sec
 * total energy  :   -55.2842995 Eh     change       -0.1772116E-04 Eh
   gradient norm :     0.0008232 Eh/α   predicted    -0.6769314E-05 ( -61.80%)
   displ. norm   :     0.1479621 α      lambda       -0.1573078E-04
   maximum displ.:     0.1143373 α      in ANC's #1, #3, #2, ...

........................................................................
.............................. CYCLE   16 ..............................
........................................................................

 iter      E             dE          RMSdq      gap      omega  full diag
   1    -55.7866532 -0.557867E+02  0.389E-02    3.67       0.0  T
   2    -55.7866538 -0.525553E-06  0.225E-02    3.67       1.0  T
   3    -55.7866539 -0.990495E-07  0.266E-03    3.67       7.0  T
   4    -55.7866540 -0.112246E-06  0.129E-03    3.67      14.4  T
   5    -55.7866540 -0.478241E-08  0.484E-04    3.67      38.4  T
   6    -55.7866540 -0.196274E-08  0.134E-04    3.67     138.1  T
     SCC iter.                  ...        0 min,  0.007 sec
     gradient                   ...        0 min,  0.041 sec
 * total energy  :   -55.2843194 Eh     change       -0.1990562E-04 Eh
   gradient norm :     0.0008176 Eh/α   predicted    -0.7946091E-05 ( -60.08%)
   displ. norm   :     0.1476496 α      lambda       -0.1384960E-04
   maximum displ.:     0.1162576 α      in ANC's #1, #3, #4, ...

........................................................................
.............................. CYCLE   17 ..............................
........................................................................

 iter      E             dE          RMSdq      gap      omega  full diag
   1    -55.7866242 -0.557866E+02  0.395E-02    3.67       0.0  T
   2    -55.7866247 -0.546486E-06  0.229E-02    3.67       1.0  T
   3    -55.7866249 -0.156886E-06  0.220E-03    3.67       8.5  T
   4    -55.7866249 -0.407640E-07  0.122E-03    3.67      15.2  T
   5    -55.7866249 -0.539988E-08  0.550E-04    3.67      33.8  T
   6    -55.7866249 -0.314716E-08  0.135E-04    3.67     137.5  T
     SCC iter.                  ...        0 min,  0.007 sec
     gradient                   ...        0 min,  0.013 sec
 * total energy  :   -55.2843365 Eh     change       -0.1713821E-04 Eh
   gradient norm :     0.0011899 Eh/α   predicted    -0.6994860E-05 ( -59.19%)
   displ. norm   :     0.1097619 α      lambda       -0.1004407E-04
   maximum displ.:     0.0897512 α      in ANC's #1, #3, #4, ...

........................................................................
.............................. CYCLE   18 ..............................
........................................................................

 iter      E             dE          RMSdq      gap      omega  full diag
   1    -55.7869639 -0.557870E+02  0.281E-02    3.67       0.0  T
   2    -55.7869642 -0.264803E-06  0.163E-02    3.67       1.1  T
   3    -55.7869642 -0.254893E-07  0.210E-03    3.67       8.8  T
   4    -55.7869643 -0.785513E-07  0.916E-04    3.67      20.3  T
   5    -55.7869643 -0.192358E-08  0.383E-04    3.67      48.5  T
     SCC iter.                  ...        0 min,  0.006 sec
     gradient                   ...        0 min,  0.013 sec
 * total energy  :   -55.2843496 Eh     change       -0.1307071E-04 Eh
   gradient norm :     0.0006692 Eh/α   predicted    -0.5053154E-05 ( -61.34%)
   displ. norm   :     0.0908746 α      lambda       -0.7339941E-05
   maximum displ.:     0.0754077 α      in ANC's #1, #3, #4, ...

........................................................................
.............................. CYCLE   19 ..............................
........................................................................

 iter      E             dE          RMSdq      gap      omega  full diag
   1    -55.7869031 -0.557869E+02  0.233E-02    3.67       0.0  T
   2    -55.7869033 -0.163253E-06  0.137E-02    3.67       1.4  T
   3    -55.7869033 -0.901139E-08  0.182E-03    3.67      10.2  T
   4    -55.7869034 -0.591434E-07  0.779E-04    3.67      23.8  T
   5    -55.7869034 -0.185969E-08  0.287E-04    3.67      64.8  T
     SCC iter.                  ...        0 min,  0.006 sec
     gradient                   ...        0 min,  0.039 sec
 * total energy  :   -55.2843596 Eh     change       -0.9994085E-05 Eh
   gradient norm :     0.0006064 Eh/α   predicted    -0.3686706E-05 ( -63.11%)
   displ. norm   :     0.0658654 α      lambda       -0.5417286E-05
   maximum displ.:     0.0572020 α      in ANC's #1, #3, #4, ...

........................................................................
.............................. CYCLE   20 ..............................
........................................................................

 iter      E             dE          RMSdq      gap      omega  full diag
   1    -55.7870546 -0.557871E+02  0.159E-02    3.67       0.0  T
   2    -55.7870547 -0.810289E-07  0.934E-03    3.67       2.0  T
   3    -55.7870547  0.433351E-08  0.139E-03    3.67      13.3  T
   4    -55.7870547 -0.365168E-07  0.538E-04    3.67      34.5  T
   5    -55.7870547 -0.618471E-09  0.229E-04    3.67      81.1  T
     SCC iter.                  ...        0 min,  0.006 sec
     gradient                   ...        0 min,  0.013 sec
 * total energy  :   -55.2843669 Eh     change       -0.7335644E-05 Eh
   gradient norm :     0.0003797 Eh/α   predicted    -0.2715156E-05 ( -62.99%)
   displ. norm   :     0.0543977 α      lambda       -0.4188305E-05
   maximum displ.:     0.0477630 α      in ANC's #1, #3, #4, ...
 * RMSD in coord.:     0.3029652 α      energy gain  -0.1128238E-01 Eh

generating ANC from exact Hessian ...
Using Lindh-Hessian (1995)
 Shifting diagonal of input Hessian by    9.2639797860871401E-003
 Lowest  eigenvalues of input Hessian
    0.000000    0.000000    0.000000    0.000000    0.000000    0.000000
    0.010000    0.011225    0.011408    0.013118    0.013548    0.015483
    0.018406    0.020138    0.020509    0.024225    0.026148    0.031138
 Highest eigenvalues
    1.811063    1.883963    2.035077    2.169532    2.213516    2.457500


........................................................................
.............................. CYCLE   21 ..............................
........................................................................

 iter      E             dE          RMSdq      gap      omega  full diag
   1    -55.7870143 -0.557870E+02  0.132E-02    3.67       0.0  T
   2    -55.7870143 -0.482022E-07  0.781E-03    3.67       2.4  T
   3    -55.7870143  0.586603E-08  0.117E-03    3.67      15.9  T
   4    -55.7870143 -0.260215E-07  0.444E-04    3.67      41.8  T
   5    -55.7870143 -0.611116E-09  0.191E-04    3.67      97.4  T
     SCC iter.                  ...        0 min,  0.006 sec
     gradient                   ...        0 min,  0.058 sec
 * total energy  :   -55.2843727 Eh     change       -0.5816267E-05 Eh
   gradient norm :     0.0003373 Eh/α   predicted     0.0000000E+00 (-100.00%)
   displ. norm   :     0.0202349 α      lambda       -0.1200260E-06
   maximum displ.:     0.0187018 α      in ANC's #1, #3, #5, ...

........................................................................
.............................. CYCLE   22 ..............................
........................................................................

 iter      E             dE          RMSdq      gap      omega  full diag
   1    -55.7869628 -0.557870E+02  0.489E-03    3.67       0.0  T
   2    -55.7869629 -0.888060E-08  0.286E-03    3.67       6.5  T
   3    -55.7869629 -0.570637E-10  0.395E-04    3.67      47.0  T
   4    -55.7869629 -0.199871E-08  0.155E-04    3.67     120.1  T
     SCC iter.                  ...        0 min,  0.005 sec
     gradient                   ...        0 min,  0.013 sec
 * total energy  :   -55.2843757 Eh     change       -0.2922911E-05 Eh
   gradient norm :     0.0001967 Eh/α   predicted    -0.1025668E-05 ( -64.91%)
   displ. norm   :     0.0326921 α      lambda       -0.3045810E-05
   maximum displ.:     0.0267502 α      in ANC's #1, #3, #7, ...

   *** GEOMETRY OPTIMIZATION CONVERGED AFTER 22 ITERATIONS ***

------------------------------------------------------------------------
 total energy gain   :        -0.0112911 Eh       -7.0853 kcal/mol
 total RMSD          :         0.3050884 a0        0.1614 Å
 total power (kW/mol):        -1.3474917 (step)  -36.3791 (real)
------------------------------------------------------------------------

 ANCopt (total)                0 d,  0 h,  0 min,  0.815 sec
 optimizer setup                ...        0 min,  0.000 sec (  0.009%)
 model hessian                  ...        0 min,  0.023 sec (  2.764%)
 ANC generation                 ...        0 min,  0.001 sec (  0.184%)
 coordinate transformation      ...        0 min,  0.000 sec (  0.012%)
 single point calculation       ...        0 min,  0.785 sec ( 96.334%)
 optimization log               ...        0 min,  0.003 sec (  0.377%)
 hessian update                 ...        0 min,  0.000 sec (  0.022%)
 rational function              ...        0 min,  0.001 sec (  0.124%)

================
 final structure:
================
29
 xtb: 6.7.1 (edcfbbe)
O           -2.14791085738468       -1.09369521318145        1.03973404877608
C           -2.65464503821686        0.07347396748448        1.64876968101315
C           -2.13630621082864        1.30478754375519        0.90025936841492
C           -2.33835026850630        1.21402605947987       -0.61899605790271
C           -1.00330048894438        0.61916126640522       -1.08944026133765
C           -0.01971846265726        1.20021582668673       -0.04643480691693
N            1.03942831787163        0.25379369451184        0.19949233839689
C            1.54463443515969       -0.24296937797692        1.34071884657033
N            2.50468185523970       -1.09168916448167        1.07010374060897
C            2.56208137083340       -1.09303770457008       -0.28692650002344
C            3.52704923295995       -1.92374062966139       -1.04713583436442
N            4.34892171771756       -2.61015981126685       -0.22424683324718
O            3.57179823915360       -1.97831688972574       -2.25570894614928
N            1.67976446802901       -0.28458031885893       -0.83859362849516
O           -0.73460560915910        1.46922925357927        1.11735703338994
O           -0.71094498260345        1.00194752451935       -2.39863292830793
O           -2.55068089554085        2.49062263399981       -1.14881001906560
H           -2.44349893982812       -1.86161348116782        1.54066964833730
H           -3.75241303286447        0.08313234925551        1.62186892952021
H           -2.32060916450460        0.14427527723818        2.69155797563023
H           -2.63365086689960        2.19832573460361        1.29031816227329
H           -3.17698231929214        0.55065750608179       -0.86788028324318
H           -1.03263760546501       -0.47195890289981       -0.97871475248474
H            0.43427355799445        2.12698135354016       -0.43988177198440
H            1.19277397334391        0.03601372254153        2.31090923357503
H            4.24269940025710       -2.51574879002371        0.77138585417103
H            5.05279021872567       -3.21436683249031       -0.61225984412827
H            0.12629665081329        0.58918281804576       -2.65002707008547
H           -2.17093869540509        2.49465058457518       -2.03925532294121

 Bond Distances (Angstroems)
 ---------------------------
O1-C2=1.4107         O1-H18=0.9633        C2-O1=1.4107         C2-C3=1.5314         C2-H19=1.0981        C2-H20=1.0973        
C3-C2=1.5314         C3-C4=1.5353         C3-O15=1.4279        C3-H21=1.0945        C4-C3=1.5353         C4-C5=1.5354         
C4-O17=1.3984        C4-H22=1.0979        C5-C4=1.5354         C5-C6=1.5469         C5-O16=1.3950        C5-H23=1.0971        
C6-C5=1.5469         C6-N7=1.4415         C6-O15=1.3921        C6-H24=1.1044        N7-C6=1.4415         N7-C8=1.3433         
N7-N14=1.3332        C8-N7=1.3433         C8-N9=1.3097         C8-H25=1.0691        N9-C8=1.3097         N9-C10=1.3582        
C10-N9=1.3582        C10-C11=1.4830       C10-N14=1.3177       C11-C10=1.4830       C11-N12=1.3505       C11-O13=1.2106       
N12-C11=1.3505       N12-H26=1.0057       N12-H27=1.0055       O13-C11=1.2106       N14-N7=1.3332        N14-C10=1.3177       
O15-C3=1.4279        O15-C6=1.3921        O16-C5=1.3950        O16-H28=0.9667       O17-C4=1.3984        O17-H29=0.9680       
H18-O1=0.9633        H19-C2=1.0981        H20-C2=1.0973        H21-C3=1.0945        H22-C4=1.0979        H23-C5=1.0971        
H24-C6=1.1044        H25-C8=1.0691        H26-N12=1.0057       H27-N12=1.0055       H28-O16=0.9667       H29-O17=0.9680       
 C  H  Rav=1.0941 sigma=0.0106  Rmin=1.0691  Rmax=1.1044     7
 C  C  Rav=1.5264 sigma=0.0223  Rmin=1.4830  Rmax=1.5469     5
 N  H  Rav=1.0056 sigma=0.0001  Rmin=1.0055  Rmax=1.0057     2
 N  C  Rav=1.3535 sigma=0.0430  Rmin=1.3097  Rmax=1.4415     6
 N  N  Rav=1.3332 sigma=0.0000  Rmin=1.3332  Rmax=1.3332     1
 O  H  Rav=0.9660 sigma=0.0020  Rmin=0.9633  Rmax=0.9680     3
 O  C  Rav=1.3724 sigma=0.0734  Rmin=1.2106  Rmax=1.4279     6

 selected bond angles (degree)
 --------------------
H18-O1-C2=108.95               C3-C2-O1=109.43                H19-C2-O1=110.84               H19-C2-C3=108.62               
H20-C2-O1=110.75               H20-C2-C3=108.03               H20-C2-H19=109.09              C4-C3-C2=113.05                
O15-C3-C2=110.52               O15-C3-C4=106.64               H21-C3-C2=109.17               H21-C3-C4=109.95               
H21-C3-O15=107.33              C5-C4-C3=102.22                O17-C4-C3=109.93               O17-C4-C5=111.69               
H22-C4-C3=111.14               H22-C4-C5=111.14               H22-C4-O17=110.47              C6-C5-C4=101.58                
O16-C5-C4=111.31               O16-C5-C6=113.36               H23-C5-C4=109.34               H23-C5-C6=108.82               
H23-C5-O16=111.91              N7-C6-C5=109.61                O15-C6-C5=108.04               O15-C6-N7=111.20               
H24-C6-C5=109.66               H24-C6-N7=108.04               H24-C6-O15=110.29              C8-N7-C6=131.61                
N14-N7-C6=119.02               N14-N7-C8=109.36               N9-C8-N7=109.86                H25-C8-N7=123.42               
H25-C8-N9=126.72               C10-N9-C8=103.77               C11-C10-N9=122.70              N14-C10-N9=112.92              
N14-C10-C11=124.39             

 selected dihedral angles (degree)
 ---------------------------------
C3-C2-O1-H18=177.32           H19-C2-O1-H18=297.09          H20-C2-O1-H18= 58.32          C4-C3-C2-O1= 49.88            
C4-C3-C2-H19=288.75           C4-C3-C2-H20=170.55           O15-C3-C2-O1=290.43           O15-C3-C2-H19=169.30          
O15-C3-C2-H20= 51.09          H21-C3-C2-O1=172.60           H21-C3-C2-H19= 51.47          H21-C3-C2-H20=293.26          
C5-C4-C3-C2=266.83            C5-C4-C3-O15= 28.49           C5-C4-C3-H21=144.55           O17-C4-C3-C2=148.09           
O17-C4-C3-O15=269.75          O17-C4-C3-H21= 25.81          H22-C4-C3-C2= 25.48           H22-C4-C3-O15=147.14          
H22-C4-C3-H21=263.19          C6-C5-C4-C3=328.41            C6-C5-C4-O17= 85.90           C6-C5-C4-H22=209.77           
O16-C5-C4-C3=207.46           O16-C5-C4-O17=324.94          O16-C5-C4-H22= 88.82          H23-C5-C4-C3= 83.30           
H23-C5-C4-O17=200.79          H23-C5-C4-H22=324.66          N7-C6-C5-C4=146.96            N7-C6-C5-O16=266.47           
N7-C6-C5-H23= 31.69           O15-C6-C5-C4= 25.64           O15-C6-C5-O16=145.16          O15-C6-C5-H23=270.37          
H24-C6-C5-C4=265.40           H24-C6-C5-O16= 24.92          H24-C6-C5-H23=150.13          C8-N7-C6-C5=230.27            
C8-N7-C6-O15=349.66           C8-N7-C6-H24=110.82           N14-N7-C6-C5= 49.58           N14-N7-C6-O15=168.97          
N14-N7-C6-H24=290.13          N9-C8-N7-C6=179.56            N9-C8-N7-N14=  0.20           H25-C8-N7-C6=359.46           
H25-C8-N7-N14=180.10          C10-N9-C8-N7=359.90           C10-N9-C8-H25=180.00          C11-C10-N9-C8=179.85          
N14-C10-N9-C8=359.96          
           -------------------------------------------------
          |                Final Singlepoint                |
           -------------------------------------------------

          ...................................................
          :                      SETUP                      :
          :.................................................:
          :  # basis functions                  80          :
          :  # atomic orbitals                  80          :
          :  # shells                           46          :
          :  # electrons                        94          :
          :  max. iterations                   250          :
          :  Hamiltonian                  GFN2-xTB          :
          :  restarted?                      false          :
          :  GBSA solvation                  false          :
          :  PC potential                    false          :
          :  electronic temp.          300.0000000     K    :
          :  accuracy                    1.0000000          :
          :  -> integral cutoff          0.2500000E+02      :
          :  -> integral neglect         0.1000000E-07      :
          :  -> SCF convergence          0.1000000E-05 Eh   :
          :  -> wf. convergence          0.1000000E-03 e    :
          :  Broyden damping             0.4000000          :
          :  net charge                          0          :
          :  unpaired electrons                  0          :
          ...................................................

 iter      E             dE          RMSdq      gap      omega  full diag
   1    -55.7869629 -0.557870E+02  0.766E-05    3.67       0.0  T
   2    -55.7869629 -0.296581E-10  0.478E-05    3.67     388.4  T
   3    -55.7869629 -0.109495E-10  0.290E-05    3.67     641.3  T

   *** convergence criteria satisfied after 3 iterations ***

         #    Occupation            Energy/Eh            Energy/eV
      -------------------------------------------------------------
         1        2.0000           -0.7394155             -20.1205
       ...           ...                  ...                  ...
        41        2.0000           -0.4368757             -11.8880
        42        2.0000           -0.4323451             -11.7647
        43        2.0000           -0.4302465             -11.7076
        44        2.0000           -0.4193673             -11.4116
        45        2.0000           -0.4184420             -11.3864
        46        2.0000           -0.4065685             -11.0633
        47        2.0000           -0.3966934             -10.7946 (HOMO)
        48                         -0.2616980              -7.1212 (LUMO)
        49                         -0.2292278              -6.2376
        50                         -0.1406138              -3.8263
        51                         -0.0537877              -1.4636
        52                         -0.0119161              -0.3243
       ...                                ...                  ...
        80                          0.6927362              18.8503
      -------------------------------------------------------------
                  HL-Gap            0.1349954 Eh            3.6734 eV
             Fermi-level           -0.3291957 Eh           -8.9579 eV

 SCC (total)                   0 d,  0 h,  0 min,  0.022 sec
 SCC setup                      ...        0 min,  0.000 sec (  0.779%)
 Dispersion                     ...        0 min,  0.000 sec (  0.663%)
 classical contributions        ...        0 min,  0.000 sec (  0.345%)
 integral evaluation            ...        0 min,  0.004 sec ( 20.398%)
 iterations                     ...        0 min,  0.004 sec ( 17.474%)
 molecular gradient             ...        0 min,  0.013 sec ( 59.854%)
 printout                       ...        0 min,  0.000 sec (  0.454%)

         :::::::::::::::::::::::::::::::::::::::::::::::::::::
         ::                     SUMMARY                     ::
         :::::::::::::::::::::::::::::::::::::::::::::::::::::
         :: total energy             -55.284375659495 Eh    ::
         :: gradient norm              0.000196773840 Eh/a0 ::
         :: HOMO-LUMO gap              3.673411370303 eV    ::
         ::.................................................::
         :: SCC energy               -55.786793953607 Eh    ::
         :: -> isotropic ES            0.144403986817 Eh    ::
         :: -> anisotropic ES         -0.000569242245 Eh    ::
         :: -> anisotropic XC          0.009054803533 Eh    ::
         :: -> dispersion             -0.027436610054 Eh    ::
         :: repulsion energy           0.502418294112 Eh    ::
         :: add. restraining           0.000000000000 Eh    ::
         :: total charge               0.000000000000 e     ::
         :::::::::::::::::::::::::::::::::::::::::::::::::::::

           -------------------------------------------------
          |                Property Printout                |
           -------------------------------------------------

    * Orbital Energies and Occupations

         #    Occupation            Energy/Eh            Energy/eV
      -------------------------------------------------------------
         1        2.0000           -0.7394155             -20.1205
       ...           ...                  ...                  ...
        35        2.0000           -0.4895880             -13.3224
        36        2.0000           -0.4865295             -13.2391
        37        2.0000           -0.4644831             -12.6392
        38        2.0000           -0.4577461             -12.4559
        39        2.0000           -0.4456395             -12.1265
        40        2.0000           -0.4431767             -12.0595
        41        2.0000           -0.4368757             -11.8880
        42        2.0000           -0.4323451             -11.7647
        43        2.0000           -0.4302465             -11.7076
        44        2.0000           -0.4193673             -11.4116
        45        2.0000           -0.4184420             -11.3864
        46        2.0000           -0.4065685             -11.0633
        47        2.0000           -0.3966934             -10.7946 (HOMO)
        48                         -0.2616980              -7.1212 (LUMO)
        49                         -0.2292278              -6.2376
        50                         -0.1406138              -3.8263
        51                         -0.0537877              -1.4636
        52                         -0.0119161              -0.3243
        53                          0.0011965               0.0326
        54                          0.0113932               0.3100
        55                          0.0210379               0.5725
        56                          0.0336658               0.9161
        57                          0.0486195               1.3230
        58                          0.0700102               1.9051
       ...                                ...                  ...
        80                          0.6927362              18.8503
      -------------------------------------------------------------
                  HL-Gap            0.1349954 Eh            3.6734 eV
             Fermi-level           -0.3291957 Eh           -8.9579 eV

     #   Z          covCN         q      C6AA      α(0)
     1   8 O        1.655    -0.445    21.736     6.294
     2   6 C        3.673     0.069    19.645     6.352
     3   6 C        3.784     0.095    19.028     6.214
     4   6 C        3.745     0.108    18.871     6.197
     5   6 C        3.745     0.100    19.002     6.218
     6   6 C        3.727     0.161    18.098     6.074
     7   7 N        3.058     0.061    20.168     6.670
     8   6 C        3.132     0.102    25.552     8.275
     9   7 N        1.909    -0.289    28.337     7.892
    10   6 C        3.304     0.125    23.602     7.771
    11   6 C        2.746     0.279    22.279     7.729
    12   7 N        2.647    -0.263    26.830     7.693
    13   8 O        0.858    -0.415    21.972     6.285
    14   7 N        2.017    -0.231    26.829     7.683
    15   8 O        1.702    -0.308    19.141     5.907
    16   8 O        1.656    -0.437    21.587     6.272
    17   8 O        1.656    -0.439    21.611     6.275
    18   1 H        0.805     0.302     0.715     1.328
    19   1 H        0.923     0.035     2.512     2.479
    20   1 H        0.924     0.045     2.382     2.414
    21   1 H        0.924     0.073     2.055     2.242
    22   1 H        0.924     0.042     2.418     2.432
    23   1 H        0.924     0.052     2.297     2.370
    24   1 H        0.923     0.062     2.178     2.308
    25   1 H        0.927     0.062     2.170     2.303
    26   1 H        0.860     0.205     1.081     1.629
    27   1 H        0.860     0.197     1.123     1.660
    28   1 H        0.805     0.326     0.649     1.265
    29   1 H        0.805     0.326     0.648     1.265

 Mol. C6AA /au·bohr⁶  :       8928.857965
 Mol. C8AA /au·bohr⁸  :     198473.532589
 Mol. α(0) /au        :        139.494368


Wiberg/Mayer (AO) data.
largest (>0.10) Wiberg bond orders for each atom

 ---------------------------------------------------------------------------
     #   Z sym  total        # sym  WBO       # sym  WBO       # sym  WBO
 ---------------------------------------------------------------------------
     1   8 O    1.951 --     2 C    0.999    18 H    0.894
     2   6 C    3.960 --     1 O    0.999     3 C    0.987    20 H    0.968
                            19 H    0.968
     3   6 C    3.945 --     2 C    0.987     4 C    0.973    21 H    0.957
                            15 O    0.954
     4   6 C    3.967 --    17 O    1.012     3 C    0.973     5 C    0.966
                            22 H    0.956
     5   6 C    3.959 --    16 O    1.014     4 C    0.966    23 H    0.956
                             6 C    0.942
     6   6 C    3.939 --    15 O    1.003     7 N    0.958     5 C    0.942
                            24 H    0.940
     7   7 N    3.681 --     8 C    1.295    14 N    1.200     6 C    0.958
     8   6 C    3.961 --     9 N    1.511     7 N    1.295    25 H    0.962
                            14 N    0.121
     9   7 N    3.028 --     8 C    1.511    10 C    1.296
    10   6 C    3.965 --    14 N    1.495     9 N    1.296    11 C    0.981
    11   6 C    3.959 --    13 O    1.686    12 N    1.254    10 C    0.981
    12   7 N    3.391 --    11 C    1.254    27 H    0.941    26 H    0.936
                            13 O    0.213
    13   8 O    2.018 --    11 C    1.686    12 N    0.213
    14   7 N    2.978 --    10 C    1.495     7 N    1.200     8 C    0.121
    15   8 O    2.089 --     6 C    1.003     3 C    0.954
    16   8 O    1.975 --     5 C    1.014    28 H    0.873
    17   8 O    1.959 --     4 C    1.012    29 H    0.868
    18   1 H    0.909 --     1 O    0.894
    19   1 H    0.999 --     2 C    0.968
    20   1 H    0.998 --     2 C    0.968
    21   1 H    0.994 --     3 C    0.957
    22   1 H    0.998 --     4 C    0.956
    23   1 H    0.997 --     5 C    0.956
    24   1 H    0.996 --     6 C    0.940
    25   1 H    0.996 --     8 C    0.962
    26   1 H    0.958 --    12 N    0.936
    27   1 H    0.961 --    12 N    0.941
    28   1 H    0.894 --    16 O    0.873
    29   1 H    0.894 --    17 O    0.868
 ---------------------------------------------------------------------------

Topologies differ in total number of bonds
Writing topology from bond orders to xtbtopo.mol

molecular dipole:
                 x           y           z       tot (Debye)
 q only:       -0.761      -0.337       1.399
   full:       -0.785      -0.551       1.882       5.367
molecular quadrupole (traceless):
                xx          xy          yy          xz          yz          zz
 q only:        6.143       0.570      -0.536       5.827      -9.351      -5.607
  q+dip:        7.111       5.268       0.017       6.023      -9.973      -7.129
   full:        7.272       5.963       0.298       5.284     -10.001      -7.570

           -------------------------------------------------
          |                Geometry Summary                 |
           -------------------------------------------------

      molecular mass/u    :      244.2050136
   center of mass at/Å    :        0.3282723      -0.0329652      -0.1767401
  moments of inertia/u·Å² :        0.5271876E+03   0.1842901E+04   0.2094160E+04
rotational constants/cm⁻¹ :        0.3197653E-01   0.9147337E-02   0.8049830E-02

 * 28 selected distances

     #   Z          #   Z                                           value/Å
     1   8 O        2   6 C                                       1.4106694
     2   6 C        3   6 C                                       1.5313642
     3   6 C        4   6 C                                       1.5353166
     4   6 C        5   6 C                                       1.5354284 (max)
     6   6 C        7   7 N                                       1.4415226
     7   7 N        8   6 C                                       1.3432814
     8   6 C        9   7 N                                       1.3096752
     9   7 N       10   6 C                                       1.3582444
    11   6 C       12   7 N                                       1.3504786
    11   6 C       13   8 O                                       1.2106322
     7   7 N       14   7 N                                       1.3332291
    10   6 C       14   7 N                                       1.3177342
     3   6 C       15   8 O                                       1.4279137
     6   6 C       15   8 O                                       1.3920645
     5   6 C       16   8 O                                       1.3949849
     4   6 C       17   8 O                                       1.3983870
     1   8 O       18   1 H                                       0.9633314 (min)
     2   6 C       19   1 H                                       1.0981401
     2   6 C       20   1 H                                       1.0972695
     3   6 C       21   1 H                                       1.0944900
     4   6 C       22   1 H                                       1.0978639
     5   6 C       23   1 H                                       1.0971163
     6   6 C       24   1 H                                       1.1044473
     8   6 C       25   1 H                                       1.0690683
    12   7 N       26   1 H                                       1.0057242
    12   7 N       27   1 H                                       1.0055105
    16   8 O       28   1 H                                       0.9667199
    17   8 O       29   1 H                                       0.9680462

 * 7 distinct bonds (by element types)

   Z      Z             #   av. dist./Å        max./Å        min./Å
   1 H    6 C           7     1.0940565     1.1044473     1.0690683
   6 C    6 C           3     1.5340364     1.5354284     1.5313642
   1 H    7 N           2     1.0056174     1.0057242     1.0055105
   6 C    7 N           6     1.3534894     1.4415226     1.3096752
   7 N    7 N           1     1.3332291     1.3332291     1.3332291
   1 H    8 O           3     0.9660325     0.9680462     0.9633314
   6 C    8 O           6     1.3724420     1.4279137     1.2106322


optimized geometry written to: xtbopt.xyz


           -------------------------------------------------
          | TOTAL ENERGY              -55.284375659495 Eh   |
          | GRADIENT NORM               0.000196773840 Eh/α |
          | HOMO-LUMO GAP               3.673411370303 eV   |
           -------------------------------------------------

------------------------------------------------------------------------
 * finished run on 2025/05/15 at 16:19:51.941     
------------------------------------------------------------------------
 total:
 * wall-time:     0 d,  0 h,  0 min,  0.900 sec
 *  cpu-time:     0 d,  0 h,  0 min,  0.612 sec
 * ratio c/w:     0.680 speedup
 SCF:
 * wall-time:     0 d,  0 h,  0 min,  0.050 sec
 *  cpu-time:     0 d,  0 h,  0 min,  0.032 sec
 * ratio c/w:     0.634 speedup
 ANC optimizer:
 * wall-time:     0 d,  0 h,  0 min,  0.839 sec
 *  cpu-time:     0 d,  0 h,  0 min,  0.571 sec
 * ratio c/w:     0.681 speedup



----- Single-point -----
      -----------------------------------------------------------      
     |                   =====================                   |     
     |                           x T B                           |     
     |                   =====================                   |     
     |                         S. Grimme                         |     
     |          Mulliken Center for Theoretical Chemistry        |     
     |                    University of Bonn                     |     
      -----------------------------------------------------------      

   * xtb version 6.7.1 (edcfbbe) compiled by 'conda@3ef47c1a292c' on 2024-11-25

   xtb is free software: you can redistribute it and/or modify it under
   the terms of the GNU Lesser General Public License as published by
   the Free Software Foundation, either version 3 of the License, or
   (at your option) any later version.
   
   xtb is distributed in the hope that it will be useful,
   but WITHOUT ANY WARRANTY; without even the implied warranty of
   MERCHANTABILITY or FITNESS FOR A PARTICULAR PURPOSE.  See the
   GNU Lesser General Public License for more details.
   
   Cite this work as:
   * C. Bannwarth, E. Caldeweyher, S. Ehlert, A. Hansen, P. Pracht,
     J. Seibert, S. Spicher, S. Grimme, WIREs Comput. Mol. Sci., 2020, 11,
     e01493. DOI: 10.1002/wcms.1493
   
   for GFN2-xTB:
   * C. Bannwarth, S. Ehlert and S. Grimme., J. Chem. Theory Comput., 2019,
     15, 1652-1671. DOI: 10.1021/acs.jctc.8b01176
   for GFN1-xTB:
   * S. Grimme, C. Bannwarth, P. Shushkov, J. Chem. Theory Comput., 2017,
     13, 1989-2009. DOI: 10.1021/acs.jctc.7b00118
   for GFN0-xTB:
   * P. Pracht, E. Caldeweyher, S. Ehlert, S. Grimme, ChemRxiv, 2019, preprint.
     DOI: 10.26434/chemrxiv.8326202.v1
   for GFN-FF:
   * S. Spicher and S. Grimme, Angew. Chem. Int. Ed., 2020, 59, 15665-15673.
     DOI: 10.1002/anie.202004239
   
   for ALPB and GBSA implicit solvation:
   * S. Ehlert, M. Stahn, S. Spicher, S. Grimme, J. Chem. Theory Comput.,
     2021, 17, 4250-4261. DOI: 10.1021/acs.jctc.1c00471
   
   for ddCOSMO and CPCM-X implicit solvation:
   * M. Stahn, S. Ehlert, S. Grimme, J. Phys. Chem. A,
     2023, XX, XXXX-XXXX. DOI: 10.1021/acs.jpca.3c04382
   
   for DFT-D4:
   * E. Caldeweyher, C. Bannwarth and S. Grimme, J. Chem. Phys., 2017,
     147, 034112. DOI: 10.1063/1.4993215
   * E. Caldeweyher, S. Ehlert, A. Hansen, H. Neugebauer, S. Spicher,
     C. Bannwarth and S. Grimme, J. Chem. Phys., 2019, 150, 154122.
     DOI: 10.1063/1.5090222
   * E. Caldeweyher, J.-M. Mewes, S. Ehlert and S. Grimme, Phys. Chem. Chem. Phys.
     2020, 22, 8499-8512. DOI: 10.1039/D0CP00502A
   
   for sTDA-xTB:
   * S. Grimme and C. Bannwarth, J. Chem. Phys., 2016, 145, 054103.
     DOI: 10.1063/1.4959605
   
   in the mass-spec context:
   * V. Asgeirsson, C. Bauer and S. Grimme, Chem. Sci., 2017, 8, 4879.
     DOI: 10.1039/c7sc00601b
   * J. Koopman and S. Grimme, ACS Omega 2019, 4, 12, 15120-15133.
     DOI: 10.1021/acsomega.9b02011
   
   for metadynamics refer to:
   * S. Grimme, J. Chem. Theory Comput., 2019, 155, 2847-2862
     DOI: 10.1021/acs.jctc.9b00143
   
   for SPH calculations refer to:
   * S. Spicher and S. Grimme, J. Chem. Theory Comput., 2021, 17, 1701-1714
     DOI: 10.1021/acs.jctc.0c01306
   
   for ONIOM refer to:
   * C. Plett, A. Katbashev, S. Ehlert, S. Grimme, M. Bursch,
     Phys. Chem. Chem. Phys., 2023, 25, 17860-17868. DOI: 10.1039/D3CP02178E
   
   for DIPRO refer to:
   * J. Kohn, N. Gildemeister, S. Grimme, D. Fazzi, A. Hansen,
     J. Chem. Phys., 2023, just accepted.
   
   for PTB refer to:
   * S. Grimme, M. Mueller, A. Hansen, J. Chem. Phys., 2023, 158, 124111.
     DOI: 10.1063/5.0137838
   
   with help from (in alphabetical order)
   P. Atkinson, C. Bannwarth, F. Bohle, G. Brandenburg, E. Caldeweyher
   M. Checinski, S. Dohm, S. Ehlert, S. Ehrlich, I. Gerasimov, C. Hölzer
   A. Katbashev, J. Kohn, J. Koopman, C. Lavigne, S. Lehtola, F. März, M. Müller,
   F. Musil, H. Neugebauer, J. Pisarek, C. Plett, P. Pracht, F. Pultar,
   J. Seibert, P. Shushkov, S. Spicher, M. Stahn, M. Steiner, T. Strunk,
   J. Stückrath, T. Rose, and J. Unsleber
   
 * started run on 2025/05/15 at 16:19:51.984     
   ID    Z sym.   atoms
    1    8 O      1, 13, 15-17
    2    6 C      2-6, 8, 10, 11
    3    7 N      7, 9, 12, 14
    4    1 H      18-29

           -------------------------------------------------
          |                Calculation Setup                |
           -------------------------------------------------

          program call               : xtb /rds/general/user/hgt20/home/callum/QDESCP/Ribavirin_rdkit_conf_1/Ribavirin_rdkit_conf_1.xyz --acc 1 --gfn 2 --chrg 0 --uhf 0 --etemp 300 --input /rds/general/user/hgt20/home/callum/QDESCP/Ribavirin_rdkit_conf_1/Ribavirin_rdkit_conf_1_xtb.inp -P 1
          hostname                   : login-c
          coordinate file            : /rds/general/user/hgt20/home/callum/QDESCP/Ribavirin_rdkit_conf_1/Ribavirin_rdkit_conf_1.xyz
          omp threads                :                     1


           -------------------------------------------------
          |                 G F N 2 - x T B                 |
           -------------------------------------------------

        Reference                      10.1021/acs.jctc.8b01176
      * Hamiltonian:
        H0-scaling (s, p, d)           1.850000    2.230000    2.230000
        zeta-weighting                 0.500000
      * Dispersion:
        s8                             2.700000
        a1                             0.520000
        a2                             5.000000
        s9                             5.000000
      * Repulsion:
        kExp                           1.500000    1.000000
        rExp                           1.000000
      * Coulomb:
        alpha                          2.000000
        third order                    shell-resolved
        anisotropic                    true
        a3                             3.000000
        a5                             4.000000
        cn-shift                       1.200000
        cn-exp                         4.000000
        max-rad                        5.000000

q/qsh data taken from xtbrestart
CAMM data taken from xtbrestart

          ...................................................
          :                      SETUP                      :
          :.................................................:
          :  # basis functions                  80          :
          :  # atomic orbitals                  80          :
          :  # shells                           46          :
          :  # electrons                        94          :
          :  max. iterations                   250          :
          :  Hamiltonian                  GFN2-xTB          :
          :  restarted?                       true          :
          :  GBSA solvation                  false          :
          :  PC potential                    false          :
          :  electronic temp.          300.0000000     K    :
          :  accuracy                    1.0000000          :
          :  -> integral cutoff          0.2500000E+02      :
          :  -> integral neglect         0.1000000E-07      :
          :  -> SCF convergence          0.1000000E-05 Eh   :
          :  -> wf. convergence          0.1000000E-03 e    :
          :  Broyden damping             0.4000000          :
          :  net charge                          0          :
          :  unpaired electrons                  0          :
          ...................................................

 iter      E             dE          RMSdq      gap      omega  full diag
   1    -55.7869629 -0.557870E+02  0.498E-06    3.67       0.0  T
   2    -55.7869629  0.142109E-13  0.309E-06    3.67    6006.2  T
   3    -55.7869629 -0.213163E-13  0.159E-06    3.67   11697.8  T

   *** convergence criteria satisfied after 3 iterations ***

         #    Occupation            Energy/Eh            Energy/eV
      -------------------------------------------------------------
         1        2.0000           -0.7394156             -20.1205
       ...           ...                  ...                  ...
        41        2.0000           -0.4368757             -11.8880
        42        2.0000           -0.4323452             -11.7647
        43        2.0000           -0.4302465             -11.7076
        44        2.0000           -0.4193673             -11.4116
        45        2.0000           -0.4184419             -11.3864
        46        2.0000           -0.4065684             -11.0633
        47        2.0000           -0.3966933             -10.7946 (HOMO)
        48                         -0.2616979              -7.1212 (LUMO)
        49                         -0.2292278              -6.2376
        50                         -0.1406135              -3.8263
        51                         -0.0537878              -1.4636
        52                         -0.0119162              -0.3243
       ...                                ...                  ...
        80                          0.6927364              18.8503
      -------------------------------------------------------------
                  HL-Gap            0.1349954 Eh            3.6734 eV
             Fermi-level           -0.3291956 Eh           -8.9579 eV

 SCC (total)                   0 d,  0 h,  0 min,  0.022 sec
 SCC setup                      ...        0 min,  0.000 sec (  1.023%)
 Dispersion                     ...        0 min,  0.000 sec (  1.010%)
 classical contributions        ...        0 min,  0.000 sec (  0.373%)
 integral evaluation            ...        0 min,  0.005 sec ( 20.740%)
 iterations                     ...        0 min,  0.005 sec ( 21.787%)
 molecular gradient             ...        0 min,  0.012 sec ( 54.412%)
 printout                       ...        0 min,  0.000 sec (  0.624%)

         :::::::::::::::::::::::::::::::::::::::::::::::::::::
         ::                     SUMMARY                     ::
         :::::::::::::::::::::::::::::::::::::::::::::::::::::
         :: total energy             -55.284375659501 Eh    ::
         :: gradient norm              0.000196907398 Eh/a0 ::
         :: HOMO-LUMO gap              3.673412057121 eV    ::
         ::.................................................::
         :: SCC energy               -55.786793953613 Eh    ::
         :: -> isotropic ES            0.144404171983 Eh    ::
         :: -> anisotropic ES         -0.000569215631 Eh    ::
         :: -> anisotropic XC          0.009054813376 Eh    ::
         :: -> dispersion             -0.027436610128 Eh    ::
         :: repulsion energy           0.502418294112 Eh    ::
         :: add. restraining           0.000000000000 Eh    ::
         :: total charge               0.000000000000 e     ::
         :::::::::::::::::::::::::::::::::::::::::::::::::::::

           -------------------------------------------------
          |                Property Printout                |
           -------------------------------------------------

    * Orbital Energies and Occupations

         #    Occupation            Energy/Eh            Energy/eV
      -------------------------------------------------------------
         1        2.0000           -0.7394156             -20.1205
       ...           ...                  ...                  ...
        35        2.0000           -0.4895880             -13.3224
        36        2.0000           -0.4865294             -13.2391
        37        2.0000           -0.4644831             -12.6392
        38        2.0000           -0.4577460             -12.4559
        39        2.0000           -0.4456395             -12.1265
        40        2.0000           -0.4431767             -12.0595
        41        2.0000           -0.4368757             -11.8880
        42        2.0000           -0.4323452             -11.7647
        43        2.0000           -0.4302465             -11.7076
        44        2.0000           -0.4193673             -11.4116
        45        2.0000           -0.4184419             -11.3864
        46        2.0000           -0.4065684             -11.0633
        47        2.0000           -0.3966933             -10.7946 (HOMO)
        48                         -0.2616979              -7.1212 (LUMO)
        49                         -0.2292278              -6.2376
        50                         -0.1406135              -3.8263
        51                         -0.0537878              -1.4636
        52                         -0.0119162              -0.3243
        53                          0.0011965               0.0326
        54                          0.0113932               0.3100
        55                          0.0210380               0.5725
        56                          0.0336658               0.9161
        57                          0.0486195               1.3230
        58                          0.0700102               1.9051
       ...                                ...                  ...
        80                          0.6927364              18.8503
      -------------------------------------------------------------
                  HL-Gap            0.1349954 Eh            3.6734 eV
             Fermi-level           -0.3291956 Eh           -8.9579 eV

     #   Z          covCN         q      C6AA      α(0)
     1   8 O        1.655    -0.445    21.736     6.294
     2   6 C        3.673     0.069    19.645     6.352
     3   6 C        3.784     0.095    19.028     6.214
     4   6 C        3.745     0.108    18.871     6.197
     5   6 C        3.745     0.100    19.002     6.218
     6   6 C        3.727     0.161    18.098     6.074
     7   7 N        3.058     0.061    20.168     6.670
     8   6 C        3.132     0.102    25.552     8.275
     9   7 N        1.909    -0.289    28.337     7.892
    10   6 C        3.304     0.125    23.602     7.771
    11   6 C        2.746     0.279    22.279     7.729
    12   7 N        2.647    -0.263    26.830     7.693
    13   8 O        0.858    -0.415    21.972     6.285
    14   7 N        2.017    -0.231    26.829     7.683
    15   8 O        1.702    -0.308    19.141     5.907
    16   8 O        1.656    -0.437    21.587     6.272
    17   8 O        1.656    -0.439    21.610     6.275
    18   1 H        0.805     0.302     0.715     1.328
    19   1 H        0.923     0.035     2.512     2.479
    20   1 H        0.924     0.045     2.382     2.414
    21   1 H        0.924     0.073     2.055     2.242
    22   1 H        0.924     0.042     2.418     2.432
    23   1 H        0.924     0.052     2.297     2.370
    24   1 H        0.923     0.062     2.178     2.308
    25   1 H        0.927     0.062     2.170     2.303
    26   1 H        0.860     0.205     1.081     1.629
    27   1 H        0.860     0.197     1.123     1.660
    28   1 H        0.805     0.326     0.649     1.265
    29   1 H        0.805     0.326     0.648     1.265

 Mol. C6AA /au·bohr⁶  :       8928.857722
 Mol. C8AA /au·bohr⁸  :     198473.527391
 Mol. α(0) /au        :        139.494366


Wiberg/Mayer (AO) data.
largest (>0.10) Wiberg bond orders for each atom

 ---------------------------------------------------------------------------
     #   Z sym  total        # sym  WBO       # sym  WBO       # sym  WBO
 ---------------------------------------------------------------------------
     1   8 O    1.951 --     2 C    0.999    18 H    0.894
     2   6 C    3.960 --     1 O    0.999     3 C    0.987    20 H    0.968
                            19 H    0.968
     3   6 C    3.945 --     2 C    0.987     4 C    0.973    21 H    0.957
                            15 O    0.954
     4   6 C    3.967 --    17 O    1.012     3 C    0.973     5 C    0.966
                            22 H    0.956
     5   6 C    3.959 --    16 O    1.014     4 C    0.966    23 H    0.956
                             6 C    0.942
     6   6 C    3.939 --    15 O    1.003     7 N    0.958     5 C    0.942
                            24 H    0.940
     7   7 N    3.681 --     8 C    1.295    14 N    1.200     6 C    0.958
     8   6 C    3.961 --     9 N    1.511     7 N    1.295    25 H    0.962
                            14 N    0.121
     9   7 N    3.028 --     8 C    1.511    10 C    1.296
    10   6 C    3.965 --    14 N    1.495     9 N    1.296    11 C    0.981
    11   6 C    3.959 --    13 O    1.686    12 N    1.254    10 C    0.981
    12   7 N    3.391 --    11 C    1.254    27 H    0.941    26 H    0.936
                            13 O    0.213
    13   8 O    2.018 --    11 C    1.686    12 N    0.213
    14   7 N    2.978 --    10 C    1.495     7 N    1.200     8 C    0.121
    15   8 O    2.089 --     6 C    1.003     3 C    0.954
    16   8 O    1.975 --     5 C    1.014    28 H    0.873
    17   8 O    1.959 --     4 C    1.012    29 H    0.868
    18   1 H    0.909 --     1 O    0.894
    19   1 H    0.999 --     2 C    0.968
    20   1 H    0.998 --     2 C    0.968
    21   1 H    0.994 --     3 C    0.957
    22   1 H    0.998 --     4 C    0.956
    23   1 H    0.997 --     5 C    0.956
    24   1 H    0.996 --     6 C    0.940
    25   1 H    0.996 --     8 C    0.962
    26   1 H    0.958 --    12 N    0.936
    27   1 H    0.961 --    12 N    0.941
[...]
      -----------------------------------------------------------      

   * xtb version 6.7.1 (edcfbbe) compiled by 'conda@3ef47c1a292c' on 2024-11-25

   xtb is free software: you can redistribute it and/or modify it under
   the terms of the GNU Lesser General Public License as published by
   the Free Software Foundation, either version 3 of the License, or
   (at your option) any later version.
   
   xtb is distributed in the hope that it will be useful,
   but WITHOUT ANY WARRANTY; without even the implied warranty of
   MERCHANTABILITY or FITNESS FOR A PARTICULAR PURPOSE.  See the
   GNU Lesser General Public License for more details.
   
   Cite this work as:
   * C. Bannwarth, E. Caldeweyher, S. Ehlert, A. Hansen, P. Pracht,
     J. Seibert, S. Spicher, S. Grimme, WIREs Comput. Mol. Sci., 2020, 11,
     e01493. DOI: 10.1002/wcms.1493
   
   for GFN2-xTB:
   * C. Bannwarth, S. Ehlert and S. Grimme., J. Chem. Theory Comput., 2019,
     15, 1652-1671. DOI: 10.1021/acs.jctc.8b01176
   for GFN1-xTB:
   * S. Grimme, C. Bannwarth, P. Shushkov, J. Chem. Theory Comput., 2017,
     13, 1989-2009. DOI: 10.1021/acs.jctc.7b00118
   for GFN0-xTB:
   * P. Pracht, E. Caldeweyher, S. Ehlert, S. Grimme, ChemRxiv, 2019, preprint.
     DOI: 10.26434/chemrxiv.8326202.v1
   for GFN-FF:
   * S. Spicher and S. Grimme, Angew. Chem. Int. Ed., 2020, 59, 15665-15673.
     DOI: 10.1002/anie.202004239
   
   for ALPB and GBSA implicit solvation:
   * S. Ehlert, M. Stahn, S. Spicher, S. Grimme, J. Chem. Theory Comput.,
     2021, 17, 4250-4261. DOI: 10.1021/acs.jctc.1c00471
   
   for ddCOSMO and CPCM-X implicit solvation:
   * M. Stahn, S. Ehlert, S. Grimme, J. Phys. Chem. A,
     2023, XX, XXXX-XXXX. DOI: 10.1021/acs.jpca.3c04382
   
   for DFT-D4:
   * E. Caldeweyher, C. Bannwarth and S. Grimme, J. Chem. Phys., 2017,
     147, 034112. DOI: 10.1063/1.4993215
   * E. Caldeweyher, S. Ehlert, A. Hansen, H. Neugebauer, S. Spicher,
     C. Bannwarth and S. Grimme, J. Chem. Phys., 2019, 150, 154122.
     DOI: 10.1063/1.5090222
   * E. Caldeweyher, J.-M. Mewes, S. Ehlert and S. Grimme, Phys. Chem. Chem. Phys.
     2020, 22, 8499-8512. DOI: 10.1039/D0CP00502A
   
   for sTDA-xTB:
   * S. Grimme and C. Bannwarth, J. Chem. Phys., 2016, 145, 054103.
     DOI: 10.1063/1.4959605
   
   in the mass-spec context:
   * V. Asgeirsson, C. Bauer and S. Grimme, Chem. Sci., 2017, 8, 4879.
     DOI: 10.1039/c7sc00601b
   * J. Koopman and S. Grimme, ACS Omega 2019, 4, 12, 15120-15133.
     DOI: 10.1021/acsomega.9b02011
   
   for metadynamics refer to:
   * S. Grimme, J. Chem. Theory Comput., 2019, 155, 2847-2862
     DOI: 10.1021/acs.jctc.9b00143
   
   for SPH calculations refer to:
   * S. Spicher and S. Grimme, J. Chem. Theory Comput., 2021, 17, 1701-1714
     DOI: 10.1021/acs.jctc.0c01306
   
   for ONIOM refer to:
   * C. Plett, A. Katbashev, S. Ehlert, S. Grimme, M. Bursch,
     Phys. Chem. Chem. Phys., 2023, 25, 17860-17868. DOI: 10.1039/D3CP02178E
   
   for DIPRO refer to:
   * J. Kohn, N. Gildemeister, S. Grimme, D. Fazzi, A. Hansen,
     J. Chem. Phys., 2023, just accepted.
   
   for PTB refer to:
   * S. Grimme, M. Mueller, A. Hansen, J. Chem. Phys., 2023, 158, 124111.
     DOI: 10.1063/5.0137838
   
   with help from (in alphabetical order)
   P. Atkinson, C. Bannwarth, F. Bohle, G. Brandenburg, E. Caldeweyher
   M. Checinski, S. Dohm, S. Ehlert, S. Ehrlich, I. Gerasimov, C. Hölzer
   A. Katbashev, J. Kohn, J. Koopman, C. Lavigne, S. Lehtola, F. März, M. Müller,
   F. Musil, H. Neugebauer, J. Pisarek, C. Plett, P. Pracht, F. Pultar,
   J. Seibert, P. Shushkov, S. Spicher, M. Stahn, M. Steiner, T. Strunk,
   J. Stückrath, T. Rose, and J. Unsleber
   
 * started run on 2025/05/15 at 16:19:53.433     
   ID    Z sym.   atoms
    1    8 O      1, 13, 15-17
    2    6 C      2-6, 8, 10, 11
    3    7 N      7, 9, 12, 14
    4    1 H      18-29

           -------------------------------------------------
          |                Calculation Setup                |
           -------------------------------------------------

          program call               : xtb /rds/general/user/hgt20/home/callum/QDESCP/Ribavirin_rdkit_conf_1/Ribavirin_rdkit_conf_1.xyz --acc 1 --gfn 2 --chrg 0 --uhf 2 --etemp 300 --input /rds/general/user/hgt20/home/callum/QDESCP/Ribavirin_rdkit_conf_1/Ribavirin_rdkit_conf_1_xtb.inp -P 1
          hostname                   : login-c
          coordinate file            : /rds/general/user/hgt20/home/callum/QDESCP/Ribavirin_rdkit_conf_1/Ribavirin_rdkit_conf_1.xyz
          omp threads                :                     1


           -------------------------------------------------
          |                 G F N 2 - x T B                 |
           -------------------------------------------------

        Reference                      10.1021/acs.jctc.8b01176
      * Hamiltonian:
        H0-scaling (s, p, d)           1.850000    2.230000    2.230000
        zeta-weighting                 0.500000
      * Dispersion:
        s8                             2.700000
        a1                             0.520000
        a2                             5.000000
        s9                             5.000000
      * Repulsion:
        kExp                           1.500000    1.000000
        rExp                           1.000000
      * Coulomb:
        alpha                          2.000000
        third order                    shell-resolved
        anisotropic                    true
        a3                             3.000000
        a5                             4.000000
        cn-shift                       1.200000
        cn-exp                         4.000000
        max-rad                        5.000000


          ...................................................
          :                      SETUP                      :
          :.................................................:
          :  # basis functions                  80          :
          :  # atomic orbitals                  80          :
          :  # shells                           46          :
          :  # electrons                        94          :
          :  max. iterations                   250          :
          :  Hamiltonian                  GFN2-xTB          :
          :  restarted?                      false          :
          :  GBSA solvation                  false          :
          :  PC potential                    false          :
          :  electronic temp.          300.0000000     K    :
          :  accuracy                    1.0000000          :
          :  -> integral cutoff          0.2500000E+02      :
          :  -> integral neglect         0.1000000E-07      :
          :  -> SCF convergence          0.1000000E-05 Eh   :
          :  -> wf. convergence          0.1000000E-03 e    :
          :  Broyden damping             0.4000000          :
          :  net charge                          0          :
          :  unpaired electrons                  2          :
          ...................................................

 iter      E             dE          RMSdq      gap      omega  full diag
   1    -55.3334473 -0.553334E+02  0.497E+00    1.08       0.0  T
   2    -55.4713191 -0.137872E+00  0.326E+00    0.96       1.0  T
   3    -55.4332546  0.380644E-01  0.282E+00    0.67       1.0  T
   4    -55.5530265 -0.119772E+00  0.180E+00    1.27       1.0  T
   5    -55.4979891  0.550375E-01  0.186E+00    0.32       1.0  T
   6    -55.5971414 -0.991523E-01  0.117E+00    0.60       1.0  T
   7    -55.6251285 -0.279871E-01  0.691E-01    0.65       1.0  T
   8    -55.6064265  0.187019E-01  0.853E-01    0.76       1.0  T
   9    -55.6249647 -0.185382E-01  0.683E-01    0.75       1.0  T
  10    -55.6284506 -0.348582E-02  0.566E-01    0.72       1.0  T
  11    -55.6378908 -0.944030E-02  0.239E-01    0.72       1.0  T
  12    -55.6382470 -0.356151E-03  0.203E-01    0.71       1.0  T
  13    -55.6389187 -0.671681E-03  0.139E-01    0.71       1.0  T
  14    -55.6392190 -0.300291E-03  0.903E-02    0.71       1.0  T
  15    -55.6391940  0.249531E-04  0.836E-02    0.70       1.0  T
  16    -55.6394186 -0.224568E-03  0.211E-02    0.70       1.0  T
  17    -55.6394099  0.872167E-05  0.216E-02    0.70       1.0  T
  18    -55.6394250 -0.151586E-04  0.662E-03    0.70       2.8  T
  19    -55.6394262 -0.118062E-05  0.278E-03    0.70       6.7  T
  20    -55.6394264 -0.194641E-06  0.166E-03    0.70      11.2  T
  21    -55.6394265 -0.111536E-06  0.197E-04    0.70      94.5  T
  22    -55.6394265 -0.137310E-08  0.875E-05    0.70     212.2  T

   *** convergence criteria satisfied after 22 iterations ***

         #    Occupation            Energy/Eh            Energy/eV
      -------------------------------------------------------------
         1        2.0000           -0.7358988             -20.0248
       ...           ...                  ...                  ...
        42        2.0000           -0.4297991             -11.6954
        43        2.0000           -0.4265219             -11.6063
        44        2.0000           -0.4221882             -11.4883
        45        1.9849           -0.4131870             -11.2434
        46        1.8377           -0.4107786             -11.1779
        47        1.1774           -0.4077620             -11.0958
        48        1.0000           -0.2511203              -6.8333 (HOMO)
        49        0.0000           -0.2255394              -6.1372 (LUMO)
        50                         -0.1316401              -3.5821
        51                         -0.0485165              -1.3202
        52                         -0.0073792              -0.2008
        53                          0.0038161               0.1038
       ...                                ...                  ...
        80                          0.6948328              18.9074
      -------------------------------------------------------------
                  HL-Gap            0.0255809 Eh            0.6961 eV
             Fermi-level           -0.3237746 Eh           -8.8104 eV

 transition dipole moment (au) for excitation:          47          48
     X       Y       Z   
  -0.1157   0.0132  -0.0035  total (au/Debye):    0.116   0.296
 dE (eV)             :    4.262
 oscillator strength :  0.20038E-02

 SCC (total)                   0 d,  0 h,  0 min,  0.079 sec
 SCC setup                      ...        0 min,  0.000 sec (  0.264%)
 Dispersion                     ...        0 min,  0.000 sec (  0.276%)
 classical contributions        ...        0 min,  0.000 sec (  0.094%)
 integral evaluation            ...        0 min,  0.005 sec (  5.787%)
 iterations                     ...        0 min,  0.057 sec ( 72.769%)
 molecular gradient             ...        0 min,  0.012 sec ( 15.252%)
 printout                       ...        0 min,  0.004 sec (  5.550%)

         :::::::::::::::::::::::::::::::::::::::::::::::::::::
         ::                     SUMMARY                     ::
         :::::::::::::::::::::::::::::::::::::::::::::::::::::
         :: total energy             -55.136839315339 Eh    ::
         :: gradient norm              0.154471941189 Eh/a0 ::
         :: HOMO-LUMO gap              0.696091760765 eV    ::
         ::.................................................::
         :: SCC energy               -55.639257609451 Eh    ::
         :: -> isotropic ES            0.132410955484 Eh    ::
         :: -> anisotropic ES         -0.001184028043 Eh    ::
         :: -> anisotropic XC          0.003796041334 Eh    ::
         :: -> dispersion             -0.027453237373 Eh    ::
         :: repulsion energy           0.502418294112 Eh    ::
         :: add. restraining           0.000000000000 Eh    ::
         :: total charge               0.000000000028 e     ::
         :::::::::::::::::::::::::::::::::::::::::::::::::::::

           -------------------------------------------------
          |                Property Printout                |
           -------------------------------------------------

    * Orbital Energies and Occupations

         #    Occupation            Energy/Eh            Energy/eV
      -------------------------------------------------------------
         1        2.0000           -0.7358988             -20.0248
       ...           ...                  ...                  ...
        36        2.0000           -0.4857801             -13.2187
        37        2.0000           -0.4625069             -12.5855
        38        2.0000           -0.4529826             -12.3263
        39        2.0000           -0.4446118             -12.0985
        40        2.0000           -0.4411016             -12.0030
        41        2.0000           -0.4329308             -11.7806
        42        2.0000           -0.4297991             -11.6954
        43        2.0000           -0.4265219             -11.6063
        44        2.0000           -0.4221882             -11.4883
        45        1.9849           -0.4131870             -11.2434
        46        1.8377           -0.4107786             -11.1779
        47        1.1774           -0.4077620             -11.0958
        48        1.0000           -0.2511203              -6.8333 (HOMO)
        49        0.0000           -0.2255394              -6.1372 (LUMO)
        50                         -0.1316401              -3.5821
        51                         -0.0485165              -1.3202
        52                         -0.0073792              -0.2008
        53                          0.0038161               0.1038
        54                          0.0134779               0.3668
        55                          0.0232568               0.6328
        56                          0.0369090               1.0043
        57                          0.0508637               1.3841
        58                          0.0751687               2.0454
        59                          0.0946203               2.5747
       ...                                ...                  ...
        80                          0.6948328              18.9074
      -------------------------------------------------------------
                  HL-Gap            0.0255809 Eh            0.6961 eV
             Fermi-level           -0.3237746 Eh           -8.8104 eV

     #   Z          covCN         q      C6AA      α(0)
     1   8 O        1.655    -0.443    21.709     6.290
     2   6 C        3.673     0.069    19.643     6.351
     3   6 C        3.784     0.095    19.028     6.213
     4   6 C        3.745     0.108    18.874     6.197
     5   6 C        3.745     0.099    19.008     6.219
     6   6 C        3.727     0.162    18.077     6.070
     7   7 N        3.058     0.040    20.542     6.732
     8   6 C        3.132     0.099    25.613     8.285
     9   7 N        1.909    -0.242    27.169     7.728
    10   6 C        3.304     0.104    24.011     7.838
    11   6 C        2.746     0.235    23.081     7.867
    12   7 N        2.647    -0.266    26.903     7.703
    13   8 O        0.858    -0.342    20.556     6.079
    14   7 N        2.017    -0.250    27.305     7.750
    15   8 O        1.702    -0.305    19.083     5.898
    16   8 O        1.656    -0.437    21.584     6.272
    17   8 O        1.656    -0.437    21.580     6.271
    18   1 H        0.805     0.302     0.715     1.328
    19   1 H        0.923     0.035     2.516     2.480
    20   1 H        0.924     0.045     2.382     2.414
    21   1 H        0.924     0.073     2.053     2.240
    22   1 H        0.924     0.042     2.416     2.431
    23   1 H        0.924     0.054     2.274     2.358
    24   1 H        0.923     0.058     2.218     2.329
    25   1 H        0.927     0.064     2.154     2.295
    26   1 H        0.860     0.198     1.119     1.657
    27   1 H        0.860     0.192     1.149     1.679
    28   1 H        0.805     0.323     0.655     1.271
    29   1 H        0.805     0.326     0.648     1.265

 Mol. C6AA /au·bohr⁶  :       8925.287100
 Mol. C8AA /au·bohr⁸  :     198466.590890
 Mol. α(0) /au        :        139.511677


Wiberg/Mayer (AO) data.
largest (>0.10) Wiberg bond orders for each atom

 ---------------------------------------------------------------------------
     #   Z sym  total        # sym  WBO       # sym  WBO       # sym  WBO
 ---------------------------------------------------------------------------
     1   8 O    1.951 --     2 C    1.000    18 H    0.894
     2   6 C    3.958 --     1 O    1.000     3 C    0.986    20 H    0.968
                            19 H    0.968
     3   6 C    3.944 --     2 C    0.986     4 C    0.973    21 H    0.956
                            15 O    0.956
     4   6 C    3.966 --    17 O    1.012     3 C    0.973     5 C    0.966
                            22 H    0.955
     5   6 C    3.954 --    16 O    1.012     4 C    0.966    23 H    0.956
                             6 C    0.940
     6   6 C    3.938 --    15 O    1.001     7 N    0.964     5 C    0.940
                            24 H    0.938
     7   7 N    3.617 --     8 C    1.283    14 N    1.114     6 C    0.964
                             9 N    0.122
     8   6 C    3.946 --     9 N    1.496     7 N    1.283    25 H    0.959
     9   7 N    3.085 --     8 C    1.496    10 C    1.224     7 N    0.122
    10   6 C    3.829 --    14 N    1.267     9 N    1.224    11 C    1.076
    11   6 C    3.890 --    13 O    1.487    12 N    1.155    10 C    1.076
    12   7 N    3.268 --    11 C    1.155    27 H    0.942    26 H    0.937
                            13 O    0.119
    13   8 O    1.922 --    11 C    1.487    12 N    0.119
    14   7 N    2.821 --    10 C    1.267     7 N    1.114
    15   8 O    2.088 --     6 C    1.001     3 C    0.956
    16   8 O    1.974 --     5 C    1.012    28 H    0.874
    17   8 O    1.958 --     4 C    1.012    29 H    0.868
    18   1 H    0.909 --     1 O    0.894
    19   1 H    0.998 --     2 C    0.968
    20   1 H    0.998 --     2 C    0.968
    21   1 H    0.993 --     3 C    0.956
    22   1 H    0.996 --     4 C    0.955
    23   1 H    0.997 --     5 C    0.956
    24   1 H    0.992 --     6 C    0.938
    25   1 H    0.994 --     8 C    0.959
    26   1 H    0.960 --    12 N    0.937
    27   1 H    0.960 --    12 N    0.942
    28   1 H    0.895 --    16 O    0.874
    29   1 H    0.894 --    17 O    0.868
 ---------------------------------------------------------------------------

Topologies differ in total number of bonds
Writing topology from bond orders to xtbtopo.mol

molecular dipole:
                 x           y           z       tot (Debye)
 q only:       -0.710      -0.419       1.318
   full:       -0.692      -0.670       1.747       5.072
molecular quadrupole (traceless):
                xx          xy          yy          xz          yz          zz
 q only:        6.004       0.040      -1.299       4.421      -8.392      -4.705
  q+dip:        7.155       4.186      -1.075       4.362      -8.989      -6.080
   full:        7.226       4.061      -1.090       3.772      -9.173      -6.136


           -------------------------------------------------
          | TOTAL ENERGY              -55.136839315339 Eh   |
          | GRADIENT NORM               0.154471941189 Eh/α |
          | HOMO-LUMO GAP               0.696091760765 eV   |
           -------------------------------------------------

------------------------------------------------------------------------
 * finished run on 2025/05/15 at 16:19:53.521     
------------------------------------------------------------------------
 total:
 * wall-time:     0 d,  0 h,  0 min,  0.089 sec
 *  cpu-time:     0 d,  0 h,  0 min,  0.055 sec
 * ratio c/w:     0.624 speedup
 SCF:
 * wall-time:     0 d,  0 h,  0 min,  0.079 sec
 *  cpu-time:     0 d,  0 h,  0 min,  0.047 sec
 * ratio c/w:     0.591 speedup


