41
 energy: -72.629446081120 gnorm: 0.000352167622 xtb: 6.7.1 (edcfbbe)
C           -0.58847493094280       -3.44376794456104       -0.12441467783295
C           -0.05819472683137       -2.07202740679728       -0.32167898374827
C            1.23670862732708       -1.65278863034942       -0.36044346061910
C            1.22725360451105       -0.22950518535566       -0.53665572648670
C           -0.12157465222070        0.16878426456408       -0.59436019161545
N           -0.90942504496640       -0.97076403740200       -0.44149529701806
C           -2.29485189102015       -1.03411065446944       -0.41392372515077
C           -2.97885618590922        0.16472491401616        0.14144999666121
C           -4.16482806236547        0.60477533065525       -0.43806854118887
C           -4.85227885089319        1.67478345523332        0.10206434896899
C           -4.36310945895888        2.28600539752629        1.24722011742344
Cl          -5.21559401474027        3.62255395396791        1.92862274251077
C           -3.20139484970507        1.83408591944575        1.85760550318324
C           -2.50929636504659        0.77559671058953        1.30232630844169
O           -2.90805726527320       -2.01597150342382       -0.76782255944148
C           -0.45401947931280        1.48819105156883       -0.86884448513809
C            0.56984134743512        2.39866432057799       -1.00714479117228
C            1.91804625896998        2.02281031188922       -0.89552785204772
O            2.81354425911588        3.04117208589113       -1.04211498816929
C            4.18428495301293        2.74469179745307       -0.94538976189842
C            2.25584059150290        0.69896797166885       -0.67392730653704
C            2.46449297481038       -2.48338604658088       -0.19275821868811
C            2.86658386598279       -2.59432149838004        1.26237656118870
O            4.06965491888322       -3.17473314057139        1.38970715940081
O            2.22186269400998       -2.23152499234763        2.20599894175297
H            0.21875375782889       -4.12118382097720        0.13861887754957
H           -1.32844494350367       -3.45497704428935        0.67400923413297
H           -1.08171703786868       -3.80012483358173       -1.02789758167191
H           -4.53417730664493        0.10545013659988       -1.32081941300445
H           -5.76242439056053        2.03107362421958       -0.35396086574773
H           -2.84506068692347        2.30918501391270        2.75776477885051
H           -1.60699473169127        0.41826518012575        1.77544560586787
H           -1.47625187226877        1.81074446187267       -0.98092695073076
H            0.35622486012378        3.43504064385422       -1.21225816519156
H            4.43737001645892        2.32721543953884        0.03480517075522
H            4.50225308837919        2.04960802919897       -1.72975976762570
H            4.70189554940284        3.69364398799337       -1.07633193517208
H            3.28203018168274        0.37484211033786       -0.61302218056122
H            2.31452882623637       -3.49716851657885       -0.57010907478389
H            3.30335874350433       -2.05172891503434       -0.74128686825856
H            4.31069762847148       -3.25269194199749        2.32622802281081
