----- Optimization -----
      -----------------------------------------------------------      
     |                   =====================                   |     
     |                           x T B                           |     
     |                   =====================                   |     
     |                         S. Grimme                         |     
     |          Mulliken Center for Theoretical Chemistry        |     
     |                    University of Bonn                     |     
      -----------------------------------------------------------      

   * xtb version 6.7.1 (edcfbbe) compiled by 'conda@3ef47c1a292c' on 2024-11-25

   xtb is free software: you can redistribute it and/or modify it under
   the terms of the GNU Lesser General Public License as published by
   the Free Software Foundation, either version 3 of the License, or
   (at your option) any later version.
   
   xtb is distributed in the hope that it will be useful,
   but WITHOUT ANY WARRANTY; without even the implied warranty of
   MERCHANTABILITY or FITNESS FOR A PARTICULAR PURPOSE.  See the
   GNU Lesser General Public License for more details.
   
   Cite this work as:
   * C. Bannwarth, E. Caldeweyher, S. Ehlert, A. Hansen, P. Pracht,
     J. Seibert, S. Spicher, S. Grimme, WIREs Comput. Mol. Sci., 2020, 11,
     e01493. DOI: 10.1002/wcms.1493
   
   for GFN2-xTB:
   * C. Bannwarth, S. Ehlert and S. Grimme., J. Chem. Theory Comput., 2019,
     15, 1652-1671. DOI: 10.1021/acs.jctc.8b01176
   for GFN1-xTB:
   * S. Grimme, C. Bannwarth, P. Shushkov, J. Chem. Theory Comput., 2017,
     13, 1989-2009. DOI: 10.1021/acs.jctc.7b00118
   for GFN0-xTB:
   * P. Pracht, E. Caldeweyher, S. Ehlert, S. Grimme, ChemRxiv, 2019, preprint.
     DOI: 10.26434/chemrxiv.8326202.v1
   for GFN-FF:
   * S. Spicher and S. Grimme, Angew. Chem. Int. Ed., 2020, 59, 15665-15673.
     DOI: 10.1002/anie.202004239
   
   for ALPB and GBSA implicit solvation:
   * S. Ehlert, M. Stahn, S. Spicher, S. Grimme, J. Chem. Theory Comput.,
     2021, 17, 4250-4261. DOI: 10.1021/acs.jctc.1c00471
   
   for ddCOSMO and CPCM-X implicit solvation:
   * M. Stahn, S. Ehlert, S. Grimme, J. Phys. Chem. A,
     2023, XX, XXXX-XXXX. DOI: 10.1021/acs.jpca.3c04382
   
   for DFT-D4:
   * E. Caldeweyher, C. Bannwarth and S. Grimme, J. Chem. Phys., 2017,
     147, 034112. DOI: 10.1063/1.4993215
   * E. Caldeweyher, S. Ehlert, A. Hansen, H. Neugebauer, S. Spicher,
     C. Bannwarth and S. Grimme, J. Chem. Phys., 2019, 150, 154122.
     DOI: 10.1063/1.5090222
   * E. Caldeweyher, J.-M. Mewes, S. Ehlert and S. Grimme, Phys. Chem. Chem. Phys.
     2020, 22, 8499-8512. DOI: 10.1039/D0CP00502A
   
   for sTDA-xTB:
   * S. Grimme and C. Bannwarth, J. Chem. Phys., 2016, 145, 054103.
     DOI: 10.1063/1.4959605
   
   in the mass-spec context:
   * V. Asgeirsson, C. Bauer and S. Grimme, Chem. Sci., 2017, 8, 4879.
     DOI: 10.1039/c7sc00601b
   * J. Koopman and S. Grimme, ACS Omega 2019, 4, 12, 15120-15133.
     DOI: 10.1021/acsomega.9b02011
   
   for metadynamics refer to:
   * S. Grimme, J. Chem. Theory Comput., 2019, 155, 2847-2862
     DOI: 10.1021/acs.jctc.9b00143
   
   for SPH calculations refer to:
   * S. Spicher and S. Grimme, J. Chem. Theory Comput., 2021, 17, 1701-1714
     DOI: 10.1021/acs.jctc.0c01306
   
   for ONIOM refer to:
   * C. Plett, A. Katbashev, S. Ehlert, S. Grimme, M. Bursch,
     Phys. Chem. Chem. Phys., 2023, 25, 17860-17868. DOI: 10.1039/D3CP02178E
   
   for DIPRO refer to:
   * J. Kohn, N. Gildemeister, S. Grimme, D. Fazzi, A. Hansen,
     J. Chem. Phys., 2023, just accepted.
   
   for PTB refer to:
   * S. Grimme, M. Mueller, A. Hansen, J. Chem. Phys., 2023, 158, 124111.
     DOI: 10.1063/5.0137838
   
   with help from (in alphabetical order)
   P. Atkinson, C. Bannwarth, F. Bohle, G. Brandenburg, E. Caldeweyher
   M. Checinski, S. Dohm, S. Ehlert, S. Ehrlich, I. Gerasimov, C. Hölzer
   A. Katbashev, J. Kohn, J. Koopman, C. Lavigne, S. Lehtola, F. März, M. Müller,
   F. Musil, H. Neugebauer, J. Pisarek, C. Plett, P. Pracht, F. Pultar,
   J. Seibert, P. Shushkov, S. Spicher, M. Stahn, M. Steiner, T. Strunk,
   J. Stückrath, T. Rose, and J. Unsleber
   
 * started run on 2025/05/15 at 16:19:40.402     
   ID    Z sym.   atoms
    1    6 C      1-7, 9, 11, 13-16, 18, 19, 21, 22, 24, 26-31
    2    7 N      8, 10, 12, 17, 20, 23, 25
    3    8 O      32, 33
    4    1 H      34-62

           -------------------------------------------------
          |                Calculation Setup                |
           -------------------------------------------------

          program call               : xtb /rds/general/user/hgt20/home/callum/QDESCP/Palbociclib_rdkit_conf_18/Palbociclib_rdkit_conf_18.xyz --opt normal --acc 1 --gfn 2 --chrg 0 --uhf 0 -P 1
          hostname                   : login-c
          coordinate file            : /rds/general/user/hgt20/home/callum/QDESCP/Palbociclib_rdkit_conf_18/Palbociclib_rdkit_conf_18.xyz
          omp threads                :                     1


           -------------------------------------------------
          |                 G F N 2 - x T B                 |
           -------------------------------------------------

        Reference                      10.1021/acs.jctc.8b01176
      * Hamiltonian:
        H0-scaling (s, p, d)           1.850000    2.230000    2.230000
        zeta-weighting                 0.500000
      * Dispersion:
        s8                             2.700000
        a1                             0.520000
        a2                             5.000000
        s9                             5.000000
      * Repulsion:
        kExp                           1.500000    1.000000
        rExp                           1.000000
      * Coulomb:
        alpha                          2.000000
        third order                    shell-resolved
        anisotropic                    true
        a3                             3.000000
        a5                             4.000000
        cn-shift                       1.200000
        cn-exp                         4.000000
        max-rad                        5.000000


          ...................................................
          :                      SETUP                      :
          :.................................................:
          :  # basis functions                 161          :
          :  # atomic orbitals                 161          :
          :  # shells                           95          :
          :  # electrons                       172          :
          :  max. iterations                   250          :
          :  Hamiltonian                  GFN2-xTB          :
          :  restarted?                      false          :
          :  GBSA solvation                  false          :
          :  PC potential                    false          :
          :  electronic temp.          300.0000000     K    :
          :  accuracy                    1.0000000          :
          :  -> integral cutoff          0.2500000E+02      :
          :  -> integral neglect         0.1000000E-07      :
          :  -> SCF convergence          0.1000000E-05 Eh   :
          :  -> wf. convergence          0.1000000E-03 e    :
          :  Broyden damping             0.4000000          :
          :  net charge                          0          :
          :  unpaired electrons                  0          :
          ...................................................

 iter      E             dE          RMSdq      gap      omega  full diag
   1    -95.9259755 -0.959260E+02  0.365E+00    1.66       0.0  T
   2    -96.0744248 -0.148449E+00  0.214E+00    1.77       1.0  T
   3    -96.0837872 -0.936241E-02  0.117E+00    1.64       1.0  T
   4    -96.0909749 -0.718776E-02  0.328E-01    1.41       1.0  T
   5    -96.0957217 -0.474676E-02  0.132E-01    1.49       1.0  T
   6    -96.0964718 -0.750113E-03  0.545E-02    1.49       1.0  T
   7    -96.0965515 -0.796343E-04  0.202E-02    1.50       1.0  T
   8    -96.0965545 -0.301408E-05  0.840E-03    1.51       1.5  T
   9    -96.0965554 -0.879201E-06  0.315E-03    1.50       4.0  T
  10    -96.0965556 -0.198481E-06  0.125E-03    1.50      10.1  T
  11    -96.0965556 -0.350133E-07  0.639E-04    1.50      19.9  T
  12    -96.0965556 -0.745946E-08  0.266E-04    1.50      47.8  T

   *** convergence criteria satisfied after 12 iterations ***

         #    Occupation            Energy/Eh            Energy/eV
      -------------------------------------------------------------
         1        2.0000           -0.7015195             -19.0893
       ...           ...                  ...                  ...
        80        2.0000           -0.4036758             -10.9846
        81        2.0000           -0.4000616             -10.8862
        82        2.0000           -0.3906635             -10.6305
        83        2.0000           -0.3823883             -10.4053
        84        2.0000           -0.3778022             -10.2805
        85        2.0000           -0.3747894             -10.1985
        86        2.0000           -0.3484875              -9.4828 (HOMO)
        87                         -0.2932281              -7.9791 (LUMO)
        88                         -0.2704714              -7.3599
        89                         -0.2519541              -6.8560
        90                         -0.2440867              -6.6419
        91                         -0.2348629              -6.3909
       ...                                ...                  ...
       161                          0.6836374              18.6027
      -------------------------------------------------------------
                  HL-Gap            0.0552595 Eh            1.5037 eV
             Fermi-level           -0.3208578 Eh           -8.7310 eV

 SCC (total)                   0 d,  0 h,  0 min,  0.191 sec
 SCC setup                      ...        0 min,  0.001 sec (  0.352%)
 Dispersion                     ...        0 min,  0.001 sec (  0.523%)
 classical contributions        ...        0 min,  0.000 sec (  0.159%)
 integral evaluation            ...        0 min,  0.013 sec (  6.997%)
 iterations                     ...        0 min,  0.081 sec ( 42.430%)
 molecular gradient             ...        0 min,  0.094 sec ( 49.341%)
 printout                       ...        0 min,  0.000 sec (  0.193%)

         :::::::::::::::::::::::::::::::::::::::::::::::::::::
         ::                     SUMMARY                     ::
         :::::::::::::::::::::::::::::::::::::::::::::::::::::
         :: total energy             -94.857657434306 Eh    ::
         :: gradient norm              0.127884855146 Eh/a0 ::
         :: HOMO-LUMO gap              1.503686574019 eV    ::
         ::.................................................::
         :: SCC energy               -96.096651650469 Eh    ::
         :: -> isotropic ES            0.111287990271 Eh    ::
         :: -> anisotropic ES          0.010768546187 Eh    ::
         :: -> anisotropic XC          0.055235907068 Eh    ::
         :: -> dispersion             -0.070701021863 Eh    ::
         :: repulsion energy           1.238994216163 Eh    ::
         :: add. restraining           0.000000000000 Eh    ::
         :: total charge              -0.000000000000 e     ::
         :::::::::::::::::::::::::::::::::::::::::::::::::::::

      ----------------------------------------------------------- 
     |                   =====================                   |
     |                        A N C O P T                        |
     |                   =====================                   |
     |               Approximate Normal Coordinate               |
     |                Rational Function Optimizer                |
      ----------------------------------------------------------- 
      ----------------------------------------------------------- 
     |                   =====================                   |
     |                        A N C O P T                        |
     |                   =====================                   |
     |               Approximate Normal Coordinate               |
     |                Rational Function Optimizer                |
      ----------------------------------------------------------- 

          ...................................................
          :                      SETUP                      :
          :.................................................:
          :   optimization level            normal          :
          :   max. optcycles                   200          :
          :   ANC micro-cycles                  20          :
          :   degrees of freedom               180          :
          :.................................................:
          :   RF solver                   davidson          :
          :   write xtbopt.log                true          :
          :   linear?                        false          :
          :   energy convergence         0.5000000E-05 Eh   :
          :   grad. convergence          0.1000000E-02 Eh/α :
          :   maxmium RF displ.          1.0000000          :
          :   Hlow (freq-cutoff)         0.1000000E-01      :
          :   Hmax (freq-cutoff)         5.0000000          :
          :   S6 in model hess.         20.0000000          :
          ...................................................

generating ANC from exact Hessian ...
Using Lindh-Hessian (1995)
 Shifting diagonal of input Hessian by    9.8475714960942849E-003
 Lowest  eigenvalues of input Hessian
    0.000000    0.000000    0.000000    0.000000    0.000000    0.000000
    0.010000    0.010080    0.010250    0.010411    0.010699    0.011070
    0.011100    0.011918    0.011954    0.012384    0.013124    0.013545
 Highest eigenvalues
    2.048702    2.063744    2.124715    2.226841    2.258018    2.303519


........................................................................
.............................. CYCLE    1 ..............................
........................................................................

 iter      E             dE          RMSdq      gap      omega  full diag
   1    -96.0965556 -0.960966E+02  0.834E-05    1.50       0.0  T
   2    -96.0965556 -0.136453E-09  0.545E-05    1.50     233.0  T
   3    -96.0965556 -0.114085E-09  0.311E-05    1.50     408.1  T
     SCC iter.                  ...        0 min,  0.014 sec
     gradient                   ...        0 min,  0.053 sec
 * total energy  :   -94.8576574 Eh     change       -0.1396344E-08 Eh
   gradient norm :     0.1278859 Eh/α   predicted     0.0000000E+00 (-100.00%)
   displ. norm   :     0.4035264 α      lambda       -0.2251434E-01
   maximum displ.:     0.1461805 α      in ANC's #33, #13, #37, ...

........................................................................
.............................. CYCLE    2 ..............................
........................................................................

 iter      E             dE          RMSdq      gap      omega  full diag
   1    -96.1428809 -0.961429E+02  0.191E-01    1.46       0.0  T
   2    -96.1431621 -0.281159E-03  0.118E-01    1.54       1.0  T
   3    -96.1431631 -0.105353E-05  0.627E-02    1.52       1.0  T
   4    -96.1432339 -0.708011E-04  0.165E-02    1.53       1.0  T
   5    -96.1432491 -0.151562E-04  0.526E-03    1.53       2.4  T
   6    -96.1432502 -0.109793E-05  0.251E-03    1.53       5.1  T
   7    -96.1432502 -0.812063E-07  0.106E-03    1.53      12.0  T
   8    -96.1432503 -0.286659E-07  0.321E-04    1.53      39.6  T
   9    -96.1432503 -0.210815E-08  0.163E-04    1.53      77.9  T
     SCC iter.                  ...        0 min,  0.038 sec
     gradient                   ...        0 min,  0.080 sec
 * total energy  :   -94.8738112 Eh     change       -0.1615378E-01 Eh
   gradient norm :     0.0583227 Eh/α   predicted    -0.1311998E-01 ( -18.78%)
   displ. norm   :     0.4410385 α      lambda       -0.9692630E-02
   maximum displ.:     0.1805843 α      in ANC's #13, #33, #26, ...

........................................................................
.............................. CYCLE    3 ..............................
........................................................................

 iter      E             dE          RMSdq      gap      omega  full diag
   1    -96.1760510 -0.961761E+02  0.142E-01    1.45       0.0  T
   2    -96.1762704 -0.219370E-03  0.871E-02    1.54       1.0  T
   3    -96.1763112 -0.408301E-04  0.504E-02    1.53       1.0  T
   4    -96.1763375 -0.262310E-04  0.152E-02    1.54       1.0  T
   5    -96.1763508 -0.132896E-04  0.429E-03    1.54       3.0  T
   6    -96.1763517 -0.943820E-06  0.172E-03    1.54       7.4  T
   7    -96.1763517 -0.344079E-07  0.702E-04    1.54      18.1  T
   8    -96.1763517 -0.900812E-08  0.228E-04    1.54      55.6  T
     SCC iter.                  ...        0 min,  0.067 sec
     gradient                   ...        0 min,  0.092 sec
 * total energy  :   -94.8798244 Eh     change       -0.6013200E-02 Eh
   gradient norm :     0.0203086 Eh/α   predicted    -0.5788998E-02 (  -3.73%)
   displ. norm   :     0.3340048 α      lambda       -0.2196744E-02
   maximum displ.:     0.1931081 α      in ANC's #13, #8, #22, ...

........................................................................
.............................. CYCLE    4 ..............................
........................................................................

 iter      E             dE          RMSdq      gap      omega  full diag
   1    -96.1855109 -0.961855E+02  0.734E-02    1.48       0.0  T
   2    -96.1855477 -0.368250E-04  0.438E-02    1.51       1.0  T
   3    -96.1855427  0.496745E-05  0.255E-02    1.51       1.0  T
   4    -96.1855577 -0.149668E-04  0.680E-03    1.51       1.9  T
   5    -96.1855606 -0.285196E-05  0.196E-03    1.51       6.5  T
   6    -96.1855607 -0.169780E-06  0.820E-04    1.51      15.5  T
   7    -96.1855607 -0.525537E-08  0.256E-04    1.51      49.6  T
     SCC iter.                  ...        0 min,  0.030 sec
     gradient                   ...        0 min,  0.081 sec
 * total energy  :   -94.8814027 Eh     change       -0.1578302E-02 Eh
   gradient norm :     0.0134113 Eh/α   predicted    -0.1221022E-02 ( -22.64%)
   displ. norm   :     0.3651466 α      lambda       -0.1263947E-02
   maximum displ.:     0.2216781 α      in ANC's #13, #8, #12, ...

........................................................................
.............................. CYCLE    5 ..............................
........................................................................

 iter      E             dE          RMSdq      gap      omega  full diag
   1    -96.1898534 -0.961899E+02  0.698E-02    1.48       0.0  T
   2    -96.1898746 -0.211346E-04  0.414E-02    1.49       1.0  T
   3    -96.1898663  0.824339E-05  0.196E-02    1.49       1.0  T
   4    -96.1898784 -0.120610E-04  0.477E-03    1.49       2.7  T
   5    -96.1898797 -0.129270E-05  0.175E-03    1.49       7.3  T
   6    -96.1898798 -0.109598E-06  0.779E-04    1.49      16.3  T
   7    -96.1898798 -0.564539E-08  0.243E-04    1.49      52.3  T
     SCC iter.                  ...        0 min,  0.029 sec
     gradient                   ...        0 min,  0.073 sec
 * total energy  :   -94.8822504 Eh     change       -0.8477318E-03 Eh
   gradient norm :     0.0082595 Eh/α   predicted    -0.7162441E-03 ( -15.51%)
   displ. norm   :     0.2785190 α      lambda       -0.5037711E-03
   maximum displ.:     0.1605871 α      in ANC's #8, #13, #7, ...

........................................................................
.............................. CYCLE    6 ..............................
........................................................................

 iter      E             dE          RMSdq      gap      omega  full diag
   1    -96.1913783 -0.961914E+02  0.524E-02    1.48       0.0  T
   2    -96.1913839 -0.559824E-05  0.305E-02    1.48       1.0  T
   3    -96.1913798  0.417880E-05  0.110E-02    1.48       1.2  T
   4    -96.1913851 -0.538227E-05  0.224E-03    1.48       5.7  T
   5    -96.1913853 -0.203426E-06  0.102E-03    1.48      12.5  T
   6    -96.1913854 -0.237840E-07  0.514E-04    1.48      24.7  T
   7    -96.1913854 -0.661417E-08  0.170E-04    1.48      74.7  T
     SCC iter.                  ...        0 min,  0.057 sec
     gradient                   ...        0 min,  0.086 sec
 * total energy  :   -94.8826212 Eh     change       -0.3707340E-03 Eh
   gradient norm :     0.0073580 Eh/α   predicted    -0.2714258E-03 ( -26.79%)
   displ. norm   :     0.2896439 α      lambda       -0.4142781E-03
   maximum displ.:     0.1759110 α      in ANC's #8, #13, #7, ...

........................................................................
.............................. CYCLE    7 ..............................
........................................................................

 iter      E             dE          RMSdq      gap      omega  full diag
   1    -96.1920197 -0.961920E+02  0.572E-02    1.48       0.0  T
   2    -96.1920235 -0.380757E-05  0.334E-02    1.48       1.0  T
   3    -96.1920201  0.340936E-05  0.856E-03    1.48       1.5  T
   4    -96.1920244 -0.431393E-05  0.192E-03    1.48       6.6  T
   5    -96.1920246 -0.116439E-06  0.916E-04    1.48      13.9  T
   6    -96.1920246 -0.102732E-07  0.492E-04    1.48      25.8  T
     SCC iter.                  ...        0 min,  0.025 sec
     gradient                   ...        0 min,  0.083 sec
 * total energy  :   -94.8829345 Eh     change       -0.3133635E-03 Eh
   gradient norm :     0.0070589 Eh/α   predicted    -0.2245173E-03 ( -28.35%)
   displ. norm   :     0.3052743 α      lambda       -0.3721631E-03
   maximum displ.:     0.1848193 α      in ANC's #8, #7, #5, ...

........................................................................
.............................. CYCLE    8 ..............................
........................................................................

 iter      E             dE          RMSdq      gap      omega  full diag
   1    -96.1921727 -0.961922E+02  0.663E-02    1.49       0.0  T
   2    -96.1921760 -0.326813E-05  0.389E-02    1.49       1.0  T
   3    -96.1921719  0.405598E-05  0.887E-03    1.49       1.4  T
   4    -96.1921768 -0.489139E-05  0.224E-03    1.49       5.7  T
   5    -96.1921770 -0.181701E-06  0.104E-03    1.49      12.2  T
   6    -96.1921770 -0.191852E-07  0.522E-04    1.49      24.3  T
   7    -96.1921770 -0.632120E-08  0.204E-04    1.49      62.3  T
     SCC iter.                  ...        0 min,  0.057 sec
     gradient                   ...        0 min,  0.053 sec
 * total energy  :   -94.8832114 Eh     change       -0.2768170E-03 Eh
   gradient norm :     0.0069804 Eh/α   predicted    -0.2034238E-03 ( -26.51%)
   displ. norm   :     0.3039646 α      lambda       -0.3118305E-03
   maximum displ.:     0.1794363 α      in ANC's #8, #7, #5, ...

........................................................................
.............................. CYCLE    9 ..............................
........................................................................

 iter      E             dE          RMSdq      gap      omega  full diag
   1    -96.1920901 -0.961921E+02  0.690E-02    1.49       0.0  T
   2    -96.1920925 -0.240173E-05  0.406E-02    1.49       1.0  T
   3    -96.1920854  0.715306E-05  0.114E-02    1.49       1.1  T
   4    -96.1920937 -0.830140E-05  0.207E-03    1.49       6.1  T
   5    -96.1920938 -0.126496E-06  0.102E-03    1.49      12.5  T
   6    -96.1920938 -0.143685E-07  0.462E-04    1.49      27.5  T
   7    -96.1920938 -0.388862E-08  0.182E-04    1.49      69.9  T
     SCC iter.                  ...        0 min,  0.048 sec
     gradient                   ...        0 min,  0.053 sec
 * total energy  :   -94.8834413 Eh     change       -0.2299348E-03 Eh
   gradient norm :     0.0065678 Eh/α   predicted    -0.1703218E-03 ( -25.93%)
   displ. norm   :     0.2788464 α      lambda       -0.2672593E-03
   maximum displ.:     0.1499752 α      in ANC's #8, #5, #7, ...

........................................................................
.............................. CYCLE   10 ..............................
........................................................................

 iter      E             dE          RMSdq      gap      omega  full diag
   1    -96.1923696 -0.961924E+02  0.646E-02    1.49       0.0  T
   2    -96.1923718 -0.218880E-05  0.378E-02    1.49       1.0  T
   3    -96.1923615  0.102275E-04  0.136E-02    1.50       1.0  T
   4    -96.1923732 -0.116960E-04  0.188E-03    1.50       6.7  T
   5    -96.1923733 -0.107463E-06  0.911E-04    1.50      13.9  T
   6    -96.1923734 -0.897931E-08  0.408E-04    1.50      31.1  T
     SCC iter.                  ...        0 min,  0.025 sec
     gradient                   ...        0 min,  0.097 sec
 * total energy  :   -94.8836351 Eh     change       -0.1938535E-03 Eh
   gradient norm :     0.0054954 Eh/α   predicted    -0.1440212E-03 ( -25.71%)
   displ. norm   :     0.2506861 α      lambda       -0.1985244E-03
   maximum displ.:     0.1216427 α      in ANC's #8, #5, #14, ...

........................................................................
.............................. CYCLE   11 ..............................
........................................................................

 iter      E             dE          RMSdq      gap      omega  full diag
   1    -96.1922696 -0.961923E+02  0.520E-02    1.49       0.0  T
   2    -96.1922716 -0.195712E-05  0.304E-02    1.49       1.0  T
   3    -96.1922647  0.694774E-05  0.116E-02    1.50       1.1  T
   4    -96.1922727 -0.800004E-05  0.188E-03    1.50       6.7  T
   5    -96.1922728 -0.146336E-06  0.835E-04    1.50      15.2  T
   6    -96.1922728 -0.698532E-08  0.400E-04    1.50      31.7  T
     SCC iter.                  ...        0 min,  0.052 sec
     gradient                   ...        0 min,  0.053 sec
 * total energy  :   -94.8837724 Eh     change       -0.1372664E-03 Eh
   gradient norm :     0.0054842 Eh/α   predicted    -0.1055008E-03 ( -23.14%)
   displ. norm   :     0.1881057 α      lambda       -0.1465372E-03
   maximum displ.:     0.0676680 α      in ANC's #5, #13, #14, ...

........................................................................
.............................. CYCLE   12 ..............................
........................................................................

 iter      E             dE          RMSdq      gap      omega  full diag
   1    -96.1932597 -0.961933E+02  0.365E-02    1.49       0.0  T
   2    -96.1932618 -0.214279E-05  0.212E-02    1.49       1.0  T
   3    -96.1932584  0.339084E-05  0.873E-03    1.49       1.5  T
   4    -96.1932624 -0.399411E-05  0.186E-03    1.49       6.8  T
   5    -96.1932626 -0.173988E-06  0.700E-04    1.49      18.2  T
   6    -96.1932626 -0.905094E-08  0.328E-04    1.49      38.7  T
     SCC iter.                  ...        0 min,  0.025 sec
     gradient                   ...        0 min,  0.093 sec
 * total energy  :   -94.8838479 Eh     change       -0.7552472E-04 Eh
   gradient norm :     0.0040317 Eh/α   predicted    -0.7588109E-04 (   0.47%)
   displ. norm   :     0.1925069 α      lambda       -0.9820430E-04
   maximum displ.:     0.0890718 α      in ANC's #14, #8, #5, ...

........................................................................
.............................. CYCLE   13 ..............................
........................................................................

 iter      E             dE          RMSdq      gap      omega  full diag
   1    -96.1911827 -0.961912E+02  0.343E-02    1.48       0.0  T
   2    -96.1911839 -0.124142E-05  0.202E-02    1.49       1.0  T
   3    -96.1911826  0.128296E-05  0.579E-03    1.49       2.2  T
   4    -96.1911843 -0.162385E-05  0.136E-03    1.49       9.3  T
   5    -96.1911843 -0.549816E-07  0.675E-04    1.49      18.8  T
   6    -96.1911843 -0.445219E-08  0.342E-04    1.49      37.1  T
     SCC iter.                  ...        0 min,  0.026 sec
     gradient                   ...        0 min,  0.080 sec
 * total energy  :   -94.8838870 Eh     change       -0.3901274E-04 Eh
   gradient norm :     0.0047750 Eh/α   predicted    -0.5092948E-04 (  30.55%)
   displ. norm   :     0.0758598 α      lambda       -0.5866879E-04
   maximum displ.:     0.0477309 α      in ANC's #8, #7, #15, ...

........................................................................
.............................. CYCLE   14 ..............................
........................................................................

 iter      E             dE          RMSdq      gap      omega  full diag
   1    -96.1930190 -0.961930E+02  0.217E-02    1.49       0.0  T
   2    -96.1930201 -0.113541E-05  0.125E-02    1.49       1.0  T
   3    -96.1930187  0.145079E-05  0.588E-03    1.49       2.2  T
   4    -96.1930204 -0.171199E-05  0.132E-03    1.49       9.6  T
   5    -96.1930205 -0.909577E-07  0.374E-04    1.49      33.9  T
   6    -96.1930205 -0.160409E-08  0.202E-04    1.49      62.9  T
     SCC iter.                  ...        0 min,  0.058 sec
     gradient                   ...        0 min,  0.099 sec
 * total energy  :   -94.8839240 Eh     change       -0.3703006E-04 Eh
   gradient norm :     0.0038212 Eh/α   predicted    -0.2950510E-04 ( -20.32%)
   displ. norm   :     0.0758380 α      lambda       -0.5029442E-04
   maximum displ.:     0.0343782 α      in ANC's #14, #5, #10, ...

........................................................................
.............................. CYCLE   15 ..............................
........................................................................

 iter      E             dE          RMSdq      gap      omega  full diag
   1    -96.1928515 -0.961929E+02  0.157E-02    1.49       0.0  T
   2    -96.1928519 -0.408402E-06  0.919E-03    1.49       1.4  T
   3    -96.1928511  0.784659E-06  0.407E-03    1.49       3.1  T
   4    -96.1928520 -0.931123E-06  0.796E-04    1.49      15.9  T
   5    -96.1928520 -0.264164E-07  0.311E-04    1.49      40.8  T
     SCC iter.                  ...        0 min,  0.021 sec
     gradient                   ...        0 min,  0.083 sec
 * total energy  :   -94.8839558 Eh     change       -0.3178210E-04 Eh
   gradient norm :     0.0020665 Eh/α   predicted    -0.2529239E-04 ( -20.42%)
   displ. norm   :     0.1118808 α      lambda       -0.3450609E-04
   maximum displ.:     0.0643763 α      in ANC's #14, #5, #10, ...

........................................................................
.............................. CYCLE   16 ..............................
........................................................................

 iter      E             dE          RMSdq      gap      omega  full diag
   1    -96.1925351 -0.961925E+02  0.190E-02    1.50       0.0  T
   2    -96.1925354 -0.393161E-06  0.111E-02    1.49       1.1  T
   3    -96.1925344  0.100955E-05  0.437E-03    1.49       2.9  T
   4    -96.1925356 -0.116665E-05  0.784E-04    1.49      16.2  T
   5    -96.1925356 -0.248090E-07  0.312E-04    1.49      40.7  T
   6    -96.1925356 -0.121743E-08  0.142E-04    1.49      89.6  T
     SCC iter.                  ...        0 min,  0.025 sec
     gradient                   ...        0 min,  0.074 sec
 * total energy  :   -94.8839821 Eh     change       -0.2631308E-04 Eh
   gradient norm :     0.0025331 Eh/α   predicted    -0.1747206E-04 ( -33.60%)
   displ. norm   :     0.1719474 α      lambda       -0.4696865E-04
   maximum displ.:     0.0919014 α      in ANC's #14, #5, #10, ...

........................................................................
.............................. CYCLE   17 ..............................
........................................................................

 iter      E             dE          RMSdq      gap      omega  full diag
   1    -96.1918082 -0.961918E+02  0.281E-02    1.50       0.0  T
   2    -96.1918089 -0.674652E-06  0.164E-02    1.50       1.0  T
   3    -96.1918073  0.158200E-05  0.540E-03    1.50       2.4  T
   4    -96.1918091 -0.182016E-05  0.111E-03    1.50      11.4  T
   5    -96.1918092 -0.520314E-07  0.456E-04    1.50      27.8  T
   6    -96.1918092 -0.316004E-08  0.209E-04    1.50      60.8  T
     SCC iter.                  ...        0 min,  0.025 sec
     gradient                   ...        0 min,  0.083 sec
 * total energy  :   -94.8840145 Eh     change       -0.3243980E-04 Eh
   gradient norm :     0.0028803 Eh/α   predicted    -0.2418076E-04 ( -25.46%)
   displ. norm   :     0.1305276 α      lambda       -0.3541596E-04
   maximum displ.:     0.0620727 α      in ANC's #14, #5, #8, ...

........................................................................
.............................. CYCLE   18 ..............................
........................................................................

 iter      E             dE          RMSdq      gap      omega  full diag
   1    -96.1918785 -0.961919E+02  0.231E-02    1.51       0.0  T
   2    -96.1918791 -0.595323E-06  0.134E-02    1.51       1.0  T
   3    -96.1918781  0.102441E-05  0.444E-03    1.51       2.9  T
   4    -96.1918793 -0.116082E-05  0.106E-03    1.51      12.0  T
   5    -96.1918793 -0.577430E-07  0.354E-04    1.51      35.8  T
   6    -96.1918793 -0.138400E-08  0.184E-04    1.51      69.1  T
     SCC iter.                  ...        0 min,  0.025 sec
     gradient                   ...        0 min,  0.079 sec
 * total energy  :   -94.8840418 Eh     change       -0.2726499E-04 Eh
   gradient norm :     0.0029252 Eh/α   predicted    -0.1801020E-04 ( -33.94%)
   displ. norm   :     0.1504163 α      lambda       -0.4575621E-04
   maximum displ.:     0.0677269 α      in ANC's #5, #14, #8, ...

........................................................................
.............................. CYCLE   19 ..............................
........................................................................

 iter      E             dE          RMSdq      gap      omega  full diag
   1    -96.1924512 -0.961925E+02  0.272E-02    1.52       0.0  T
   2    -96.1924521 -0.900110E-06  0.158E-02    1.52       1.0  T
   3    -96.1924507  0.140763E-05  0.537E-03    1.52       2.4  T
   4    -96.1924523 -0.157390E-05  0.134E-03    1.52       9.5  T
   5    -96.1924524 -0.985251E-07  0.397E-04    1.52      32.0  T
   6    -96.1924524 -0.117534E-08  0.204E-04    1.52      62.2  T
     SCC iter.                  ...        0 min,  0.064 sec
     gradient                   ...        0 min,  0.054 sec
 * total energy  :   -94.8840757 Eh     change       -0.3392413E-04 Eh
   gradient norm :     0.0028294 Eh/α   predicted    -0.2340029E-04 ( -31.02%)
   displ. norm   :     0.1584444 α      lambda       -0.3822532E-04
   maximum displ.:     0.0678146 α      in ANC's #14, #5, #8, ...

........................................................................
.............................. CYCLE   20 ..............................
........................................................................

 iter      E             dE          RMSdq      gap      omega  full diag
   1    -96.1928857 -0.961929E+02  0.290E-02    1.52       0.0  T
   2    -96.1928865 -0.827483E-06  0.169E-02    1.52       1.0  T
   3    -96.1928840  0.248448E-05  0.695E-03    1.52       1.8  T
   4    -96.1928869 -0.284672E-05  0.115E-03    1.52      11.0  T
   5    -96.1928869 -0.584966E-07  0.444E-04    1.52      28.6  T
   6    -96.1928869 -0.257644E-08  0.236E-04    1.52      53.7  T
     SCC iter.                  ...        0 min,  0.025 sec
     gradient                   ...        0 min,  0.096 sec
 * total energy  :   -94.8841031 Eh     change       -0.2742559E-04 Eh
   gradient norm :     0.0027503 Eh/α   predicted    -0.1959460E-04 ( -28.55%)
   displ. norm   :     0.1096073 α      lambda       -0.2845833E-04
   maximum displ.:     0.0525590 α      in ANC's #8, #14, #11, ...
 * RMSD in coord.:     0.3803230 α      energy gain  -0.2644570E-01 Eh

generating ANC from exact Hessian ...
Using Lindh-Hessian (1995)
 Shifting diagonal of input Hessian by    9.8299796118794698E-003
 Lowest  eigenvalues of input Hessian
    0.000000    0.000000    0.000000    0.000000    0.000000    0.000000
    0.010000    0.010071    0.010230    0.010468    0.010691    0.011104
    0.011180    0.011741    0.011947    0.012498    0.013245    0.013742
 Highest eigenvalues
    2.110166    2.169037    2.222514    2.301632    2.349003    2.390628


........................................................................
.............................. CYCLE   21 ..............................
........................................................................

 iter      E             dE          RMSdq      gap      omega  full diag
   1    -96.1936805 -0.961937E+02  0.237E-02    1.52       0.0  T
   2    -96.1936810 -0.565244E-06  0.138E-02    1.52       1.0  T
   3    -96.1936789  0.207801E-05  0.635E-03    1.52       2.0  T
   4    -96.1936814 -0.241345E-05  0.903E-04    1.52      14.1  T
   5    -96.1936814 -0.312480E-07  0.375E-04    1.52      33.9  T
   6    -96.1936814 -0.126744E-08  0.211E-04    1.52      60.2  T
     SCC iter.                  ...        0 min,  0.025 sec
     gradient                   ...        0 min,  0.075 sec
 * total energy  :   -94.8841211 Eh     change       -0.1799569E-04 Eh
   gradient norm :     0.0018099 Eh/α   predicted     0.0000000E+00 (-100.00%)
   displ. norm   :     0.0316550 α      lambda       -0.5705662E-05
   maximum displ.:     0.0167043 α      in ANC's #13, #5, #21, ...

........................................................................
.............................. CYCLE   22 ..............................
........................................................................

 iter      E             dE          RMSdq      gap      omega  full diag
   1    -96.1934457 -0.961934E+02  0.777E-03    1.52       0.0  T
   2    -96.1934458 -0.141024E-06  0.454E-03    1.52       2.8  T
   3    -96.1934457  0.113283E-06  0.163E-03    1.52       7.8  T
   4    -96.1934458 -0.127651E-06  0.491E-04    1.52      25.8  T
   5    -96.1934459 -0.140170E-07  0.144E-04    1.52      88.2  T
     SCC iter.                  ...        0 min,  0.021 sec
     gradient                   ...        0 min,  0.099 sec
 * total energy  :   -94.8841331 Eh     change       -0.1193760E-04 Eh
   gradient norm :     0.0006567 Eh/α   predicted    -0.5126547E-05 ( -57.06%)
   displ. norm   :     0.0835863 α      lambda       -0.1573424E-04
   maximum displ.:     0.0400863 α      in ANC's #13, #5, #4, ...

........................................................................
.............................. CYCLE   23 ..............................
........................................................................

 iter      E             dE          RMSdq      gap      omega  full diag
   1    -96.1931597 -0.961932E+02  0.180E-02    1.52       0.0  T
   2    -96.1931600 -0.272337E-06  0.105E-02    1.51       1.2  T
   3    -96.1931598  0.211171E-06  0.234E-03    1.51       5.4  T
   4    -96.1931600 -0.256276E-06  0.664E-04    1.51      19.1  T
   5    -96.1931600 -0.185112E-07  0.282E-04    1.51      45.0  T
     SCC iter.                  ...        0 min,  0.021 sec
     gradient                   ...        0 min,  0.081 sec
 * total energy  :   -94.8841493 Eh     change       -0.1622198E-04 Eh
   gradient norm :     0.0013940 Eh/α   predicted    -0.7893473E-05 ( -51.34%)
   displ. norm   :     0.0948618 α      lambda       -0.1117745E-04
   maximum displ.:     0.0446984 α      in ANC's #13, #5, #6, ...

........................................................................
.............................. CYCLE   24 ..............................
........................................................................

 iter      E             dE          RMSdq      gap      omega  full diag
   1    -96.1930393 -0.961930E+02  0.195E-02    1.51       0.0  T
   2    -96.1930394 -0.143115E-06  0.114E-02    1.51       1.1  T
   3    -96.1930393  0.126288E-06  0.187E-03    1.51       6.8  T
   4    -96.1930395 -0.173806E-06  0.505E-04    1.51      25.2  T
   5    -96.1930395 -0.520852E-08  0.270E-04    1.51      47.0  T
     SCC iter.                  ...        0 min,  0.023 sec
     gradient                   ...        0 min,  0.092 sec
 * total energy  :   -94.8841625 Eh     change       -0.1316203E-04 Eh
   gradient norm :     0.0019230 Eh/α   predicted    -0.5611324E-05 ( -57.37%)
   displ. norm   :     0.1683343 α      lambda       -0.1800712E-04
   maximum displ.:     0.0762792 α      in ANC's #13, #5, #6, ...

........................................................................
.............................. CYCLE   25 ..............................
........................................................................

 iter      E             dE          RMSdq      gap      omega  full diag
   1    -96.1927669 -0.961928E+02  0.336E-02    1.51       0.0  T
   2    -96.1927673 -0.363024E-06  0.198E-02    1.51       1.0  T
   3    -96.1927671  0.250509E-06  0.272E-03    1.51       4.7  T
   4    -96.1927674 -0.377429E-06  0.807E-04    1.51      15.7  T
   5    -96.1927674 -0.110342E-07  0.430E-04    1.51      29.5  T
     SCC iter.                  ...        0 min,  0.059 sec
     gradient                   ...        0 min,  0.054 sec
 * total energy  :   -94.8841810 Eh     change       -0.1856728E-04 Eh
   gradient norm :     0.0019805 Eh/α   predicted    -0.9117598E-05 ( -50.89%)
   displ. norm   :     0.1346976 α      lambda       -0.1435644E-04
   maximum displ.:     0.0607563 α      in ANC's #5, #13, #6, ...

........................................................................
.............................. CYCLE   26 ..............................
........................................................................

 iter      E             dE          RMSdq      gap      omega  full diag
   1    -96.1930080 -0.961930E+02  0.267E-02    1.51       0.0  T
   2    -96.1930083 -0.268116E-06  0.157E-02    1.51       1.0  T
   3    -96.1930082  0.117980E-06  0.191E-03    1.51       6.6  T
   4    -96.1930083 -0.183715E-06  0.675E-04    1.51      18.8  T
   5    -96.1930084 -0.132178E-07  0.345E-04    1.51      36.8  T
     SCC iter.                  ...        0 min,  0.021 sec
     gradient                   ...        0 min,  0.087 sec
 * total energy  :   -94.8841961 Eh     change       -0.1509514E-04 Eh
   gradient norm :     0.0012585 Eh/α   predicted    -0.7236289E-05 ( -52.06%)
   displ. norm   :     0.1050814 α      lambda       -0.1200710E-04
   maximum displ.:     0.0507046 α      in ANC's #6, #5, #13, ...

........................................................................
.............................. CYCLE   27 ..............................
........................................................................

 iter      E             dE          RMSdq      gap      omega  full diag
   1    -96.1935543 -0.961936E+02  0.202E-02    1.51       0.0  T
   2    -96.1935546 -0.302603E-06  0.118E-02    1.51       1.1  T
   3    -96.1935546  0.367340E-07  0.141E-03    1.51       9.0  T
   4    -96.1935546 -0.693706E-07  0.649E-04    1.51      19.6  T
   5    -96.1935547 -0.190081E-07  0.313E-04    1.51      40.6  T
     SCC iter.                  ...        0 min,  0.022 sec
     gradient                   ...        0 min,  0.079 sec
 * total energy  :   -94.8842077 Eh     change       -0.1155635E-04 Eh
   gradient norm :     0.0009080 Eh/α   predicted    -0.6035568E-05 ( -47.77%)
   displ. norm   :     0.1406417 α      lambda       -0.8767153E-05
   maximum displ.:     0.0686489 α      in ANC's #13, #6, #5, ...

........................................................................
.............................. CYCLE   28 ..............................
........................................................................

 iter      E             dE          RMSdq      gap      omega  full diag
   1    -96.1931284 -0.961931E+02  0.283E-02    1.52       0.0  T
   2    -96.1931286 -0.210688E-06  0.167E-02    1.52       1.0  T
   3    -96.1931278  0.859937E-06  0.381E-03    1.52       3.3  T
   4    -96.1931288 -0.100439E-05  0.687E-04    1.52      18.5  T
   5    -96.1931288 -0.810681E-08  0.381E-04    1.52      33.3  T
   6    -96.1931288 -0.197261E-08  0.142E-04    1.52      89.3  T
     SCC iter.                  ...        0 min,  0.065 sec
     gradient                   ...        0 min,  0.053 sec
 * total energy  :   -94.8842143 Eh     change       -0.6625999E-05 Eh
   gradient norm :     0.0017261 Eh/α   predicted    -0.4431736E-05 ( -33.12%)
   displ. norm   :     0.0446592 α      lambda       -0.7030117E-05
   maximum displ.:     0.0164109 α      in ANC's #10, #8, #6, ...

........................................................................
.............................. CYCLE   29 ..............................
........................................................................

 iter      E             dE          RMSdq      gap      omega  full diag
   1    -96.1938761 -0.961939E+02  0.117E-02    1.52       0.0  T
   2    -96.1938763 -0.186505E-06  0.677E-03    1.52       1.9  T
   3    -96.1938761  0.251180E-06  0.230E-03    1.52       5.5  T
   4    -96.1938764 -0.295744E-06  0.558E-04    1.52      22.8  T
   5    -96.1938764 -0.142538E-07  0.215E-04    1.52      58.9  T
     SCC iter.                  ...        0 min,  0.022 sec
     gradient                   ...        0 min,  0.089 sec
 * total energy  :   -94.8842193 Eh     change       -0.4976915E-05 Eh
   gradient norm :     0.0011309 Eh/α   predicted    -0.3584509E-05 ( -27.98%)
   displ. norm   :     0.0590011 α      lambda       -0.4109605E-05
   maximum displ.:     0.0297698 α      in ANC's #13, #5, #6, ...

........................................................................
.............................. CYCLE   30 ..............................
........................................................................

 iter      E             dE          RMSdq      gap      omega  full diag
   1    -96.1937091 -0.961937E+02  0.124E-02    1.52       0.0  T
   2    -96.1937092 -0.118054E-06  0.728E-03    1.52       1.7  T
   3    -96.1937090  0.223877E-06  0.206E-03    1.52       6.2  T
   4    -96.1937093 -0.261680E-06  0.445E-04    1.52      28.5  T
   5    -96.1937093 -0.683561E-08  0.215E-04    1.52      59.1  T
     SCC iter.                  ...        0 min,  0.021 sec
     gradient                   ...        0 min,  0.087 sec
 * total energy  :   -94.8842229 Eh     change       -0.3673024E-05 Eh
   gradient norm :     0.0005298 Eh/α   predicted    -0.2059491E-05 ( -43.93%)
   displ. norm   :     0.0325942 α      lambda       -0.1931382E-05
   maximum displ.:     0.0147807 α      in ANC's #13, #2, #3, ...

   *** GEOMETRY OPTIMIZATION CONVERGED AFTER 30 ITERATIONS ***

------------------------------------------------------------------------
 total energy gain   :        -0.0265655 Eh      -16.6701 kcal/mol
 total RMSD          :         0.3971701 a0        0.2102 Å
 total power (kW/mol):        -2.3249247 (step)  -16.4928 (real)
------------------------------------------------------------------------

 ANCopt (total)                0 d,  0 h,  0 min,  4.229 sec
 optimizer setup                ...        0 min,  0.000 sec (  0.002%)
 model hessian                  ...        0 min,  0.058 sec (  1.375%)
 ANC generation                 ...        0 min,  0.040 sec (  0.938%)
 coordinate transformation      ...        0 min,  0.001 sec (  0.015%)
 single point calculation       ...        0 min,  4.118 sec ( 97.364%)
 optimization log               ...        0 min,  0.006 sec (  0.152%)
 hessian update                 ...        0 min,  0.001 sec (  0.019%)
 rational function              ...        0 min,  0.004 sec (  0.104%)

================
 final structure:
================
62
 xtb: 6.7.1 (edcfbbe)
C           -7.24579533329382       -2.06877846626444        1.88942770315517
C           -6.02574952908975       -1.80072477802938        2.72067074706434
C           -4.83701126683944       -1.28326914390166        1.97088332999776
C           -3.59990366525193       -1.83634455259217        2.13578809198066
C           -3.33415139762285       -3.00760681878583        3.02648031626245
C           -2.50780026617573       -1.29129304080503        1.39315898450671
C           -1.18829573545241       -1.75915476949769        1.43688597656301
N           -0.20189459439562       -1.22496144355147        0.75861426698425
C           -0.50202536100971       -0.16957220318899       -0.01463969158535
N            0.46000270872493        0.44630402395478       -0.73097626766443
C            1.81934274358724        0.19615521748345       -0.84232885094640
N            2.44577098699295        1.05711613398847       -1.64103723917095
C            3.74000392737117        0.93239237160373       -1.83131062479236
C            4.53552532941142       -0.06160215518178       -1.23830413170181
C            3.85311506885179       -0.96331523270239       -0.40664919818033
C            2.49393200356593       -0.84097391267830       -0.20395896313530
N            5.87852972861496       -0.16649143054559       -1.54073983186097
C            6.70072231803219        1.02551909326204       -1.63450517993362
C            7.33203223342103        1.33940096142880       -0.26413649723712
N            8.09760153148915        0.22743003482253        0.26829897636901
C            7.29041944429213       -0.97947890384643        0.30865724801858
C            6.66350910305012       -1.28718309555950       -1.06171049370381
N           -1.71777730233809        0.35884320602675       -0.14933527766901
C           -2.71675976745010       -0.17831905926787        0.53840870545595
N           -3.95561923374016        0.36314122181754        0.40815794750600
C           -4.18268338742722        1.51009703351685       -0.46571348400393
C           -3.80001336900308        1.25937424452222       -1.93961070398892
C           -2.86586382784563        2.40929306140887       -2.32711956408715
C           -3.21588568211396        3.52399768061380       -1.34513951513651
C           -3.42005208207975        2.77151871545190       -0.03495226393547
C           -5.06473570538280       -0.13922251161174        1.09168945868806
O           -6.15171594964228        0.39507795607743        0.94725929532569
O           -5.98895381336029       -2.00516243606497        3.91201803459883
H           -7.99601081310864       -2.57942977889240        2.48702530317834
H           -6.98601526934567       -2.66098584890299        1.01449774286657
H           -7.63530801336047       -1.11353496486580        1.54111354981561
H           -2.61033065477211       -2.72882599065050        3.79086309521172
H           -2.91814790498799       -3.83196347432162        2.44790534256895
H           -4.23708036822842       -3.34155995579910        3.52448304488591
H           -0.91436727099414       -2.60519684243968        2.05218878478004
H            0.14862931620835        1.24056579035758       -1.27730248555171
H            4.16164796129722        1.65945434090301       -2.51146675470574
H            4.37631062597397       -1.75996488438214        0.09846299963141
H            1.95752531746672       -1.51932946725136        0.43615278159102
H            7.49115383307475        0.83624398615049       -2.37113413961165
H            6.11094738096042        1.87465038241560       -1.97140677738712
H            6.53347678208588        1.56240335109378        0.45092814435930
H            7.98520656156750        2.21062078518845       -0.33983459035908
H            8.91557030947552        0.06904500965580       -0.31463742369257
H            6.49964493705222       -0.81883517569107        1.04754726692883
H            7.91569714698051       -1.81062502209919        0.63996504373909
H            6.05224786191109       -2.18812667019665       -1.03267933647254
H            7.46672392375934       -1.45135625006689       -1.79183748980188
H           -5.25724059823581        1.69727328270736       -0.39357799793764
H           -3.31562877326907        0.29318381953851       -2.06379727162606
H           -4.69843447046987        1.26799850492586       -2.55676880391268
H           -2.99268480283125        2.71030623950334       -3.36587168606080
H           -1.83062514103013        2.10557229257396       -2.17602907325797
H           -2.43621558600948        4.28063062327913       -1.27340336707449
H           -4.14540849540904        4.01046912226331       -1.64528561739461
H           -2.45399213541971        2.49373444773370        0.38350899638647
H           -3.97511151823333        3.34527534536392        0.70565941515882

 Bond Distances (Angstroems)
 ---------------------------
C1-C2=1.5004         C1-H34=1.0866        C1-H35=1.0880        C1-H36=1.0888        C2-C1=1.5004         C2-C3=1.4977         
C2-O33=1.2093        C3-C2=1.4977         C3-C4=1.3651         C3-C31=1.4607        C4-C3=1.3651         C4-C5=1.4953         
C4-C6=1.4287         C5-C4=1.4953         C5-H37=1.0890        C5-H38=1.0897        C5-H39=1.0839        C6-C4=1.4287         
C6-C7=1.4007         C6-C24=1.4188        C7-C6=1.4007         C7-N8=1.3109         C7-H40=1.0814        N8-C7=1.3109         
N8-C9=1.3423         C9-N8=1.3423         C9-N10=1.3483        C9-N23=1.3324        N10-C9=1.3483        N10-C11=1.3866       
N10-H41=1.0131       C11-N10=1.3866       C11-N12=1.3310       C11-C16=1.3922       N12-C11=1.3310       N12-C13=1.3141       
C13-N12=1.3141       C13-C14=1.4045       C13-H42=1.0812       C14-C13=1.4045       C14-C15=1.4037       C14-N17=1.3806       
C15-C14=1.4037       C15-C16=1.3796       C15-H43=1.0787       C16-C11=1.3922       C16-C15=1.3796       C16-H44=1.0759       
N17-C14=1.3806       N17-C18=1.4511       N17-C22=1.4497       C18-N17=1.4511       C18-C19=1.5411       C18-H45=1.0969       
C18-H46=1.0874       C19-C18=1.5411       C19-N20=1.4512       C19-H47=1.0949       C19-H48=1.0915       N20-C19=1.4512       
N20-C21=1.4525       N20-H49=1.0168       C21-N20=1.4525       C21-C22=1.5381       C21-H50=1.0941       C21-H51=1.0916       
C22-N17=1.4497       C22-C21=1.5381       C22-H52=1.0891       C22-H53=1.0978       N23-C9=1.3324        N23-C24=1.3265       
C24-C6=1.4188        C24-N23=1.3265       C24-N25=1.3583       N25-C24=1.3583       N25-C26=1.4597       N25-C31=1.3963       
C26-N25=1.4597       C26-C27=1.5433       C26-C30=1.5357       C26-H54=1.0931       C27-C26=1.5433       C27-C28=1.5314       
C27-H55=1.0879       C27-H56=1.0900       C28-C27=1.5314       C28-C29=1.5262       C28-H57=1.0889       C28-H58=1.0894       
C29-C28=1.5262       C29-C30=1.5246       C29-H59=1.0888       C29-H60=1.0912       C30-C26=1.5357       C30-C29=1.5246       
C30-H61=1.0888       C30-H62=1.0889       C31-C3=1.4607        C31-N25=1.3963       C31-O32=1.2198       O32-C31=1.2198       
O33-C2=1.2093        H34-C1=1.0866        H35-C1=1.0880        H36-C1=1.0888        H37-C5=1.0890        H38-C5=1.0897        
H39-C5=1.0839        H40-C7=1.0814        H41-N10=1.0131       H42-C13=1.0812       H43-C15=1.0787       H44-C16=1.0759       
H45-C18=1.0969       H46-C18=1.0874       H47-C19=1.0949       H48-C19=1.0915       H49-N20=1.0168       H50-C21=1.0941       
H51-C21=1.0916       H52-C22=1.0891       H53-C22=1.0978       H54-C26=1.0931       H55-C27=1.0879       H56-C27=1.0900       
H57-C28=1.0889       H58-C28=1.0894       H59-C29=1.0888       H60-C29=1.0912       H61-C30=1.0888       H62-C30=1.0889       
 C  H  Rav=1.0887 sigma=0.0050  Rmin=1.0759  Rmax=1.0978    27
 C  C  Rav=1.4678 sigma=0.0627  Rmin=1.3651  Rmax=1.5433    19
 N  H  Rav=1.0149 sigma=0.0019  Rmin=1.0131  Rmax=1.0168     2
 N  C  Rav=1.3807 sigma=0.0539  Rmin=1.3109  Rmax=1.4597    16
 O  C  Rav=1.2146 sigma=0.0052  Rmin=1.2093  Rmax=1.2198     2

 selected bond angles (degree)
 --------------------
H34-C1-C2=109.92               H35-C1-C2=110.40               H35-C1-H34=110.57              H36-C1-C2=108.14               
H36-C1-H34=109.95              H36-C1-H35=107.80              C3-C2-C1=115.45                O33-C2-C1=122.70               
O33-C2-C3=121.83               C4-C3-C2=121.25                C31-C3-C2=116.63               C31-C3-C4=122.09               
C5-C4-C3=123.39                C6-C4-C3=118.38                C6-C4-C5=118.20                H37-C5-C4=109.62               
H38-C5-C4=110.13               H38-C5-H37=108.22              H39-C5-C4=111.53               H39-C5-H37=108.06              
H39-C5-H38=109.20              C7-C6-C4=125.20                C24-C6-C4=119.99               C24-C6-C7=114.81               
N8-C7-C6=123.82                H40-C7-C6=121.18               H40-C7-N8=115.00               C9-N8-C7=116.76                
N10-C9-N8=120.37               N23-C9-N8=125.03               N23-C9-N10=114.59              C11-N10-C9=131.28              
H41-N10-C9=115.17              H41-N10-C11=113.54             

 selected dihedral angles (degree)
 ---------------------------------
C3-C2-C1-H34=171.36           C3-C2-C1-H35= 49.12           C3-C2-C1-H36=291.40           O33-C2-C1-H34=352.46          
O33-C2-C1-H35=230.22          O33-C2-C1-H36=112.51          C4-C3-C2-C1=228.80            C4-C3-C2-O33= 47.71           
C31-C3-C2-C1= 50.55           C31-C3-C2-O33=229.45          C5-C4-C3-C2=  1.91            C5-C4-C3-C31=180.07           
C6-C4-C3-C2=180.22            C6-C4-C3-C31=358.38           H37-C5-C4-C3=239.54           H37-C5-C4-C6= 61.23           
H38-C5-C4-C3=120.59           H38-C5-C4-C6=302.28           H39-C5-C4-C3=359.18           H39-C5-C4-C6=180.86           
C7-C6-C4-C3=181.02            C7-C6-C4-C5=359.42            C24-C6-C4-C3=  1.72           C24-C6-C4-C5=180.12           
N8-C7-C6-C4=181.09            N8-C7-C6-C24=  0.42           H40-C7-C6-C4=  0.90           H40-C7-C6-C24=180.23          
C9-N8-C7-C6=  0.00            C9-N8-C7-H40=180.17           N10-C9-N8-C7=179.19           N23-C9-N8-C7=359.35           
C11-N10-C9-N8=359.76          C11-N10-C9-N23=179.61         H41-N10-C9-N8=180.75          H41-N10-C9-N23=  0.60         
           -------------------------------------------------
          |                Final Singlepoint                |
           -------------------------------------------------

          ...................................................
          :                      SETUP                      :
          :.................................................:
          :  # basis functions                 161          :
          :  # atomic orbitals                 161          :
          :  # shells                           95          :
          :  # electrons                       172          :
          :  max. iterations                   250          :
          :  Hamiltonian                  GFN2-xTB          :
          :  restarted?                      false          :
          :  GBSA solvation                  false          :
          :  PC potential                    false          :
          :  electronic temp.          300.0000000     K    :
          :  accuracy                    1.0000000          :
          :  -> integral cutoff          0.2500000E+02      :
          :  -> integral neglect         0.1000000E-07      :
          :  -> SCF convergence          0.1000000E-05 Eh   :
          :  -> wf. convergence          0.1000000E-03 e    :
          :  Broyden damping             0.4000000          :
          :  net charge                          0          :
          :  unpaired electrons                  0          :
          ...................................................

 iter      E             dE          RMSdq      gap      omega  full diag
   1    -96.1937093 -0.961937E+02  0.111E-04    1.52       0.0  T
   2    -96.1937093 -0.826788E-10  0.744E-05    1.52     170.7  T
   3    -96.1937093 -0.363372E-10  0.513E-05    1.52     247.6  T

   *** convergence criteria satisfied after 3 iterations ***

         #    Occupation            Energy/Eh            Energy/eV
      -------------------------------------------------------------
         1        2.0000           -0.7040708             -19.1587
       ...           ...                  ...                  ...
        80        2.0000           -0.4006125             -10.9012
        81        2.0000           -0.3951236             -10.7519
        82        2.0000           -0.3861848             -10.5086
        83        2.0000           -0.3795891             -10.3291
        84        2.0000           -0.3766532             -10.2493
        85        2.0000           -0.3723558             -10.1323
        86        2.0000           -0.3458482              -9.4110 (HOMO)
        87                         -0.2900516              -7.8927 (LUMO)
        88                         -0.2600523              -7.0764
        89                         -0.2436619              -6.6304
        90                         -0.2368236              -6.4443
        91                         -0.2271221              -6.1803
       ...                                ...                  ...
       161                          0.6918275              18.8256
      -------------------------------------------------------------
                  HL-Gap            0.0557966 Eh            1.5183 eV
             Fermi-level           -0.3179499 Eh           -8.6519 eV

 SCC (total)                   0 d,  0 h,  0 min,  0.151 sec
 SCC setup                      ...        0 min,  0.001 sec (  0.410%)
 Dispersion                     ...        0 min,  0.001 sec (  0.586%)
 classical contributions        ...        0 min,  0.000 sec (  0.198%)
 integral evaluation            ...        0 min,  0.050 sec ( 32.782%)
 iterations                     ...        0 min,  0.016 sec ( 10.774%)
 molecular gradient             ...        0 min,  0.083 sec ( 54.959%)
 printout                       ...        0 min,  0.000 sec (  0.283%)

         :::::::::::::::::::::::::::::::::::::::::::::::::::::
         ::                     SUMMARY                     ::
         :::::::::::::::::::::::::::::::::::::::::::::::::::::
         :: total energy             -94.884222946526 Eh    ::
         :: gradient norm              0.000529108148 Eh/a0 ::
         :: HOMO-LUMO gap              1.518302044826 eV    ::
         ::.................................................::
         :: SCC energy               -96.193827249785 Eh    ::
         :: -> isotropic ES            0.110114999703 Eh    ::
         :: -> anisotropic ES          0.006365286792 Eh    ::
         :: -> anisotropic XC          0.053013358431 Eh    ::
         :: -> dispersion             -0.072226666225 Eh    ::
         :: repulsion energy           1.309604303259 Eh    ::
         :: add. restraining           0.000000000000 Eh    ::
         :: total charge              -0.000000000000 e     ::
         :::::::::::::::::::::::::::::::::::::::::::::::::::::

           -------------------------------------------------
          |                Property Printout                |
           -------------------------------------------------

    * Orbital Energies and Occupations

         #    Occupation            Energy/Eh            Energy/eV
      -------------------------------------------------------------
         1        2.0000           -0.7040708             -19.1587
       ...           ...                  ...                  ...
        74        2.0000           -0.4340525             -11.8112
        75        2.0000           -0.4308314             -11.7235
        76        2.0000           -0.4261720             -11.5967
        77        2.0000           -0.4216093             -11.4726
        78        2.0000           -0.4163858             -11.3304
        79        2.0000           -0.4100920             -11.1592
        80        2.0000           -0.4006125             -10.9012
        81        2.0000           -0.3951236             -10.7519
        82        2.0000           -0.3861848             -10.5086
        83        2.0000           -0.3795891             -10.3291
        84        2.0000           -0.3766532             -10.2493
        85        2.0000           -0.3723558             -10.1323
        86        2.0000           -0.3458482              -9.4110 (HOMO)
        87                         -0.2900516              -7.8927 (LUMO)
        88                         -0.2600523              -7.0764
        89                         -0.2436619              -6.6304
        90                         -0.2368236              -6.4443
        91                         -0.2271221              -6.1803
        92                         -0.2038345              -5.5466
        93                         -0.1578481              -4.2953
        94                         -0.1019412              -2.7740
        95                         -0.0888038              -2.4165
        96                         -0.0180380              -0.4908
        97                         -0.0065057              -0.1770
       ...                                ...                  ...
       161                          0.6918275              18.8256
      -------------------------------------------------------------
                  HL-Gap            0.0557966 Eh            1.5183 eV
             Fermi-level           -0.3179499 Eh           -8.6519 eV

     #   Z          covCN         q      C6AA      α(0)
     1   6 C        3.754    -0.141    23.277     6.880
     2   6 C        2.817     0.251    22.782     7.821
     3   6 C        2.964    -0.068    29.696     8.938
     4   6 C        2.957     0.034    27.240     8.561
     5   6 C        3.758    -0.115    22.748     6.800
     6   6 C        2.979    -0.053    29.311     8.881
     7   6 C        2.925     0.076    26.292     8.409
     8   7 N        1.837    -0.282    28.156     7.863
     9   6 C        2.883     0.238    23.032     7.868
    10   7 N        2.727    -0.135    23.915     7.263
    11   6 C        2.891     0.139    24.959     8.191
    12   7 N        1.852    -0.256    27.522     7.775
    13   6 C        2.909     0.034    27.230     8.557
    14   6 C        2.903     0.049    26.907     8.505
    15   6 C        2.933    -0.043    29.064     8.841
    16   6 C        2.910    -0.061    29.518     8.909
    17   7 N        2.736    -0.118    23.570     7.211
    18   6 C        3.759    -0.005    20.720     6.489
    19   6 C        3.751     0.006    20.536     6.463
    20   7 N        2.678    -0.257    26.662     7.669
    21   6 C        3.751     0.006    20.542     6.464
    22   6 C        3.759    -0.003    20.689     6.485
    23   7 N        1.862    -0.310    28.879     7.965
    24   6 C        2.917     0.167    24.403     8.101
    25   7 N        2.749    -0.071    22.610     7.062
    26   6 C        3.822     0.036    19.961     6.358
    27   6 C        3.819    -0.063    21.690     6.628
    28   6 C        3.827    -0.060    21.627     6.617
    29   6 C        3.830    -0.058    21.592     6.612
    30   6 C        3.827    -0.065    21.725     6.632
    31   6 C        2.777     0.264    22.551     7.778
    32   8 O        0.859    -0.441    22.510     6.361
    33   8 O        0.857    -0.366    21.014     6.146
    34   1 H        0.925     0.065     2.143     2.289
    35   1 H        0.925     0.057     2.231     2.336
    36   1 H        0.925     0.106     1.735     2.060
    37   1 H        0.925     0.064     2.155     2.295
    38   1 H        0.925     0.053     2.284     2.363
    39   1 H        0.925     0.072     2.064     2.247
    40   1 H        0.925     0.049     2.331     2.387
    41   1 H        0.860     0.209     1.060     1.613
    42   1 H        0.926     0.034     2.524     2.484
    43   1 H        0.926     0.033     2.538     2.491
    44   1 H        0.926     0.068     2.106     2.269
    45   1 H        0.924     0.036     2.508     2.477
    46   1 H        0.925     0.046     2.375     2.410
    47   1 H        0.924     0.041     2.441     2.443
    48   1 H        0.924     0.038     2.476     2.461
    49   1 H        0.860     0.136     1.498     1.917
    50   1 H        0.924     0.043     2.415     2.430
    51   1 H        0.924     0.037     2.495     2.470
    52   1 H        0.925     0.044     2.400     2.423
    53   1 H        0.924     0.035     2.510     2.478
    54   1 H        0.924     0.081     1.972     2.196
    55   1 H        0.925     0.042     2.416     2.431
    56   1 H        0.925     0.039     2.460     2.453
    57   1 H        0.925     0.035     2.515     2.480
    58   1 H        0.925     0.043     2.415     2.430
    59   1 H        0.925     0.036     2.504     2.474
    60   1 H        0.924     0.038     2.480     2.463
    61   1 H        0.925     0.052     2.295     2.369
    62   1 H        0.925     0.038     2.480     2.463

 Mol. C6AA /au·bohr⁶  :      42283.767850
 Mol. C8AA /au·bohr⁸  :     981804.424213
 Mol. α(0) /au        :        315.204672


Wiberg/Mayer (AO) data.
largest (>0.10) Wiberg bond orders for each atom

 ---------------------------------------------------------------------------
     #   Z sym  total        # sym  WBO       # sym  WBO       # sym  WBO
 ---------------------------------------------------------------------------
     1   6 C    3.990 --     2 C    1.014    34 H    0.982    35 H    0.965
                            36 H    0.936
     2   6 C    3.919 --    33 O    1.830     1 C    1.014     3 C    0.997
     3   6 C    3.961 --     4 C    1.579    31 C    1.082     2 C    0.997
     4   6 C    3.976 --     3 C    1.579     6 C    1.177     5 C    1.034
     5   6 C    3.992 --     4 C    1.034    39 H    0.977    38 H    0.966
                            37 H    0.962
     6   6 C    3.974 --     7 C    1.330    24 C    1.217     4 C    1.177
     7   6 C    3.956 --     8 N    1.495     6 C    1.330    40 H    0.958
     8   7 N    3.035 --     7 C    1.495     9 C    1.264
     9   6 C    3.955 --    23 N    1.315     8 N    1.264    10 N    1.223
    10   7 N    3.502 --     9 C    1.223    11 C    1.087    41 H    0.917
    11   6 C    3.952 --    12 N    1.350    16 C    1.337    10 N    1.087
    12   7 N    3.049 --    13 C    1.468    11 C    1.350
    13   6 C    3.980 --    12 N    1.468    14 C    1.317    42 H    0.957
                            16 C    0.102
    14   6 C    3.962 --    15 C    1.328    13 C    1.317    17 N    1.142
    15   6 C    3.990 --    16 C    1.480    14 C    1.328    43 H    0.964
    16   6 C    3.982 --    15 C    1.480    11 C    1.337    44 H    0.958
                            13 C    0.102
    17   7 N    3.351 --    14 C    1.142    22 C    0.998    18 C    0.991
    18   6 C    3.979 --    17 N    0.991    19 C    0.979    45 H    0.970
                            46 H    0.967
    19   6 C    3.985 --    20 N    1.020    18 C    0.979    48 H    0.973
                            47 H    0.972
    20   7 N    3.076 --    19 C    1.020    21 C    1.018    49 H    0.957
    21   6 C    3.985 --    20 N    1.018    22 C    0.982    51 H    0.974
                            50 H    0.971
    22   6 C    3.981 --    17 N    0.998    21 C    0.982    53 H    0.968
                            52 H    0.968
    23   7 N    3.025 --    24 C    1.363     9 C    1.315
    24   6 C    3.965 --    23 N    1.363     6 C    1.217    25 N    1.199
    25   7 N    3.597 --    24 C    1.199    31 C    1.104    26 C    0.957
                            32 O    0.136
    26   6 C    3.948 --    30 C    0.983    27 C    0.980    25 N    0.957
                            54 H    0.956
    27   6 C    3.995 --    28 C    1.006    56 H    0.981    26 C    0.980
                            55 H    0.977
    28   6 C    3.996 --    29 C    1.007    27 C    1.006    57 H    0.980
                            58 H    0.976
    29   6 C    3.996 --    28 C    1.007    30 C    1.007    60 H    0.980
                            59 H    0.979
    30   6 C    3.994 --    29 C    1.007    26 C    0.983    62 H    0.979
                            61 H    0.972
    31   6 C    3.951 --    32 O    1.645    25 N    1.104     3 C    1.082
    32   8 O    1.977 --    31 C    1.645    25 N    0.136
    33   8 O    2.056 --     2 C    1.830
    34   1 H    0.995 --     1 C    0.982
    35   1 H    0.996 --     1 C    0.965
    36   1 H    0.988 --     1 C    0.936
    37   1 H    0.994 --     5 C    0.962
    38   1 H    0.995 --     5 C    0.966
    39   1 H    0.994 --     5 C    0.977
    40   1 H    0.997 --     7 C    0.958
    41   1 H    0.956 --    10 N    0.917
    42   1 H    0.998 --    13 C    0.957
    43   1 H    0.998 --    15 C    0.964
    44   1 H    0.995 --    16 C    0.958
    45   1 H    0.998 --    18 C    0.970
    46   1 H    0.998 --    18 C    0.967
    47   1 H    0.998 --    19 C    0.972
    48   1 H    0.998 --    19 C    0.973
    49   1 H    0.981 --    20 N    0.957
    50   1 H    0.998 --    21 C    0.971
    51   1 H    0.998 --    21 C    0.974
    52   1 H    0.998 --    22 C    0.968
    53   1 H    0.997 --    22 C    0.968
    54   1 H    0.993 --    26 C    0.956
    55   1 H    0.998 --    27 C    0.977
    56   1 H    0.998 --    27 C    0.981
    57   1 H    0.998 --    28 C    0.980
    58   1 H    0.998 --    28 C    0.976
    59   1 H    0.998 --    29 C    0.979
    60   1 H    0.998 --    29 C    0.980
    61   1 H    0.997 --    30 C    0.972
    62   1 H    0.998 --    30 C    0.979
 ---------------------------------------------------------------------------

Topologies differ in total number of bonds
Writing topology from bond orders to xtbtopo.mol

molecular dipole:
                 x           y           z       tot (Debye)
 q only:        2.939      -0.052      -1.561
   full:        2.939      -0.552      -1.576       8.593
molecular quadrupole (traceless):
                xx          xy          yy          xz          yz          zz
 q only:        0.211      -0.865      12.230      17.833      -2.121     -12.441
  q+dip:        2.563      -2.351      13.189      12.422      -1.629     -15.752
   full:       -0.472      -0.863      14.618      13.328       2.205     -14.147

           -------------------------------------------------
          |                Geometry Summary                 |
           -------------------------------------------------

      molecular mass/u    :      447.5336757
   center of mass at/Å    :       -0.3347717      -0.0894648       0.1593273
  moments of inertia/u·Å² :        0.1784921E+04   0.1021260E+05   0.1161107E+05
rotational constants/cm⁻¹ :        0.9444469E-02   0.1650670E-02   0.1451859E-02

 * 61 selected distances

     #   Z          #   Z                                           value/Å
     3   6 C        4   6 C                                       1.3651086
     4   6 C        6   6 C                                       1.4287300
     6   6 C        7   6 C                                       1.4006781
     7   6 C        8   7 N                                       1.3108785
     8   7 N        9   6 C                                       1.3423289
     9   6 C       10   7 N                                       1.3483100
    10   7 N       11   6 C                                       1.3866433
    11   6 C       12   7 N                                       1.3310152
    12   7 N       13   6 C                                       1.3140773
    13   6 C       14   6 C                                       1.4044702
    14   6 C       15   6 C                                       1.4037167
    11   6 C       16   6 C                                       1.3922011
    15   6 C       16   6 C                                       1.3796484
    14   6 C       17   7 N                                       1.3806268
    17   7 N       18   6 C                                       1.4510969
    18   6 C       19   6 C                                       1.5410986 (max)
    19   6 C       20   7 N                                       1.4512283
    20   7 N       21   6 C                                       1.4525155
    17   7 N       22   6 C                                       1.4496937
    21   6 C       22   6 C                                       1.5380529
     9   6 C       23   7 N                                       1.3324484
     6   6 C       24   6 C                                       1.4187930
    23   7 N       24   6 C                                       1.3264620
    24   6 C       25   7 N                                       1.3582774
    25   7 N       26   6 C                                       1.4596977
    27   6 C       28   6 C                                       1.5313759
    28   6 C       29   6 C                                       1.5262264
    26   6 C       30   6 C                                       1.5356910
    29   6 C       30   6 C                                       1.5246310
    25   7 N       31   6 C                                       1.3963253
    31   6 C       32   8 O                                       1.2197801
     2   6 C       33   8 O                                       1.2093210
     1   6 C       34   1 H                                       1.0866053
     1   6 C       35   1 H                                       1.0879788
     1   6 C       36   1 H                                       1.0888220
     5   6 C       37   1 H                                       1.0889979
     5   6 C       38   1 H                                       1.0896660
     5   6 C       39   1 H                                       1.0838876
     7   6 C       40   1 H                                       1.0813981
    10   7 N       41   1 H                                       1.0130536 (min)
    13   6 C       42   1 H                                       1.0812101
    15   6 C       43   1 H                                       1.0786671
    16   6 C       44   1 H                                       1.0759376
    18   6 C       45   1 H                                       1.0969182
    18   6 C       46   1 H                                       1.0873644
    19   6 C       47   1 H                                       1.0948692
    19   6 C       48   1 H                                       1.0915086
    20   7 N       49   1 H                                       1.0168450
    21   6 C       50   1 H                                       1.0941158
    21   6 C       51   1 H                                       1.0915774
    22   6 C       52   1 H                                       1.0891201
    22   6 C       53   1 H                                       1.0978126
    26   6 C       54   1 H                                       1.0931203
    27   6 C       55   1 H                                       1.0879223
    27   6 C       56   1 H                                       1.0900088
    28   6 C       57   1 H                                       1.0888979
    28   6 C       58   1 H                                       1.0894008
[...]
    1    6 C      1-7, 9, 11, 13-16, 18, 19, 21, 22, 24, 26-31
    2    7 N      8, 10, 12, 17, 20, 23, 25
    3    8 O      32, 33
    4    1 H      34-62

           -------------------------------------------------
          |                Calculation Setup                |
           -------------------------------------------------

          program call               : xtb /rds/general/user/hgt20/home/callum/QDESCP/Palbociclib_rdkit_conf_18/Palbociclib_rdkit_conf_18.xyz --acc 1 --gfn 2 --chrg 0 --uhf 2 --etemp 300 --input /rds/general/user/hgt20/home/callum/QDESCP/Palbociclib_rdkit_conf_18/Palbociclib_rdkit_conf_18_xtb.inp -P 1
          hostname                   : login-c
          coordinate file            : /rds/general/user/hgt20/home/callum/QDESCP/Palbociclib_rdkit_conf_18/Palbociclib_rdkit_conf_18.xyz
          omp threads                :                     1


           -------------------------------------------------
          |                 G F N 2 - x T B                 |
           -------------------------------------------------

        Reference                      10.1021/acs.jctc.8b01176
      * Hamiltonian:
        H0-scaling (s, p, d)           1.850000    2.230000    2.230000
        zeta-weighting                 0.500000
      * Dispersion:
        s8                             2.700000
        a1                             0.520000
        a2                             5.000000
        s9                             5.000000
      * Repulsion:
        kExp                           1.500000    1.000000
        rExp                           1.000000
      * Coulomb:
        alpha                          2.000000
        third order                    shell-resolved
        anisotropic                    true
        a3                             3.000000
        a5                             4.000000
        cn-shift                       1.200000
        cn-exp                         4.000000
        max-rad                        5.000000


          ...................................................
          :                      SETUP                      :
          :.................................................:
          :  # basis functions                 161          :
          :  # atomic orbitals                 161          :
          :  # shells                           95          :
          :  # electrons                       172          :
          :  max. iterations                   250          :
          :  Hamiltonian                  GFN2-xTB          :
          :  restarted?                      false          :
          :  GBSA solvation                  false          :
          :  PC potential                    false          :
          :  electronic temp.          300.0000000     K    :
          :  accuracy                    1.0000000          :
          :  -> integral cutoff          0.2500000E+02      :
          :  -> integral neglect         0.1000000E-07      :
          :  -> SCF convergence          0.1000000E-05 Eh   :
          :  -> wf. convergence          0.1000000E-03 e    :
          :  Broyden damping             0.4000000          :
          :  net charge                          0          :
          :  unpaired electrons                  2          :
          ...................................................

 iter      E             dE          RMSdq      gap      omega  full diag
   1    -95.8282303 -0.958282E+02  0.351E+00    0.89       0.0  T
   2    -95.6909994  0.137231E+00  0.268E+00    0.43       1.0  T
   3    -95.8302518 -0.139252E+00  0.185E+00    0.92       1.0  T
   4    -96.0579788 -0.227727E+00  0.983E-01    0.20       1.0  T
   5    -96.0112448  0.467339E-01  0.935E-01    0.43       1.0  T
   6    -96.0568785 -0.456336E-01  0.607E-01    0.58       1.0  T
   7    -96.0412877  0.155907E-01  0.673E-01    0.29       1.0  T
   8    -96.0991110 -0.578233E-01  0.316E-01    0.39       1.0  T
   9    -96.1070492 -0.793820E-02  0.149E-01    0.34       1.0  T
  10    -96.1064854  0.563835E-03  0.122E-01    0.33       1.0  T
  11    -96.1077714 -0.128599E-02  0.661E-02    0.30       1.0  T
  12    -96.1082321 -0.460737E-03  0.481E-02    0.31       1.0  T
  13    -96.1083536 -0.121480E-03  0.287E-02    0.31       1.0  T
  14    -96.1084611 -0.107435E-03  0.939E-03    0.30       1.4  T
  15    -96.1084707 -0.963364E-05  0.349E-03    0.30       3.6  T
  16    -96.1084721 -0.145151E-05  0.109E-03    0.30      11.6  T
  17    -96.1084723 -0.122478E-06  0.709E-04    0.30      17.9  T
  18    -96.1084723 -0.232371E-07  0.308E-04    0.30      41.2  T

   *** convergence criteria satisfied after 18 iterations ***

         #    Occupation            Energy/Eh            Energy/eV
      -------------------------------------------------------------
         1        2.0000           -0.6994663             -19.0334
       ...           ...                  ...                  ...
        81        2.0000           -0.3870202             -10.5314
        82        2.0000           -0.3809349             -10.3658
        83        2.0000           -0.3749207             -10.2021
        84        1.9405           -0.3661954              -9.9647
        85        1.7671           -0.3647061              -9.9242
        86        1.2925           -0.3627344              -9.8705
        87        0.9972           -0.2676333              -7.2827 (HOMO)
        88        0.0028           -0.2564604              -6.9786 (LUMO)
        89                         -0.2443502              -6.6491
        90                         -0.2318953              -6.3102
        91                         -0.2094446              -5.6993
        92                         -0.1955371              -5.3208
       ...                                ...                  ...
       161                          0.7159845              19.4829
      -------------------------------------------------------------
                  HL-Gap            0.0111729 Eh            0.3040 eV
             Fermi-level           -0.3128103 Eh           -8.5120 eV

 transition dipole moment (au) for excitation:          86          87
     X       Y       Z   
  -2.5189  -0.0856   0.6234  total (au/Debye):    2.596   6.599
 dE (eV)             :    2.588
 oscillator strength :  0.60439E+00

 SCC (total)                   0 d,  0 h,  0 min,  0.216 sec
 SCC setup                      ...        0 min,  0.001 sec (  0.310%)
 Dispersion                     ...        0 min,  0.001 sec (  0.479%)
 classical contributions        ...        0 min,  0.000 sec (  0.140%)
 integral evaluation            ...        0 min,  0.013 sec (  6.240%)
 iterations                     ...        0 min,  0.105 sec ( 48.472%)
 molecular gradient             ...        0 min,  0.085 sec ( 39.255%)
 printout                       ...        0 min,  0.011 sec (  5.100%)

         :::::::::::::::::::::::::::::::::::::::::::::::::::::
         ::                     SUMMARY                     ::
         :::::::::::::::::::::::::::::::::::::::::::::::::::::
         :: total energy             -94.798985952704 Eh    ::
         :: gradient norm              0.100543257180 Eh/a0 ::
         :: HOMO-LUMO gap              0.304030382190 eV    ::
         ::.................................................::
         :: SCC energy               -96.108590255963 Eh    ::
         :: -> isotropic ES            0.111999995894 Eh    ::
         :: -> anisotropic ES          0.005891588528 Eh    ::
         :: -> anisotropic XC          0.047903945285 Eh    ::
         :: -> dispersion             -0.072180309839 Eh    ::
         :: repulsion energy           1.309604303259 Eh    ::
         :: add. restraining           0.000000000000 Eh    ::
         :: total charge              -0.000000000000 e     ::
         :::::::::::::::::::::::::::::::::::::::::::::::::::::

           -------------------------------------------------
          |                Property Printout                |
           -------------------------------------------------

    * Orbital Energies and Occupations

         #    Occupation            Energy/Eh            Energy/eV
      -------------------------------------------------------------
         1        2.0000           -0.6994663             -19.0334
       ...           ...                  ...                  ...
        75        2.0000           -0.4244752             -11.5506
        76        2.0000           -0.4211123             -11.4590
        77        2.0000           -0.4183234             -11.3832
        78        2.0000           -0.4076581             -11.0929
        79        2.0000           -0.4029749             -10.9655
        80        2.0000           -0.3944198             -10.7327
        81        2.0000           -0.3870202             -10.5314
        82        2.0000           -0.3809349             -10.3658
        83        2.0000           -0.3749207             -10.2021
        84        1.9405           -0.3661954              -9.9647
        85        1.7671           -0.3647061              -9.9242
        86        1.2925           -0.3627344              -9.8705
        87        0.9972           -0.2676333              -7.2827 (HOMO)
        88        0.0028           -0.2564604              -6.9786 (LUMO)
        89                         -0.2443502              -6.6491
        90                         -0.2318953              -6.3102
        91                         -0.2094446              -5.6993
        92                         -0.1955371              -5.3208
        93                         -0.1398587              -3.8057
        94                         -0.1107724              -3.0143
        95                         -0.0701332              -1.9084
        96                         -0.0292771              -0.7967
        97                         -0.0022861              -0.0622
        98                          0.0079075               0.2152
       ...                                ...                  ...
       161                          0.7159845              19.4829
      -------------------------------------------------------------
                  HL-Gap            0.0111729 Eh            0.3040 eV
             Fermi-level           -0.3128103 Eh           -8.5120 eV

     #   Z          covCN         q      C6AA      α(0)
     1   6 C        3.754    -0.135    23.154     6.861
     2   6 C        2.817     0.244    22.913     7.843
     3   6 C        2.964    -0.074    29.849     8.961
     4   6 C        2.957    -0.001    28.040     8.685
     5   6 C        3.758    -0.108    22.610     6.779
     6   6 C        2.979    -0.040    28.999     8.833
     7   6 C        2.925     0.039    27.136     8.543
     8   7 N        1.837    -0.262    27.665     7.795
     9   6 C        2.883     0.210    23.562     7.958
    10   7 N        2.727    -0.122    23.657     7.224
    11   6 C        2.891     0.144    24.875     8.177
    12   7 N        1.852    -0.256    27.513     7.774
    13   6 C        2.909     0.042    27.066     8.531
    14   6 C        2.903     0.042    27.056     8.529
    15   6 C        2.933    -0.041    29.025     8.835
    16   6 C        2.910    -0.055    29.365     8.886
    17   7 N        2.736    -0.089    22.972     7.118
    18   6 C        3.759    -0.009    20.784     6.499
    19   6 C        3.751     0.003    20.584     6.470
    20   7 N        2.678    -0.237    26.205     7.603
    21   6 C        3.751     0.003    20.592     6.471
    22   6 C        3.759    -0.007    20.750     6.494
    23   7 N        1.862    -0.302    28.678     7.938
    24   6 C        2.917     0.166    24.416     8.103
    25   7 N        2.749    -0.079    22.781     7.089
    26   6 C        3.822     0.037    19.940     6.355
    27   6 C        3.819    -0.063    21.691     6.628
    28   6 C        3.827    -0.058    21.600     6.613
    29   6 C        3.830    -0.057    21.583     6.610
    30   6 C        3.827    -0.065    21.720     6.632
    31   6 C        2.777     0.254    22.730     7.809
    32   8 O        0.859    -0.454    22.785     6.400
    33   8 O        0.857    -0.371    21.117     6.161
    34   1 H        0.925     0.060     2.199     2.319
    35   1 H        0.925     0.054     2.275     2.358
    36   1 H        0.925     0.101     1.778     2.085
    37   1 H        0.925     0.049     2.333     2.389
    38   1 H        0.925     0.040     2.454     2.450
    39   1 H        0.925     0.064     2.155     2.296
    40   1 H        0.925     0.039     2.456     2.451
    41   1 H        0.860     0.211     1.051     1.606
    42   1 H        0.926     0.039     2.461     2.453
    43   1 H        0.926     0.036     2.496     2.471
    44   1 H        0.926     0.077     2.011     2.218
    45   1 H        0.924     0.045     2.387     2.416
    46   1 H        0.925     0.056     2.244     2.343
    47   1 H        0.924     0.050     2.323     2.384
    48   1 H        0.924     0.049     2.335     2.390
    49   1 H        0.860     0.146     1.432     1.874
    50   1 H        0.924     0.052     2.297     2.370
    51   1 H        0.924     0.048     2.349     2.397
    52   1 H        0.925     0.055     2.256     2.349
    53   1 H        0.924     0.045     2.387     2.416
    54   1 H        0.924     0.081     1.970     2.195
    55   1 H        0.925     0.042     2.419     2.432
    56   1 H        0.925     0.038     2.480     2.463
    57   1 H        0.925     0.032     2.556     2.500
    58   1 H        0.925     0.038     2.469     2.457
    59   1 H        0.925     0.033     2.551     2.498
    60   1 H        0.924     0.037     2.495     2.470
    61   1 H        0.925     0.051     2.310     2.377
    62   1 H        0.925     0.037     2.489     2.467

 Mol. C6AA /au·bohr⁶  :      42250.750088
 Mol. C8AA /au·bohr⁸  :     981625.601248
 Mol. α(0) /au        :        315.101385


Wiberg/Mayer (AO) data.
largest (>0.10) Wiberg bond orders for each atom

 ---------------------------------------------------------------------------
     #   Z sym  total        # sym  WBO       # sym  WBO       # sym  WBO
 ---------------------------------------------------------------------------
     1   6 C    3.963 --     2 C    0.994    34 H    0.982    35 H    0.968
                            36 H    0.940
     2   6 C    3.891 --    33 O    1.774     3 C    1.022     1 C    0.994
     3   6 C    3.828 --     4 C    1.383    31 C    1.127     2 C    1.022
     4   6 C    3.894 --     3 C    1.383     6 C    1.256     5 C    1.027
     5   6 C    3.989 --     4 C    1.027    39 H    0.978    38 H    0.969
                            37 H    0.968
     6   6 C    3.893 --     4 C    1.256     7 C    1.220    24 C    1.194
     7   6 C    3.867 --     8 N    1.442     6 C    1.220    40 H    0.952
     8   7 N    3.001 --     7 C    1.442     9 C    1.297
     9   6 C    3.912 --     8 N    1.297    23 N    1.239    10 N    1.165
    10   7 N    3.471 --     9 C    1.165    11 C    1.151    41 H    0.917
    11   6 C    3.902 --    12 N    1.293    16 C    1.289    10 N    1.151
    12   7 N    3.006 --    13 C    1.485    11 C    1.293
    13   6 C    3.942 --    12 N    1.485    14 C    1.303    42 H    0.956
    14   6 C    3.906 --    13 C    1.303    15 C    1.286    17 N    1.144
    15   6 C    3.944 --    16 C    1.519    14 C    1.286    43 H    0.963
    16   6 C    3.957 --    15 C    1.519    11 C    1.289    44 H    0.954
    17   7 N    3.308 --    14 C    1.144    22 C    1.003    18 C    0.997
    18   6 C    3.965 --    17 N    0.997    45 H    0.968    19 C    0.966
                            46 H    0.965
    19   6 C    3.970 --    20 N    1.025    48 H    0.971    47 H    0.971
                            18 C    0.966
    20   7 N    3.085 --    19 C    1.025    21 C    1.022    49 H    0.954
    21   6 C    3.971 --    20 N    1.022    51 H    0.972    50 H    0.970
                            22 C    0.969
    22   6 C    3.969 --    17 N    1.003    21 C    0.969    52 H    0.966
                            53 H    0.966
    23   7 N    2.956 --    24 C    1.373     9 C    1.239
    24   6 C    3.950 --    23 N    1.373    25 N    1.203     6 C    1.194
    25   7 N    3.562 --    24 C    1.203    31 C    1.069    26 C    0.961
                            32 O    0.108
    26   6 C    3.949 --    30 C    0.984    27 C    0.981    25 N    0.961
                            54 H    0.954
    27   6 C    3.994 --    28 C    1.006    56 H    0.981    26 C    0.981
                            55 H    0.977
    28   6 C    3.996 --    29 C    1.007    27 C    1.006    57 H    0.980
                            58 H    0.976
    29   6 C    3.996 --    30 C    1.007    28 C    1.007    60 H    0.979
                            59 H    0.979
    30   6 C    3.992 --    29 C    1.007    26 C    0.984    62 H    0.979
                            61 H    0.970
    31   6 C    3.934 --    32 O    1.604     3 C    1.127    25 N    1.069
    32   8 O    1.919 --    31 C    1.604    25 N    0.108
    33   8 O    1.991 --     2 C    1.774
    34   1 H    0.994 --     1 C    0.982
    35   1 H    0.995 --     1 C    0.968
    36   1 H    0.987 --     1 C    0.940
    37   1 H    0.994 --     5 C    0.968
    38   1 H    0.994 --     5 C    0.969
    39   1 H    0.995 --     5 C    0.978
    40   1 H    0.986 --     7 C    0.952
    41   1 H    0.955 --    10 N    0.917
    42   1 H    0.997 --    13 C    0.956
    43   1 H    0.998 --    15 C    0.963
    44   1 H    0.993 --    16 C    0.954
    45   1 H    0.995 --    18 C    0.968
    46   1 H    0.996 --    18 C    0.965
    47   1 H    0.997 --    19 C    0.971
    48   1 H    0.995 --    19 C    0.971
    49   1 H    0.978 --    20 N    0.954
    50   1 H    0.996 --    21 C    0.970
    51   1 H    0.996 --    21 C    0.972
    52   1 H    0.996 --    22 C    0.966
    53   1 H    0.994 --    22 C    0.966
    54   1 H    0.992 --    26 C    0.954
    55   1 H    0.998 --    27 C    0.977
    56   1 H    0.998 --    27 C    0.981
    57   1 H    0.999 --    28 C    0.980
    58   1 H    0.998 --    28 C    0.976
    59   1 H    0.998 --    29 C    0.979
    60   1 H    0.998 --    29 C    0.979
    61   1 H    0.996 --    30 C    0.970
    62   1 H    0.998 --    30 C    0.979
 ---------------------------------------------------------------------------

Topologies differ in total number of bonds
Writing topology from bond orders to xtbtopo.mol

molecular dipole:
                 x           y           z       tot (Debye)
 q only:        5.884       0.369      -2.311
   full:        5.966      -0.074      -2.388      16.335
molecular quadrupole (traceless):
                xx          xy          yy          xz          yz          zz
 q only:       16.112      -4.885       4.435      20.231       1.439     -20.546
  q+dip:       18.860      -6.544       5.163      14.860       1.784     -24.023
   full:       16.050      -5.198       6.456      15.817       5.328     -22.505


           -------------------------------------------------
          | TOTAL ENERGY              -94.798985952704 Eh   |
          | GRADIENT NORM               0.100543257180 Eh/α |
          | HOMO-LUMO GAP               0.304030382190 eV   |
           -------------------------------------------------

------------------------------------------------------------------------
 * finished run on 2025/05/15 at 16:19:48.880     
------------------------------------------------------------------------
 total:
 * wall-time:     0 d,  0 h,  0 min,  0.273 sec
 *  cpu-time:     0 d,  0 h,  0 min,  0.174 sec
 * ratio c/w:     0.637 speedup
 SCF:
 * wall-time:     0 d,  0 h,  0 min,  0.217 sec
 *  cpu-time:     0 d,  0 h,  0 min,  0.156 sec
 * ratio c/w:     0.719 speedup


