62
 energy: -94.884222946526 gnorm: 0.000529108148 xtb: 6.7.1 (edcfbbe)
C           -7.24579533329382       -2.06877846626444        1.88942770315517
C           -6.02574952908975       -1.80072477802938        2.72067074706434
C           -4.83701126683944       -1.28326914390166        1.97088332999776
C           -3.59990366525193       -1.83634455259217        2.13578809198066
C           -3.33415139762285       -3.00760681878583        3.02648031626245
C           -2.50780026617573       -1.29129304080503        1.39315898450671
C           -1.18829573545241       -1.75915476949769        1.43688597656301
N           -0.20189459439562       -1.22496144355147        0.75861426698425
C           -0.50202536100971       -0.16957220318899       -0.01463969158535
N            0.46000270872493        0.44630402395478       -0.73097626766443
C            1.81934274358724        0.19615521748345       -0.84232885094640
N            2.44577098699295        1.05711613398847       -1.64103723917095
C            3.74000392737117        0.93239237160373       -1.83131062479236
C            4.53552532941142       -0.06160215518178       -1.23830413170181
C            3.85311506885179       -0.96331523270239       -0.40664919818033
C            2.49393200356593       -0.84097391267830       -0.20395896313530
N            5.87852972861496       -0.16649143054559       -1.54073983186097
C            6.70072231803219        1.02551909326204       -1.63450517993362
C            7.33203223342103        1.33940096142880       -0.26413649723712
N            8.09760153148915        0.22743003482253        0.26829897636901
C            7.29041944429213       -0.97947890384643        0.30865724801858
C            6.66350910305012       -1.28718309555950       -1.06171049370381
N           -1.71777730233809        0.35884320602675       -0.14933527766901
C           -2.71675976745010       -0.17831905926787        0.53840870545595
N           -3.95561923374016        0.36314122181754        0.40815794750600
C           -4.18268338742722        1.51009703351685       -0.46571348400393
C           -3.80001336900308        1.25937424452222       -1.93961070398892
C           -2.86586382784563        2.40929306140887       -2.32711956408715
C           -3.21588568211396        3.52399768061380       -1.34513951513651
C           -3.42005208207975        2.77151871545190       -0.03495226393547
C           -5.06473570538280       -0.13922251161174        1.09168945868806
O           -6.15171594964228        0.39507795607743        0.94725929532569
O           -5.98895381336029       -2.00516243606497        3.91201803459883
H           -7.99601081310864       -2.57942977889240        2.48702530317834
H           -6.98601526934567       -2.66098584890299        1.01449774286657
H           -7.63530801336047       -1.11353496486580        1.54111354981561
H           -2.61033065477211       -2.72882599065050        3.79086309521172
H           -2.91814790498799       -3.83196347432162        2.44790534256895
H           -4.23708036822842       -3.34155995579910        3.52448304488591
H           -0.91436727099414       -2.60519684243968        2.05218878478004
H            0.14862931620835        1.24056579035758       -1.27730248555171
H            4.16164796129722        1.65945434090301       -2.51146675470574
H            4.37631062597397       -1.75996488438214        0.09846299963141
H            1.95752531746672       -1.51932946725136        0.43615278159102
H            7.49115383307475        0.83624398615049       -2.37113413961165
H            6.11094738096042        1.87465038241560       -1.97140677738712
H            6.53347678208588        1.56240335109378        0.45092814435930
H            7.98520656156750        2.21062078518845       -0.33983459035908
H            8.91557030947552        0.06904500965580       -0.31463742369257
H            6.49964493705222       -0.81883517569107        1.04754726692883
H            7.91569714698051       -1.81062502209919        0.63996504373909
H            6.05224786191109       -2.18812667019665       -1.03267933647254
H            7.46672392375934       -1.45135625006689       -1.79183748980188
H           -5.25724059823581        1.69727328270736       -0.39357799793764
H           -3.31562877326907        0.29318381953851       -2.06379727162606
H           -4.69843447046987        1.26799850492586       -2.55676880391268
H           -2.99268480283125        2.71030623950334       -3.36587168606080
H           -1.83062514103013        2.10557229257396       -2.17602907325797
H           -2.43621558600948        4.28063062327913       -1.27340336707449
H           -4.14540849540904        4.01046912226331       -1.64528561739461
H           -2.45399213541971        2.49373444773370        0.38350899638647
H           -3.97511151823333        3.34527534536392        0.70565941515882
