66
 energy: -102.674878560827 gnorm: 0.000582058752 xtb: 6.7.1 (edcfbbe)
C           -6.08960962397008        0.33082739203121        2.62785255220963
C           -5.64567786986912        0.89629751357350        1.28545169681267
C           -5.83778230915648       -0.12506136668309        0.15374923735148
C           -4.96349579061923       -1.31191689945628        0.33649232670953
N           -5.32998666338664       -2.48924996252469        0.79872379685823
C           -4.22980546427326       -3.27249919147904        0.85619002170253
C           -4.27368409191803       -4.67444061476877        1.33522641453940
C           -3.13236727758859       -2.55300295016954        0.41320241467328
N           -3.63625685838045       -1.30465935235057        0.08870163743456
N           -2.82369841598160       -0.32666192109681       -0.40974121853649
C           -1.50207793524653       -0.60811089478748       -0.56620222881615
C           -0.62157827303053        0.43888512226192       -1.11550501782168
C           -1.00206593190114        1.77060262859503       -1.38597332514615
C           -0.05236607194405        2.66386590896617       -1.88342453813814
C            1.25100535021819        2.26402711768690       -2.10540039712096
C            1.61850526770782        0.95762302361386       -1.84971549557375
S            3.33439666818005        0.49908923009101       -2.08777317170136
O            3.42376184896296       -0.92465069675251       -2.23280830562491
N            3.93712239937360        1.06172230847590       -0.62656579792266
C            3.73896995861502        0.16262379192917        0.49153568545280
C            4.80156261236934       -0.93431219112769        0.54275203945676
N            6.12677441525843       -0.33348077795853        0.57045814457737
C            6.31870401589850        0.46061626027389       -0.63089848149923
C            5.28664984857343        1.58565100627113       -0.66597529084905
C            7.17967847657352       -1.32072147749775        0.74977550036271
C            7.21174808823446       -1.86138573634928        2.17523328746071
O            3.88303815289553        1.32325441172901       -3.12578967925259
C            0.69685958990917        0.05676509925683       -1.36929545659197
O           -2.29215440770507        2.13798647744523       -1.14825945296992
C           -2.71515656634183        3.46738093375237       -1.42946587968987
C           -4.19000017712321        3.56732981529142       -1.07404206115928
N           -0.97194955693222       -1.73696240917424       -0.25667536082781
C           -1.70762199402570       -2.80661690847214        0.25467484752553
O           -1.16963584649946       -3.85298277264198        0.53919288627702
H           -7.15219911153122        0.10338268024857        2.60978969651341
H           -5.90115490974423        1.04607795009812        3.42503435434952
H           -5.55305187240692       -0.58810025538476        2.84932430526892
H           -4.59272180868731        1.18617474368482        1.34575297962643
H           -6.22832989514864        1.79085121542497        1.05406375833257
H           -6.87075115038474       -0.47184637315885        0.15173282945099
H           -5.62753264609902        0.34451672132004       -0.81237666263563
H           -5.30613186491171       -4.96813721918975        1.49933974275681
H           -3.80838576236508       -5.33349594224546        0.60537098817150
H           -3.71531307473057       -4.77066466179103        2.26506684992413
H           -3.22390595527677        0.57182273714833       -0.64580242986961
H           -0.32617902598902        3.68353812979123       -2.09845328272154
H            1.98917385650979        2.94818737388886       -2.49058261820917
H            2.74619032249194       -0.27767198716929        0.39848252088759
H            3.78442637104612        0.76388056543733        1.40498656314807
H            4.67435738284011       -1.59213311928702       -0.33248603358756
H            4.65716822270889       -1.52053674883386        1.45045296211116
H            7.32333165755233        0.88991566347239       -0.61388227467175
H            6.20642291831537       -0.14585520152156       -1.54794367618427
H            5.41614502731451        2.23904156183125        0.20162490500502
H            5.38103791460609        2.16365624896291       -1.58481899257537
H            8.12923295035533       -0.81748835593817        0.54849832100807
H            7.08056195170621       -2.15421273969007        0.03337728288445
H            6.37226644934217       -2.52206446381548        2.37237168982470
H            8.12886488123636       -2.42329675692132        2.33263972022435
H            7.17972726424030       -1.03498764150368        2.88014410977297
H            0.97022786366232       -0.97097919304154       -1.18852447618620
H           -2.56551035364826        3.68611539431403       -2.49365620894614
H           -2.13378305803683        4.17745630766760       -0.82938321080051
H           -4.54541165030970        4.57167531360295       -1.28339590212379
H           -4.33956906419209        3.35511662181239       -0.01893962042306
H           -4.77130939734213        2.86202951284755       -1.66260952047600
