57
 energy: -87.643579224151 gnorm: 0.000318297703 xtb: 6.7.1 (edcfbbe)
O           -3.04497508747532        0.60103720934798       -1.99719101566615
C           -3.56903984699333        0.51854045199316       -0.89906892678945
C           -2.90035938266912        0.64251546774130        0.37534542446816
C           -1.42222016241295        0.88575140253832        0.32664525806478
C           -0.65747289699833       -0.44629722956235        0.28227380156142
N            0.75926901937738       -0.24832164158841        0.52451779784894
C            1.45022122427989        0.28300068699491       -0.63488050418436
C            2.87599569082090        0.67764778925210       -0.26573308291408
C            3.63447406897792       -0.54804735181151        0.26050925848149
C            2.84721471673272       -1.12602225900097        1.43382454269904
C            1.42234152658357       -1.44932695503485        0.99621056879089
C            5.01902917138611       -0.16236842435931        0.64504612275929
N            5.36688440084728        0.11938423231027        1.86284930440563
O            6.69238907689789        0.46524689122815        1.88885206979840
C            7.17442619814724        0.39259731317638        0.63762403722872
C            6.14425260281027       -0.00857602716272       -0.23487469211412
C            6.39445728899575       -0.16279317849270       -1.59668094133046
C            7.66806776179257        0.08846896918687       -2.05074869416818
C            8.66664532016191        0.48519088445336       -1.15684089917245
F            9.89637200515365        0.71632425796517       -1.65435892592002
C            8.46478868994399        0.65018144488949        0.19610019032016
C           -3.61248367261624        0.50083641117288        1.53246103257417
N           -4.95165654142012        0.26060599490057        1.53425191328107
C           -5.56378327543237        0.16666551709380        0.40180971602995
N           -4.94839556284734        0.28989372727577       -0.79494900513197
C           -5.73749060932942        0.08896946533659       -1.99043983176877
C           -6.50630851772530       -1.22357291205838       -1.85857725060823
C           -7.39069141408049       -1.22470409353468       -0.60010168333353
C           -7.03726445721191       -0.06931092836959        0.34949095466177
C           -2.99761876442163        0.60896736576679        2.89197546243103
H           -1.08886898845734        1.44881852638455        1.19752834348189
H           -1.20817286946198        1.45913214602393       -0.57593250550511
H           -1.04451434339828       -1.09540363005324        1.07273023851695
H           -0.85017560539046       -0.94240949748356       -0.68368712142401
H            1.47256329828723       -0.45541860253837       -1.45949131430262
H            0.91315471430463        1.16388216890843       -0.98807958310518
H            3.38134063822132        1.09760432796903       -1.13768632402132
H            2.84460177801089        1.43510081005869        0.51825160084925
H            3.69694383330566       -1.29249026689864       -0.54307883104246
H            3.33342285601943       -2.02748063672738        1.80836101525498
H            2.82441987257824       -0.39057623245879        2.23676342565694
H            1.44527813231574       -2.23414451970143        0.21537324921830
H            0.86290466290793       -1.84057052965650        1.84961809490584
H            5.61237366202989       -0.47056141693494       -2.27224939067684
H            7.92227492387152       -0.01461958821112       -3.09354739505525
H            9.25601169488626        0.95593825911394        0.85851407830388
H           -5.04048756001172        0.06599490550472       -2.83188266916882
H           -6.42573202324357        0.93014395001124       -2.12334731860582
H           -5.77870989119515       -2.03522356200253       -1.80204476412092
H           -7.10678551436545       -1.37804001347688       -2.75458360931053
H           -8.44291596710204       -1.13823137804236       -0.87315812040596
H           -7.26711350783925       -2.16888809257130       -0.06926574630261
H           -7.51056391955043        0.85033005946734       -0.00655196492168
H           -7.39745005279872       -0.26615330330441        1.35775553631179
H           -2.64094869919934        1.62351028350150        3.06351150639636
H           -3.74844344960667        0.36761061626661        3.63838198510590
H           -2.15177624638834       -0.06653926476748        2.99255558167786
