----- Optimization -----
      -----------------------------------------------------------      
     |                   =====================                   |     
     |                           x T B                           |     
     |                   =====================                   |     
     |                         S. Grimme                         |     
     |          Mulliken Center for Theoretical Chemistry        |     
     |                    University of Bonn                     |     
      -----------------------------------------------------------      

   * xtb version 6.7.1 (edcfbbe) compiled by 'conda@3ef47c1a292c' on 2024-11-25

   xtb is free software: you can redistribute it and/or modify it under
   the terms of the GNU Lesser General Public License as published by
   the Free Software Foundation, either version 3 of the License, or
   (at your option) any later version.
   
   xtb is distributed in the hope that it will be useful,
   but WITHOUT ANY WARRANTY; without even the implied warranty of
   MERCHANTABILITY or FITNESS FOR A PARTICULAR PURPOSE.  See the
   GNU Lesser General Public License for more details.
   
   Cite this work as:
   * C. Bannwarth, E. Caldeweyher, S. Ehlert, A. Hansen, P. Pracht,
     J. Seibert, S. Spicher, S. Grimme, WIREs Comput. Mol. Sci., 2020, 11,
     e01493. DOI: 10.1002/wcms.1493
   
   for GFN2-xTB:
   * C. Bannwarth, S. Ehlert and S. Grimme., J. Chem. Theory Comput., 2019,
     15, 1652-1671. DOI: 10.1021/acs.jctc.8b01176
   for GFN1-xTB:
   * S. Grimme, C. Bannwarth, P. Shushkov, J. Chem. Theory Comput., 2017,
     13, 1989-2009. DOI: 10.1021/acs.jctc.7b00118
   for GFN0-xTB:
   * P. Pracht, E. Caldeweyher, S. Ehlert, S. Grimme, ChemRxiv, 2019, preprint.
     DOI: 10.26434/chemrxiv.8326202.v1
   for GFN-FF:
   * S. Spicher and S. Grimme, Angew. Chem. Int. Ed., 2020, 59, 15665-15673.
     DOI: 10.1002/anie.202004239
   
   for ALPB and GBSA implicit solvation:
   * S. Ehlert, M. Stahn, S. Spicher, S. Grimme, J. Chem. Theory Comput.,
     2021, 17, 4250-4261. DOI: 10.1021/acs.jctc.1c00471
   
   for ddCOSMO and CPCM-X implicit solvation:
   * M. Stahn, S. Ehlert, S. Grimme, J. Phys. Chem. A,
     2023, XX, XXXX-XXXX. DOI: 10.1021/acs.jpca.3c04382
   
   for DFT-D4:
   * E. Caldeweyher, C. Bannwarth and S. Grimme, J. Chem. Phys., 2017,
     147, 034112. DOI: 10.1063/1.4993215
   * E. Caldeweyher, S. Ehlert, A. Hansen, H. Neugebauer, S. Spicher,
     C. Bannwarth and S. Grimme, J. Chem. Phys., 2019, 150, 154122.
     DOI: 10.1063/1.5090222
   * E. Caldeweyher, J.-M. Mewes, S. Ehlert and S. Grimme, Phys. Chem. Chem. Phys.
     2020, 22, 8499-8512. DOI: 10.1039/D0CP00502A
   
   for sTDA-xTB:
   * S. Grimme and C. Bannwarth, J. Chem. Phys., 2016, 145, 054103.
     DOI: 10.1063/1.4959605
   
   in the mass-spec context:
   * V. Asgeirsson, C. Bauer and S. Grimme, Chem. Sci., 2017, 8, 4879.
     DOI: 10.1039/c7sc00601b
   * J. Koopman and S. Grimme, ACS Omega 2019, 4, 12, 15120-15133.
     DOI: 10.1021/acsomega.9b02011
   
   for metadynamics refer to:
   * S. Grimme, J. Chem. Theory Comput., 2019, 155, 2847-2862
     DOI: 10.1021/acs.jctc.9b00143
   
   for SPH calculations refer to:
   * S. Spicher and S. Grimme, J. Chem. Theory Comput., 2021, 17, 1701-1714
     DOI: 10.1021/acs.jctc.0c01306
   
   for ONIOM refer to:
   * C. Plett, A. Katbashev, S. Ehlert, S. Grimme, M. Bursch,
     Phys. Chem. Chem. Phys., 2023, 25, 17860-17868. DOI: 10.1039/D3CP02178E
   
   for DIPRO refer to:
   * J. Kohn, N. Gildemeister, S. Grimme, D. Fazzi, A. Hansen,
     J. Chem. Phys., 2023, just accepted.
   
   for PTB refer to:
   * S. Grimme, M. Mueller, A. Hansen, J. Chem. Phys., 2023, 158, 124111.
     DOI: 10.1063/5.0137838
   
   with help from (in alphabetical order)
   P. Atkinson, C. Bannwarth, F. Bohle, G. Brandenburg, E. Caldeweyher
   M. Checinski, S. Dohm, S. Ehlert, S. Ehrlich, I. Gerasimov, C. Hölzer
   A. Katbashev, J. Kohn, J. Koopman, C. Lavigne, S. Lehtola, F. März, M. Müller,
   F. Musil, H. Neugebauer, J. Pisarek, C. Plett, P. Pracht, F. Pultar,
   J. Seibert, P. Shushkov, S. Spicher, M. Stahn, M. Steiner, T. Strunk,
   J. Stückrath, T. Rose, and J. Unsleber
   
 * started run on 2025/05/15 at 16:14:39.676     
   ID    Z sym.   atoms
    1    6 C      1-4, 6-8, 11-16, 20, 21, 23-26, 28, 30, 31, 33
    2    7 N      5, 9, 10, 19, 22, 32
    3   16 S      17
    4    8 O      18, 27, 29, 34
    5    1 H      35-66

           -------------------------------------------------
          |                Calculation Setup                |
           -------------------------------------------------

          program call               : xtb /rds/general/user/hgt20/home/callum/QDESCP/Vardenafil_rdkit_conf_20/Vardenafil_rdkit_conf_20.xyz --opt normal --acc 1 --gfn 2 --chrg 0 --uhf 0 -P 1
          hostname                   : login-c
          coordinate file            : /rds/general/user/hgt20/home/callum/QDESCP/Vardenafil_rdkit_conf_20/Vardenafil_rdkit_conf_20.xyz
          omp threads                :                     1


           -------------------------------------------------
          |                 G F N 2 - x T B                 |
           -------------------------------------------------

        Reference                      10.1021/acs.jctc.8b01176
      * Hamiltonian:
        H0-scaling (s, p, d)           1.850000    2.230000    2.230000
        zeta-weighting                 0.500000
      * Dispersion:
        s8                             2.700000
        a1                             0.520000
        a2                             5.000000
        s9                             5.000000
      * Repulsion:
        kExp                           1.500000    1.000000
        rExp                           1.000000
      * Coulomb:
        alpha                          2.000000
        third order                    shell-resolved
        anisotropic                    true
        a3                             3.000000
        a5                             4.000000
        cn-shift                       1.200000
        cn-exp                         4.000000
        max-rad                        5.000000


          ...................................................
          :                      SETUP                      :
          :.................................................:
          :  # basis functions                 174          :
          :  # atomic orbitals                 173          :
          :  # shells                          101          :
          :  # electrons                       184          :
          :  max. iterations                   250          :
          :  Hamiltonian                  GFN2-xTB          :
          :  restarted?                      false          :
          :  GBSA solvation                  false          :
          :  PC potential                    false          :
          :  electronic temp.          300.0000000     K    :
          :  accuracy                    1.0000000          :
          :  -> integral cutoff          0.2500000E+02      :
          :  -> integral neglect         0.1000000E-07      :
          :  -> SCF convergence          0.1000000E-05 Eh   :
          :  -> wf. convergence          0.1000000E-03 e    :
          :  Broyden damping             0.4000000          :
          :  net charge                          0          :
          :  unpaired electrons                  0          :
          ...................................................

 iter      E             dE          RMSdq      gap      omega  full diag
   1   -103.6026870 -0.103603E+03  0.426E+00    2.32       0.0  T
   2   -103.8316257 -0.228939E+00  0.274E+00    1.59       1.0  T
   3   -103.8545202 -0.228945E-01  0.142E+00    1.74       1.0  T
   4   -103.8681074 -0.135872E-01  0.497E-01    1.16       1.0  T
   5   -103.8782581 -0.101507E-01  0.178E-01    1.23       1.0  T
   6   -103.8786281 -0.369999E-03  0.959E-02    1.23       1.0  T
   7   -103.8787421 -0.114025E-03  0.574E-02    1.27       1.0  T
   8   -103.8788225 -0.803910E-04  0.274E-02    1.27       1.0  T
   9   -103.8788299 -0.736212E-05  0.102E-02    1.27       1.2  T
  10   -103.8788325 -0.256475E-05  0.477E-03    1.27       2.6  T
  11   -103.8788327 -0.280986E-06  0.211E-03    1.27       5.8  T
  12   -103.8788328 -0.773262E-07  0.644E-04    1.27      19.1  T
  13   -103.8788328 -0.966291E-08  0.316E-04    1.27      38.9  T

   *** convergence criteria satisfied after 13 iterations ***

         #    Occupation            Energy/Eh            Energy/eV
      -------------------------------------------------------------
         1        2.0000           -0.7727877             -21.0286
       ...           ...                  ...                  ...
        86        2.0000           -0.4119062             -11.2085
        87        2.0000           -0.4093363             -11.1386
        88        2.0000           -0.3938090             -10.7161
        89        2.0000           -0.3861322             -10.5072
        90        2.0000           -0.3795096             -10.3270
        91        2.0000           -0.3727021             -10.1417
        92        2.0000           -0.3511411              -9.5550 (HOMO)
        93                         -0.3044555              -8.2847 (LUMO)
        94                         -0.2723819              -7.4119
        95                         -0.2527260              -6.8770
        96                         -0.2292906              -6.2393
        97                         -0.1926208              -5.2415
       ...                                ...                  ...
       173                          1.1509227              31.3182
      -------------------------------------------------------------
                  HL-Gap            0.0466857 Eh            1.2704 eV
             Fermi-level           -0.3277983 Eh           -8.9198 eV

 SCC (total)                   0 d,  0 h,  0 min,  0.160 sec
 SCC setup                      ...        0 min,  0.001 sec (  0.485%)
 Dispersion                     ...        0 min,  0.001 sec (  0.663%)
 classical contributions        ...        0 min,  0.000 sec (  0.212%)
 integral evaluation            ...        0 min,  0.016 sec (  9.758%)
 iterations                     ...        0 min,  0.082 sec ( 51.238%)
 molecular gradient             ...        0 min,  0.060 sec ( 37.379%)
 printout                       ...        0 min,  0.000 sec (  0.259%)

         :::::::::::::::::::::::::::::::::::::::::::::::::::::
         ::                     SUMMARY                     ::
         :::::::::::::::::::::::::::::::::::::::::::::::::::::
         :: total energy            -102.650627427144 Eh    ::
         :: gradient norm              0.105640453565 Eh/a0 ::
         :: HOMO-LUMO gap              1.270381377743 eV    ::
         ::.................................................::
         :: SCC energy              -103.877939491719 Eh    ::
         :: -> isotropic ES            0.146901321053 Eh    ::
         :: -> anisotropic ES          0.005940739649 Eh    ::
         :: -> anisotropic XC          0.050990671852 Eh    ::
         :: -> dispersion             -0.075984253563 Eh    ::
         :: repulsion energy           1.227312064576 Eh    ::
         :: add. restraining           0.000000000000 Eh    ::
         :: total charge              -0.000000000000 e     ::
         :::::::::::::::::::::::::::::::::::::::::::::::::::::

      ----------------------------------------------------------- 
     |                   =====================                   |
     |                        A N C O P T                        |
     |                   =====================                   |
     |               Approximate Normal Coordinate               |
     |                Rational Function Optimizer                |
      ----------------------------------------------------------- 
      ----------------------------------------------------------- 
     |                   =====================                   |
     |                        A N C O P T                        |
     |                   =====================                   |
     |               Approximate Normal Coordinate               |
     |                Rational Function Optimizer                |
      ----------------------------------------------------------- 

          ...................................................
          :                      SETUP                      :
          :.................................................:
          :   optimization level            normal          :
          :   max. optcycles                   200          :
          :   ANC micro-cycles                  20          :
          :   degrees of freedom               192          :
          :.................................................:
          :   RF solver                   davidson          :
          :   write xtbopt.log                true          :
          :   linear?                        false          :
          :   energy convergence         0.5000000E-05 Eh   :
          :   grad. convergence          0.1000000E-02 Eh/α :
          :   maxmium RF displ.          1.0000000          :
          :   Hlow (freq-cutoff)         0.1000000E-01      :
          :   Hmax (freq-cutoff)         5.0000000          :
          :   S6 in model hess.         20.0000000          :
          ...................................................

generating ANC from exact Hessian ...
Using Lindh-Hessian (1995)
 Shifting diagonal of input Hessian by    9.8969122660432004E-003
 Lowest  eigenvalues of input Hessian
    0.000000    0.000000    0.000000    0.000000    0.000000    0.000000
    0.010000    0.010025    0.010132    0.010462    0.010654    0.010950
    0.011183    0.011225    0.011806    0.012018    0.012407    0.012676
 Highest eigenvalues
    2.091228    2.104821    2.327816    2.432743    2.520354    3.432212


........................................................................
.............................. CYCLE    1 ..............................
........................................................................

 iter      E             dE          RMSdq      gap      omega  full diag
   1   -103.8788328 -0.103879E+03  0.131E-04    1.27       0.0  T
   2   -103.8788328 -0.133724E-09  0.858E-05    1.27     143.5  T
   3   -103.8788328 -0.605809E-10  0.577E-05    1.27     213.3  T
     SCC iter.                  ...        0 min,  0.016 sec
     gradient                   ...        0 min,  0.067 sec
 * total energy  :  -102.6506274 Eh     change       -0.1806853E-08 Eh
   gradient norm :     0.1056380 Eh/α   predicted     0.0000000E+00 (-100.00%)
   displ. norm   :     0.3462818 α      lambda       -0.1993511E-01
   maximum displ.:     0.1201882 α      in ANC's #64, #75, #31, ...

........................................................................
.............................. CYCLE    2 ..............................
........................................................................

 iter      E             dE          RMSdq      gap      omega  full diag
   1   -103.9298465 -0.103930E+03  0.183E-01    1.32       0.0  T
   2   -103.9300714 -0.224851E-03  0.116E-01    1.37       1.0  T
   3   -103.9300648  0.659935E-05  0.607E-02    1.37       1.0  T
   4   -103.9301471 -0.822893E-04  0.195E-02    1.38       1.0  T
   5   -103.9301613 -0.142249E-04  0.598E-03    1.38       2.1  T
   6   -103.9301613 -0.344306E-07  0.194E-03    1.38       6.4  T
   7   -103.9301615 -0.137337E-06  0.800E-04    1.38      15.4  T
   8   -103.9301615 -0.128738E-07  0.378E-04    1.38      32.6  T
     SCC iter.                  ...        0 min,  0.039 sec
     gradient                   ...        0 min,  0.060 sec
 * total energy  :  -102.6648423 Eh     change       -0.1421483E-01 Eh
   gradient norm :     0.0475019 Eh/α   predicted    -0.1116962E-01 ( -21.42%)
   displ. norm   :     0.3285669 α      lambda       -0.7619486E-02
   maximum displ.:     0.0985873 α      in ANC's #30, #31, #18, ...

........................................................................
.............................. CYCLE    3 ..............................
........................................................................

 iter      E             dE          RMSdq      gap      omega  full diag
   1   -103.9597494 -0.103960E+03  0.146E-01    1.36       0.0  T
   2   -103.9598982 -0.148854E-03  0.917E-02    1.40       1.0  T
   3   -103.9599018 -0.353000E-05  0.473E-02    1.41       1.0  T
   4   -103.9599540 -0.522652E-04  0.165E-02    1.41       1.0  T
   5   -103.9599628 -0.874920E-05  0.576E-03    1.41       2.1  T
   6   -103.9599628 -0.325854E-07  0.186E-03    1.41       6.6  T
   7   -103.9599629 -0.145185E-06  0.636E-04    1.41      19.4  T
   8   -103.9599630 -0.359422E-08  0.289E-04    1.41      42.6  T
     SCC iter.                  ...        0 min,  0.040 sec
     gradient                   ...        0 min,  0.076 sec
 * total energy  :  -102.6693807 Eh     change       -0.4538457E-02 Eh
   gradient norm :     0.0168396 Eh/α   predicted    -0.4222733E-02 (  -6.96%)
   displ. norm   :     0.2262364 α      lambda       -0.1312661E-02
   maximum displ.:     0.0760460 α      in ANC's #18, #12, #8, ...

........................................................................
.............................. CYCLE    4 ..............................
........................................................................

 iter      E             dE          RMSdq      gap      omega  full diag
   1   -103.9627273 -0.103963E+03  0.652E-02    1.40       0.0  T
   2   -103.9627527 -0.254497E-04  0.368E-02    1.41       1.0  T
   3   -103.9627503  0.240255E-05  0.195E-02    1.42       1.0  T
   4   -103.9627625 -0.121288E-04  0.587E-03    1.42       2.1  T
   5   -103.9627635 -0.989398E-06  0.265E-03    1.42       4.6  T
   6   -103.9627636 -0.107942E-06  0.831E-04    1.42      14.8  T
   7   -103.9627636 -0.203832E-07  0.277E-04    1.42      44.5  T
     SCC iter.                  ...        0 min,  0.050 sec
     gradient                   ...        0 min,  0.093 sec
 * total energy  :  -102.6703857 Eh     change       -0.1005015E-02 Eh
   gradient norm :     0.0151346 Eh/α   predicted    -0.6899291E-03 ( -31.35%)
   displ. norm   :     0.3453122 α      lambda       -0.1328973E-02
   maximum displ.:     0.1261748 α      in ANC's #12, #8, #6, ...

........................................................................
.............................. CYCLE    5 ..............................
........................................................................

 iter      E             dE          RMSdq      gap      omega  full diag
   1   -103.9624010 -0.103962E+03  0.876E-02    1.41       0.0  T
   2   -103.9624533 -0.523012E-04  0.480E-02    1.42       1.0  T
   3   -103.9624526  0.635768E-06  0.265E-02    1.42       1.0  T
   4   -103.9624711 -0.184611E-04  0.730E-03    1.42       1.7  T
   5   -103.9624729 -0.182631E-05  0.357E-03    1.42       3.4  T
   6   -103.9624732 -0.259416E-06  0.105E-03    1.42      11.7  T
   7   -103.9624732 -0.406818E-07  0.355E-04    1.42      34.6  T
   8   -103.9624732 -0.987384E-09  0.168E-04    1.42      73.3  T
     SCC iter.                  ...        0 min,  0.079 sec
     gradient                   ...        0 min,  0.095 sec
 * total energy  :  -102.6713159 Eh     change       -0.9301787E-03 Eh
   gradient norm :     0.0115471 Eh/α   predicted    -0.7437252E-03 ( -20.04%)
   displ. norm   :     0.3057809 α      lambda       -0.6930860E-03
   maximum displ.:     0.1222001 α      in ANC's #12, #8, #6, ...

........................................................................
.............................. CYCLE    6 ..............................
........................................................................

 iter      E             dE          RMSdq      gap      omega  full diag
   1   -103.9622445 -0.103962E+03  0.682E-02    1.43       0.0  T
   2   -103.9622745 -0.300251E-04  0.380E-02    1.43       1.0  T
   3   -103.9622735  0.101400E-05  0.215E-02    1.43       1.0  T
   4   -103.9622849 -0.113862E-04  0.540E-03    1.43       2.3  T
   5   -103.9622860 -0.111883E-05  0.253E-03    1.43       4.9  T
   6   -103.9622862 -0.137393E-06  0.818E-04    1.43      15.1  T
   7   -103.9622862 -0.236556E-07  0.276E-04    1.43      44.7  T
     SCC iter.                  ...        0 min,  0.036 sec
     gradient                   ...        0 min,  0.088 sec
 * total energy  :  -102.6718245 Eh     change       -0.5086128E-03 Eh
   gradient norm :     0.0088642 Eh/α   predicted    -0.3789510E-03 ( -25.49%)
   displ. norm   :     0.3126522 α      lambda       -0.5140550E-03
   maximum displ.:     0.1371364 α      in ANC's #8, #12, #6, ...

........................................................................
.............................. CYCLE    7 ..............................
........................................................................

 iter      E             dE          RMSdq      gap      omega  full diag
   1   -103.9628969 -0.103963E+03  0.664E-02    1.44       0.0  T
   2   -103.9629159 -0.189867E-04  0.377E-02    1.44       1.0  T
   3   -103.9629103  0.553074E-05  0.200E-02    1.45       1.0  T
   4   -103.9629228 -0.124056E-04  0.451E-03    1.44       2.7  T
   5   -103.9629235 -0.737009E-06  0.210E-03    1.45       5.9  T
   6   -103.9629236 -0.111707E-06  0.719E-04    1.45      17.1  T
   7   -103.9629236 -0.153269E-07  0.261E-04    1.45      47.1  T
     SCC iter.                  ...        0 min,  0.063 sec
     gradient                   ...        0 min,  0.086 sec
 * total energy  :  -102.6721946 Eh     change       -0.3700936E-03 Eh
   gradient norm :     0.0074259 Eh/α   predicted    -0.2821547E-03 ( -23.76%)
   displ. norm   :     0.2727870 α      lambda       -0.3216000E-03
   maximum displ.:     0.1262396 α      in ANC's #8, #6, #12, ...

........................................................................
.............................. CYCLE    8 ..............................
........................................................................

 iter      E             dE          RMSdq      gap      omega  full diag
   1   -103.9639931 -0.103964E+03  0.568E-02    1.45       0.0  T
   2   -103.9640004 -0.729720E-05  0.323E-02    1.45       1.0  T
   3   -103.9639949  0.550308E-05  0.141E-02    1.46       1.0  T
   4   -103.9640031 -0.820223E-05  0.311E-03    1.45       4.0  T
   5   -103.9640034 -0.252177E-06  0.151E-03    1.45       8.1  T
   6   -103.9640034 -0.696631E-07  0.509E-04    1.45      24.2  T
   7   -103.9640034 -0.741876E-08  0.197E-04    1.45      62.6  T
     SCC iter.                  ...        0 min,  0.035 sec
     gradient                   ...        0 min,  0.085 sec
 * total energy  :  -102.6724239 Eh     change       -0.2293255E-03 Eh
   gradient norm :     0.0068235 Eh/α   predicted    -0.1727660E-03 ( -24.66%)
   displ. norm   :     0.2335154 α      lambda       -0.2037103E-03
   maximum displ.:     0.1088709 α      in ANC's #8, #12, #6, ...

........................................................................
.............................. CYCLE    9 ..............................
........................................................................

 iter      E             dE          RMSdq      gap      omega  full diag
   1   -103.9650476 -0.103965E+03  0.466E-02    1.46       0.0  T
   2   -103.9650502 -0.256609E-05  0.264E-02    1.46       1.0  T
   3   -103.9650481  0.208930E-05  0.798E-03    1.46       1.5  T
   4   -103.9650511 -0.297530E-05  0.230E-03    1.46       5.4  T
   5   -103.9650511 -0.641635E-07  0.996E-04    1.46      12.4  T
   6   -103.9650512 -0.401737E-07  0.332E-04    1.46      37.1  T
     SCC iter.                  ...        0 min,  0.057 sec
     gradient                   ...        0 min,  0.088 sec
 * total energy  :  -102.6725727 Eh     change       -0.1487656E-03 Eh
   gradient norm :     0.0058384 Eh/α   predicted    -0.1074097E-03 ( -27.80%)
   displ. norm   :     0.2347062 α      lambda       -0.1639059E-03
   maximum displ.:     0.1042398 α      in ANC's #8, #7, #12, ...

........................................................................
.............................. CYCLE   10 ..............................
........................................................................

 iter      E             dE          RMSdq      gap      omega  full diag
   1   -103.9657736 -0.103966E+03  0.432E-02    1.46       0.0  T
   2   -103.9657753 -0.167935E-05  0.244E-02    1.46       1.0  T
   3   -103.9657750  0.317525E-06  0.496E-03    1.46       2.5  T
   4   -103.9657757 -0.699978E-06  0.223E-03    1.46       5.5  T
   5   -103.9657758 -0.100621E-06  0.672E-04    1.46      18.3  T
   6   -103.9657758 -0.157360E-07  0.249E-04    1.46      49.4  T
     SCC iter.                  ...        0 min,  0.032 sec
     gradient                   ...        0 min,  0.087 sec
 * total energy  :  -102.6726941 Eh     change       -0.1213693E-03 Eh
   gradient norm :     0.0047619 Eh/α   predicted    -0.8647131E-04 ( -28.75%)
   displ. norm   :     0.2456825 α      lambda       -0.1424662E-03
   maximum displ.:     0.1105027 α      in ANC's #7, #8, #12, ...

........................................................................
.............................. CYCLE   11 ..............................
........................................................................

 iter      E             dE          RMSdq      gap      omega  full diag
   1   -103.9660992 -0.103966E+03  0.414E-02    1.45       0.0  T
   2   -103.9661010 -0.175493E-05  0.233E-02    1.45       1.0  T
   3   -103.9661011 -0.139203E-06  0.432E-03    1.45       2.8  T
   4   -103.9661013 -0.150732E-06  0.199E-03    1.45       6.2  T
   5   -103.9661014 -0.667888E-07  0.728E-04    1.45      16.9  T
   6   -103.9661014 -0.160453E-07  0.233E-04    1.45      52.9  T
     SCC iter.                  ...        0 min,  0.058 sec
     gradient                   ...        0 min,  0.094 sec
 * total energy  :  -102.6727992 Eh     change       -0.1050949E-03 Eh
   gradient norm :     0.0043115 Eh/α   predicted    -0.7553726E-04 ( -28.12%)
   displ. norm   :     0.2310064 α      lambda       -0.1128162E-03
   maximum displ.:     0.1085306 α      in ANC's #7, #8, #2, ...

........................................................................
.............................. CYCLE   12 ..............................
........................................................................

 iter      E             dE          RMSdq      gap      omega  full diag
   1   -103.9661995 -0.103966E+03  0.360E-02    1.45       0.0  T
   2   -103.9662011 -0.158042E-05  0.204E-02    1.45       1.0  T
   3   -103.9662011  0.157688E-07  0.424E-03    1.45       2.9  T
   4   -103.9662013 -0.196400E-06  0.187E-03    1.45       6.6  T
   5   -103.9662014 -0.869818E-07  0.763E-04    1.45      16.1  T
   6   -103.9662014 -0.174866E-07  0.195E-04    1.45      63.1  T
     SCC iter.                  ...        0 min,  0.064 sec
     gradient                   ...        0 min,  0.061 sec
 * total energy  :  -102.6728821 Eh     change       -0.8296325E-04 Eh
   gradient norm :     0.0042722 Eh/α   predicted    -0.5941972E-04 ( -28.38%)
   displ. norm   :     0.2041824 α      lambda       -0.8340705E-04
   maximum displ.:     0.0969627 α      in ANC's #7, #2, #8, ...

........................................................................
.............................. CYCLE   13 ..............................
........................................................................

 iter      E             dE          RMSdq      gap      omega  full diag
   1   -103.9662634 -0.103966E+03  0.302E-02    1.44       0.0  T
   2   -103.9662644 -0.105497E-05  0.173E-02    1.44       1.0  T
   3   -103.9662641  0.324846E-06  0.384E-03    1.44       3.2  T
   4   -103.9662646 -0.460437E-06  0.145E-03    1.44       8.5  T
   5   -103.9662646 -0.827242E-07  0.609E-04    1.44      20.2  T
   6   -103.9662646 -0.781333E-08  0.150E-04    1.44      82.1  T
     SCC iter.                  ...        0 min,  0.030 sec
     gradient                   ...        0 min,  0.095 sec
 * total energy  :  -102.6729433 Eh     change       -0.6115152E-04 Eh
   gradient norm :     0.0040401 Eh/α   predicted    -0.4344555E-04 ( -28.95%)
   displ. norm   :     0.1815552 α      lambda       -0.6145784E-04
   maximum displ.:     0.0853481 α      in ANC's #7, #2, #1, ...

........................................................................
.............................. CYCLE   14 ..............................
........................................................................

 iter      E             dE          RMSdq      gap      omega  full diag
   1   -103.9663779 -0.103966E+03  0.261E-02    1.44       0.0  T
   2   -103.9663784 -0.569153E-06  0.151E-02    1.44       1.0  T
   3   -103.9663779  0.508480E-06  0.353E-03    1.44       3.5  T
   4   -103.9663786 -0.663624E-06  0.104E-03    1.44      11.8  T
   5   -103.9663786 -0.208651E-07  0.496E-04    1.44      24.8  T
   6   -103.9663786 -0.534790E-08  0.132E-04    1.44      93.1  T
     SCC iter.                  ...        0 min,  0.062 sec
     gradient                   ...        0 min,  0.061 sec
 * total energy  :  -102.6729891 Eh     change       -0.4585186E-04 Eh
   gradient norm :     0.0036247 Eh/α   predicted    -0.3174554E-04 ( -30.77%)
   displ. norm   :     0.1763600 α      lambda       -0.5221678E-04
   maximum displ.:     0.0805525 α      in ANC's #7, #2, #1, ...

........................................................................
.............................. CYCLE   15 ..............................
........................................................................

 iter      E             dE          RMSdq      gap      omega  full diag
   1   -103.9665855 -0.103967E+03  0.251E-02    1.45       0.0  T
   2   -103.9665859 -0.418776E-06  0.145E-02    1.45       1.0  T
   3   -103.9665855  0.356272E-06  0.319E-03    1.45       3.9  T
   4   -103.9665860 -0.469580E-06  0.115E-03    1.45      10.7  T
   5   -103.9665860 -0.297111E-07  0.436E-04    1.45      28.3  T
   6   -103.9665860 -0.493915E-08  0.141E-04    1.45      87.0  T
     SCC iter.                  ...        0 min,  0.030 sec
     gradient                   ...        0 min,  0.087 sec
 * total energy  :  -102.6730288 Eh     change       -0.3961927E-04 Eh
   gradient norm :     0.0032101 Eh/α   predicted    -0.2692252E-04 ( -32.05%)
   displ. norm   :     0.1881295 α      lambda       -0.4889345E-04
   maximum displ.:     0.0821940 α      in ANC's #2, #7, #1, ...

........................................................................
.............................. CYCLE   16 ..............................
........................................................................

 iter      E             dE          RMSdq      gap      omega  full diag
   1   -103.9667132 -0.103967E+03  0.268E-02    1.45       0.0  T
   2   -103.9667137 -0.543006E-06  0.153E-02    1.45       1.0  T
   3   -103.9667136  0.135572E-06  0.301E-03    1.45       4.1  T
   4   -103.9667138 -0.177898E-06  0.148E-03    1.45       8.3  T
   5   -103.9667139 -0.910725E-07  0.498E-04    1.45      24.7  T
   6   -103.9667139 -0.427089E-08  0.151E-04    1.45      81.7  T
     SCC iter.                  ...        0 min,  0.057 sec
     gradient                   ...        0 min,  0.099 sec
 * total energy  :  -102.6730659 Eh     change       -0.3717006E-04 Eh
   gradient norm :     0.0029232 Eh/α   predicted    -0.2531387E-04 ( -31.90%)
   displ. norm   :     0.1927646 α      lambda       -0.4483799E-04
   maximum displ.:     0.0874302 α      in ANC's #2, #1, #7, ...

........................................................................
.............................. CYCLE   17 ..............................
........................................................................

 iter      E             dE          RMSdq      gap      omega  full diag
   1   -103.9668402 -0.103967E+03  0.269E-02    1.45       0.0  T
   2   -103.9668408 -0.637282E-06  0.152E-02    1.45       1.0  T
   3   -103.9668408  0.141257E-07  0.275E-03    1.45       4.5  T
   4   -103.9668409 -0.725883E-07  0.133E-03    1.45       9.3  T
   5   -103.9668409 -0.598541E-07  0.513E-04    1.45      24.0  T
   6   -103.9668409 -0.603134E-08  0.137E-04    1.45      90.1  T
     SCC iter.                  ...        0 min,  0.030 sec
     gradient                   ...        0 min,  0.091 sec
 * total energy  :  -102.6731004 Eh     change       -0.3447807E-04 Eh
   gradient norm :     0.0029567 Eh/α   predicted    -0.2325462E-04 ( -32.55%)
   displ. norm   :     0.2025415 α      lambda       -0.4396856E-04
   maximum displ.:     0.0932439 α      in ANC's #2, #1, #3, ...

........................................................................
.............................. CYCLE   18 ..............................
........................................................................

 iter      E             dE          RMSdq      gap      omega  full diag
   1   -103.9667288 -0.103967E+03  0.274E-02    1.46       0.0  T
   2   -103.9667294 -0.617584E-06  0.155E-02    1.46       1.0  T
   3   -103.9667294  0.126937E-07  0.248E-03    1.46       5.0  T
   4   -103.9667295 -0.969074E-07  0.110E-03    1.46      11.2  T
   5   -103.9667296 -0.371255E-07  0.457E-04    1.46      26.9  T
   6   -103.9667296 -0.645770E-08  0.125E-04    1.46      98.8  T
     SCC iter.                  ...        0 min,  0.067 sec
     gradient                   ...        0 min,  0.101 sec
 * total energy  :  -102.6731351 Eh     change       -0.3472059E-04 Eh
   gradient norm :     0.0031845 Eh/α   predicted    -0.2288838E-04 ( -34.08%)
   displ. norm   :     0.2391118 α      lambda       -0.5153558E-04
   maximum displ.:     0.1105690 α      in ANC's #2, #1, #3, ...

........................................................................
.............................. CYCLE   19 ..............................
........................................................................

 iter      E             dE          RMSdq      gap      omega  full diag
   1   -103.9667263 -0.103967E+03  0.308E-02    1.46       0.0  T
   2   -103.9667269 -0.617792E-06  0.176E-02    1.46       1.0  T
   3   -103.9667268  0.568331E-07  0.247E-03    1.46       5.0  T
   4   -103.9667270 -0.184279E-06  0.107E-03    1.46      11.5  T
   5   -103.9667270 -0.300998E-07  0.440E-04    1.46      28.0  T
   6   -103.9667270 -0.501974E-08  0.126E-04    1.46      97.4  T
     SCC iter.                  ...        0 min,  0.056 sec
     gradient                   ...        0 min,  0.061 sec
 * total energy  :  -102.6731765 Eh     change       -0.4138175E-04 Eh
   gradient norm :     0.0038685 Eh/α   predicted    -0.2724288E-04 ( -34.17%)
   displ. norm   :     0.3079487 α      lambda       -0.6580966E-04
   maximum displ.:     0.1417256 α      in ANC's #2, #1, #3, ...

........................................................................
.............................. CYCLE   20 ..............................
........................................................................

 iter      E             dE          RMSdq      gap      omega  full diag
   1   -103.9660814 -0.103966E+03  0.382E-02    1.45       0.0  T
   2   -103.9660821 -0.767269E-06  0.220E-02    1.46       1.0  T
   3   -103.9660821  0.489733E-07  0.263E-03    1.46       4.7  T
   4   -103.9660823 -0.249801E-06  0.123E-03    1.46      10.0  T
   5   -103.9660824 -0.325825E-07  0.504E-04    1.46      24.4  T
   6   -103.9660824 -0.589102E-08  0.146E-04    1.46      84.5  T
     SCC iter.                  ...        0 min,  0.030 sec
     gradient                   ...        0 min,  0.094 sec
 * total energy  :  -102.6732294 Eh     change       -0.5290341E-04 Eh
   gradient norm :     0.0041798 Eh/α   predicted    -0.3602662E-04 ( -31.90%)
   displ. norm   :     0.3718951 α      lambda       -0.8228450E-04
   maximum displ.:     0.1704787 α      in ANC's #2, #1, #3, ...
 * RMSD in coord.:     0.4447427 α      energy gain  -0.2260199E-01 Eh

generating ANC from exact Hessian ...
Using Lindh-Hessian (1995)
 Shifting diagonal of input Hessian by    9.8953435838421110E-003
 Lowest  eigenvalues of input Hessian
    0.000000    0.000000    0.000000    0.000000    0.000000    0.000000
    0.010000    0.010029    0.010153    0.010504    0.010766    0.011072
    0.011243    0.011438    0.011790    0.012278    0.012606    0.012894
 Highest eigenvalues
    2.093928    2.203730    2.364035    2.435914    2.751006    3.510964


........................................................................
.............................. CYCLE   21 ..............................
........................................................................

 iter      E             dE          RMSdq      gap      omega  full diag
   1   -103.9660368 -0.103966E+03  0.443E-02    1.45       0.0  T
   2   -103.9660379 -0.113034E-05  0.257E-02    1.45       1.0  T
   3   -103.9660378  0.103006E-06  0.331E-03    1.45       3.7  T
   4   -103.9660382 -0.382382E-06  0.152E-03    1.45       8.1  T
   5   -103.9660382 -0.556857E-07  0.645E-04    1.45      19.1  T
   6   -103.9660382 -0.707293E-08  0.196E-04    1.45      62.7  T
     SCC iter.                  ...        0 min,  0.030 sec
     gradient                   ...        0 min,  0.087 sec
 * total energy  :  -102.6732937 Eh     change       -0.6429818E-04 Eh
   gradient norm :     0.0045325 Eh/α   predicted     0.0000000E+00 (-100.00%)
   displ. norm   :     0.0313533 α      lambda       -0.2120750E-04
   maximum displ.:     0.0108390 α      in ANC's #3, #2, #8, ...

........................................................................
.............................. CYCLE   22 ..............................
........................................................................

 iter      E             dE          RMSdq      gap      omega  full diag
   1   -103.9668822 -0.103967E+03  0.854E-03    1.45       0.0  T
   2   -103.9668825 -0.249477E-06  0.494E-03    1.45       2.5  T
   3   -103.9668824  0.933627E-07  0.222E-03    1.45       5.6  T
   4   -103.9668826 -0.153811E-06  0.565E-04    1.45      21.8  T
   5   -103.9668826 -0.139352E-07  0.199E-04    1.45      62.0  T
     SCC iter.                  ...        0 min,  0.052 sec
     gradient                   ...        0 min,  0.087 sec
 * total energy  :  -102.6733237 Eh     change       -0.2999955E-04 Eh
   gradient norm :     0.0024957 Eh/α   predicted    -0.1853990E-04 ( -38.20%)
   displ. norm   :     0.0849654 α      lambda       -0.5219100E-04
   maximum displ.:     0.0324050 α      in ANC's #3, #2, #8, ...

........................................................................
.............................. CYCLE   23 ..............................
........................................................................

 iter      E             dE          RMSdq      gap      omega  full diag
   1   -103.9677792 -0.103968E+03  0.193E-02    1.45       0.0  T
   2   -103.9677801 -0.883244E-06  0.112E-02    1.45       1.1  T
   3   -103.9677797  0.404449E-06  0.417E-03    1.45       2.9  T
   4   -103.9677803 -0.583829E-06  0.115E-03    1.45      10.7  T
   5   -103.9677803 -0.550388E-07  0.427E-04    1.45      28.8  T
   6   -103.9677803 -0.219141E-08  0.186E-04    1.45      66.2  T
     SCC iter.                  ...        0 min,  0.030 sec
     gradient                   ...        0 min,  0.093 sec
 * total energy  :  -102.6733573 Eh     change       -0.3362972E-04 Eh
   gradient norm :     0.0017364 Eh/α   predicted    -0.2747600E-04 ( -18.30%)
   displ. norm   :     0.0865082 α      lambda       -0.1516980E-04
   maximum displ.:     0.0363813 α      in ANC's #3, #2, #1, ...

........................................................................
.............................. CYCLE   24 ..............................
........................................................................

 iter      E             dE          RMSdq      gap      omega  full diag
   1   -103.9677627 -0.103968E+03  0.163E-02    1.45       0.0  T
   2   -103.9677629 -0.238884E-06  0.943E-03    1.45       1.3  T
   3   -103.9677628  0.789476E-07  0.184E-03    1.45       6.7  T
   4   -103.9677630 -0.122300E-06  0.729E-04    1.45      16.9  T
   5   -103.9677630 -0.195927E-07  0.296E-04    1.45      41.7  T
     SCC iter.                  ...        0 min,  0.047 sec
     gradient                   ...        0 min,  0.060 sec
 * total energy  :  -102.6733745 Eh     change       -0.1711624E-04 Eh
   gradient norm :     0.0024609 Eh/α   predicted    -0.7795744E-05 ( -54.45%)
   displ. norm   :     0.0886857 α      lambda       -0.2230239E-04
   maximum displ.:     0.0382815 α      in ANC's #3, #2, #1, ...

........................................................................
.............................. CYCLE   25 ..............................
........................................................................

 iter      E             dE          RMSdq      gap      omega  full diag
   1   -103.9674937 -0.103967E+03  0.147E-02    1.45       0.0  T
   2   -103.9674939 -0.150296E-06  0.857E-03    1.45       1.4  T
   3   -103.9674939  0.119182E-07  0.114E-03    1.45      10.8  T
   4   -103.9674939 -0.477697E-07  0.522E-04    1.45      23.6  T
   5   -103.9674939 -0.669473E-08  0.222E-04    1.45      55.5  T
     SCC iter.                  ...        0 min,  0.025 sec
     gradient                   ...        0 min,  0.096 sec
 * total energy  :  -102.6733936 Eh     change       -0.1915509E-04 Eh
   gradient norm :     0.0019993 Eh/α   predicted    -0.1123979E-04 ( -41.32%)
   displ. norm   :     0.3076036 α      lambda       -0.4293456E-04
   maximum displ.:     0.1336404 α      in ANC's #3, #2, #1, ...

........................................................................
.............................. CYCLE   26 ..............................
........................................................................

 iter      E             dE          RMSdq      gap      omega  full diag
   1   -103.9664554 -0.103966E+03  0.485E-02    1.45       0.0  T
   2   -103.9664570 -0.155757E-05  0.283E-02    1.45       1.0  T
   3   -103.9664569  0.178487E-07  0.347E-03    1.45       3.5  T
   4   -103.9664574 -0.431115E-06  0.155E-03    1.45       7.9  T
   5   -103.9664574 -0.358115E-07  0.704E-04    1.45      17.5  T
   6   -103.9664574 -0.159475E-07  0.224E-04    1.45      54.9  T
     SCC iter.                  ...        0 min,  0.057 sec
     gradient                   ...        0 min,  0.094 sec
 * total energy  :  -102.6734313 Eh     change       -0.3772697E-04 Eh
   gradient norm :     0.0025696 Eh/α   predicted    -0.2237645E-04 ( -40.69%)
   displ. norm   :     0.0866265 α      lambda       -0.1739213E-04
   maximum displ.:     0.0398080 α      in ANC's #3, #2, #1, ...

........................................................................
.............................. CYCLE   27 ..............................
........................................................................

 iter      E             dE          RMSdq      gap      omega  full diag
   1   -103.9668227 -0.103967E+03  0.118E-02    1.45       0.0  T
   2   -103.9668228 -0.874738E-07  0.675E-03    1.45       1.8  T
   3   -103.9668228  0.382361E-07  0.121E-03    1.45      10.2  T
   4   -103.9668229 -0.654312E-07  0.422E-04    1.45      29.2  T
   5   -103.9668229 -0.359955E-08  0.174E-04    1.45      70.9  T
     SCC iter.                  ...        0 min,  0.025 sec
     gradient                   ...        0 min,  0.094 sec
 * total energy  :  -102.6734474 Eh     change       -0.1601441E-04 Eh
   gradient norm :     0.0022362 Eh/α   predicted    -0.8782130E-05 ( -45.16%)
   displ. norm   :     0.2203085 α      lambda       -0.5389445E-04
   maximum displ.:     0.1027016 α      in ANC's #3, #2, #1, ...

........................................................................
.............................. CYCLE   28 ..............................
........................................................................

 iter      E             dE          RMSdq      gap      omega  full diag
   1   -103.9677914 -0.103968E+03  0.288E-02    1.44       0.0  T
   2   -103.9677921 -0.699235E-06  0.163E-02    1.44       1.0  T
   3   -103.9677916  0.444547E-06  0.387E-03    1.45       3.2  T
   4   -103.9677923 -0.638556E-06  0.127E-03    1.44       9.7  T
   5   -103.9677923 -0.390583E-07  0.499E-04    1.44      24.7  T
   6   -103.9677923 -0.693332E-08  0.179E-04    1.44      68.6  T
     SCC iter.                  ...        0 min,  0.069 sec
     gradient                   ...        0 min,  0.084 sec
 * total energy  :  -102.6734896 Eh     change       -0.4228098E-04 Eh
   gradient norm :     0.0017166 Eh/α   predicted    -0.2826629E-04 ( -33.15%)
   displ. norm   :     0.4402692 α      lambda       -0.4791665E-04
   maximum displ.:     0.2071184 α      in ANC's #3, #2, #1, ...

........................................................................
.............................. CYCLE   29 ..............................
........................................................................

 iter      E             dE          RMSdq      gap      omega  full diag
   1   -103.9676733 -0.103968E+03  0.544E-02    1.44       0.0  T
   2   -103.9676753 -0.198833E-05  0.308E-02    1.44       1.0  T
   3   -103.9676742  0.106576E-05  0.611E-03    1.44       2.0  T
   4   -103.9676758 -0.160499E-05  0.225E-03    1.44       5.5  T
   5   -103.9676760 -0.130047E-06  0.833E-04    1.44      14.8  T
   6   -103.9676760 -0.189384E-07  0.291E-04    1.44      42.3  T
     SCC iter.                  ...        0 min,  0.030 sec
     gradient                   ...        0 min,  0.083 sec
 * total energy  :  -102.6735389 Eh     change       -0.4924254E-04 Eh
   gradient norm :     0.0032106 Eh/α   predicted    -0.2602410E-04 ( -47.15%)
   displ. norm   :     0.2087180 α      lambda       -0.3248993E-04
   maximum displ.:     0.1006039 α      in ANC's #1, #3, #2, ...

........................................................................
.............................. CYCLE   30 ..............................
........................................................................

 iter      E             dE          RMSdq      gap      omega  full diag
   1   -103.9675811 -0.103968E+03  0.238E-02    1.44       0.0  T
   2   -103.9675814 -0.311104E-06  0.137E-02    1.44       1.0  T
   3   -103.9675812  0.184670E-06  0.235E-03    1.44       5.2  T
   4   -103.9675815 -0.278708E-06  0.895E-04    1.44      13.8  T
   5   -103.9675815 -0.184515E-07  0.336E-04    1.44      36.6  T
     SCC iter.                  ...        0 min,  0.048 sec
     gradient                   ...        0 min,  0.062 sec
 * total energy  :  -102.6735691 Eh     change       -0.3021528E-04 Eh
   gradient norm :     0.0029777 Eh/α   predicted    -0.1695285E-04 ( -43.89%)
   displ. norm   :     0.3367898 α      lambda       -0.6962156E-04
   maximum displ.:     0.1680609 α      in ANC's #1, #2, #3, ...

........................................................................
.............................. CYCLE   31 ..............................
........................................................................

 iter      E             dE          RMSdq      gap      omega  full diag
   1   -103.9677316 -0.103968E+03  0.360E-02    1.43       0.0  T
   2   -103.9677324 -0.820502E-06  0.208E-02    1.44       1.0  T
   3   -103.9677317  0.724913E-06  0.411E-03    1.44       3.0  T
   4   -103.9677327 -0.978668E-06  0.138E-03    1.44       8.9  T
   5   -103.9677327 -0.438574E-07  0.587E-04    1.44      21.0  T
   6   -103.9677327 -0.495089E-08  0.196E-04    1.44      62.8  T
     SCC iter.                  ...        0 min,  0.030 sec
     gradient                   ...        0 min,  0.090 sec
 * total energy  :  -102.6736299 Eh     change       -0.6083853E-04 Eh
   gradient norm :     0.0018000 Eh/α   predicted    -0.3876129E-04 ( -36.29%)
   displ. norm   :     0.6959037 α      lambda       -0.8216267E-04
   maximum displ.:     0.3554641 α      in ANC's #1, #2, #3, ...

........................................................................
.............................. CYCLE   32 ..............................
........................................................................

 iter      E             dE          RMSdq      gap      omega  full diag
   1   -103.9661718 -0.103966E+03  0.707E-02    1.42       0.0  T
   2   -103.9661751 -0.332179E-05  0.411E-02    1.43       1.0  T
   3   -103.9661719  0.317738E-05  0.831E-03    1.43       1.5  T
   4   -103.9661762 -0.424335E-05  0.264E-03    1.43       4.7  T
   5   -103.9661763 -0.145185E-06  0.118E-03    1.43      10.5  T
   6   -103.9661763 -0.173878E-07  0.390E-04    1.43      31.6  T
   7   -103.9661763 -0.453538E-08  0.183E-04    1.43      67.4  T
     SCC iter.                  ...        0 min,  0.068 sec
     gradient                   ...        0 min,  0.093 sec
 * total energy  :  -102.6737151 Eh     change       -0.8521387E-04 Eh
   gradient norm :     0.0035552 Eh/α   predicted    -0.4992526E-04 ( -41.41%)
   displ. norm   :     0.2569658 α      lambda       -0.4048295E-04
   maximum displ.:     0.1392116 α      in ANC's #1, #2, #3, ...

........................................................................
.............................. CYCLE   33 ..............................
........................................................................

 iter      E             dE          RMSdq      gap      omega  full diag
   1   -103.9668649 -0.103967E+03  0.235E-02    1.43       0.0  T
   2   -103.9668652 -0.392638E-06  0.135E-02    1.43       1.0  T
   3   -103.9668649  0.323238E-06  0.271E-03    1.43       4.5  T
   4   -103.9668654 -0.449002E-06  0.923E-04    1.43      13.3  T
   5   -103.9668654 -0.145689E-07  0.367E-04    1.43      33.5  T
     SCC iter.                  ...        0 min,  0.025 sec
     gradient                   ...        0 min,  0.092 sec
 * total energy  :  -102.6737516 Eh     change       -0.3643229E-04 Eh
   gradient norm :     0.0036337 Eh/α   predicted    -0.2158148E-04 ( -40.76%)
   displ. norm   :     0.3521167 α      lambda       -0.6982935E-04
   maximum displ.:     0.1943421 α      in ANC's #1, #2, #3, ...

........................................................................
.............................. CYCLE   34 ..............................
........................................................................

 iter      E             dE          RMSdq      gap      omega  full diag
   1   -103.9681763 -0.103968E+03  0.303E-02    1.42       0.0  T
   2   -103.9681770 -0.660214E-06  0.173E-02    1.42       1.0  T
   3   -103.9681767  0.304840E-06  0.315E-03    1.42       3.9  T
   4   -103.9681772 -0.480898E-06  0.127E-03    1.43       9.7  T
   5   -103.9681772 -0.374824E-07  0.437E-04    1.42      28.2  T
   6   -103.9681772 -0.535175E-08  0.152E-04    1.42      80.9  T
     SCC iter.                  ...        0 min,  0.069 sec
     gradient                   ...        0 min,  0.092 sec
 * total energy  :  -102.6738153 Eh     change       -0.6367253E-04 Eh
   gradient norm :     0.0030434 Eh/α   predicted    -0.3924519E-04 ( -38.36%)
   displ. norm   :     0.5606887 α      lambda       -0.1109110E-03
   maximum displ.:     0.3095327 α      in ANC's #1, #2, #3, ...

........................................................................
.............................. CYCLE   35 ..............................
........................................................................

 iter      E             dE          RMSdq      gap      omega  full diag
   1   -103.9682438 -0.103968E+03  0.478E-02    1.42       0.0  T
   2   -103.9682455 -0.166242E-05  0.271E-02    1.42       1.0  T
   3   -103.9682450  0.549269E-06  0.498E-03    1.42       2.5  T
   4   -103.9682459 -0.947750E-06  0.213E-03    1.42       5.8  T
   5   -103.9682460 -0.119241E-06  0.727E-04    1.42      16.9  T
   6   -103.9682460 -0.164597E-07  0.247E-04    1.42      49.9  T
     SCC iter.                  ...        0 min,  0.030 sec
     gradient                   ...        0 min,  0.088 sec
 * total energy  :  -102.6739168 Eh     change       -0.1015978E-03 Eh
   gradient norm :     0.0022152 Eh/α   predicted    -0.7289062E-04 ( -28.26%)
   displ. norm   :     0.6632543 α      lambda       -0.1268018E-03
   maximum displ.:     0.3711613 α      in ANC's #1, #2, #3, ...

........................................................................
.............................. CYCLE   36 ..............................
........................................................................

 iter      E             dE          RMSdq      gap      omega  full diag
   1   -103.9674818 -0.103967E+03  0.556E-02    1.41       0.0  T
   2   -103.9674843 -0.245774E-05  0.313E-02    1.41       1.0  T
   3   -103.9674836  0.703654E-06  0.619E-03    1.41       2.0  T
   4   -103.9674848 -0.126963E-05  0.263E-03    1.41       4.7  T
   5   -103.9674850 -0.170134E-06  0.881E-04    1.41      14.0  T
   6   -103.9674850 -0.228555E-07  0.302E-04    1.41      40.7  T
     SCC iter.                  ...        0 min,  0.057 sec
     gradient                   ...        0 min,  0.091 sec
 * total energy  :  -102.6740290 Eh     change       -0.1121922E-03 Eh
   gradient norm :     0.0021772 Eh/α   predicted    -0.9129416E-04 ( -18.63%)
   displ. norm   :     0.6462587 α      lambda       -0.1156349E-03
   maximum displ.:     0.3692022 α      in ANC's #1, #2, #3, ...

........................................................................
.............................. CYCLE   37 ..............................
........................................................................

 iter      E             dE          RMSdq      gap      omega  full diag
   1   -103.9671516 -0.103967E+03  0.531E-02    1.40       0.0  T
   2   -103.9671540 -0.235804E-05  0.297E-02    1.40       1.0  T
   3   -103.9671534  0.640005E-06  0.622E-03    1.40       2.0  T
   4   -103.9671546 -0.119481E-05  0.263E-03    1.40       4.7  T
   5   -103.9671547 -0.149918E-06  0.835E-04    1.40      14.7  T
   6   -103.9671547 -0.210147E-07  0.286E-04    1.40      43.0  T
     SCC iter.                  ...        0 min,  0.030 sec
     gradient                   ...        0 min,  0.083 sec
 * total energy  :  -102.6741289 Eh     change       -0.9987354E-04 Eh
   gradient norm :     0.0031254 Eh/α   predicted    -0.8197065E-04 ( -17.93%)
   displ. norm   :     0.6043476 α      lambda       -0.1026341E-03
   maximum displ.:     0.3514084 α      in ANC's #1, #2, #3, ...

........................................................................
.............................. CYCLE   38 ..............................
........................................................................

 iter      E             dE          RMSdq      gap      omega  full diag
   1   -103.9672744 -0.103967E+03  0.488E-02    1.39       0.0  T
   2   -103.9672764 -0.199723E-05  0.273E-02    1.39       1.0  T
   3   -103.9672757  0.690121E-06  0.595E-03    1.39       2.1  T
   4   -103.9672769 -0.121808E-05  0.244E-03    1.39       5.0  T
   5   -103.9672770 -0.999021E-07  0.757E-04    1.39      16.3  T
   6   -103.9672771 -0.211869E-07  0.259E-04    1.39      47.6  T
     SCC iter.                  ...        0 min,  0.042 sec
     gradient                   ...        0 min,  0.062 sec
 * total energy  :  -102.6742195 Eh     change       -0.9058235E-04 Eh
   gradient norm :     0.0037608 Eh/α   predicted    -0.7006084E-04 ( -22.66%)
   displ. norm   :     0.6060508 α      lambda       -0.1086799E-03
   maximum displ.:     0.3577147 α      in ANC's #1, #2, #3, ...

........................................................................
.............................. CYCLE   39 ..............................
........................................................................

 iter      E             dE          RMSdq      gap      omega  full diag
   1   -103.9676034 -0.103968E+03  0.481E-02    1.38       0.0  T
   2   -103.9676054 -0.198584E-05  0.270E-02    1.38       1.0  T
   3   -103.9676045  0.893786E-06  0.610E-03    1.38       2.0  T
   4   -103.9676060 -0.146515E-05  0.240E-03    1.38       5.1  T
   5   -103.9676061 -0.724358E-07  0.810E-04    1.38      15.2  T
   6   -103.9676061 -0.272537E-07  0.256E-04    1.38      48.1  T
     SCC iter.                  ...        0 min,  0.030 sec
     gradient                   ...        0 min,  0.084 sec
 * total energy  :  -102.6743182 Eh     change       -0.9875158E-04 Eh
   gradient norm :     0.0037465 Eh/α   predicted    -0.7430083E-04 ( -24.76%)
   displ. norm   :     0.6433397 α      lambda       -0.1321011E-03
   maximum displ.:     0.3869612 α      in ANC's #1, #2, #3, ...

........................................................................
.............................. CYCLE   40 ..............................
........................................................................

 iter      E             dE          RMSdq      gap      omega  full diag
   1   -103.9683748 -0.103968E+03  0.506E-02    1.37       0.0  T
   2   -103.9683772 -0.241469E-05  0.286E-02    1.37       1.0  T
   3   -103.9683760  0.127532E-05  0.676E-03    1.37       1.8  T
   4   -103.9683779 -0.194958E-05  0.257E-03    1.37       4.8  T
   5   -103.9683780 -0.950169E-07  0.102E-03    1.37      12.1  T
   6   -103.9683780 -0.344186E-07  0.295E-04    1.37      41.8  T
   7   -103.9683780 -0.258522E-08  0.151E-04    1.37      81.4  T
     SCC iter.                  ...        0 min,  0.035 sec
     gradient                   ...        0 min,  0.075 sec
 * total energy  :  -102.6744374 Eh     change       -0.1191665E-03 Eh
   gradient norm :     0.0030990 Eh/α   predicted    -0.9339477E-04 ( -21.63%)
   displ. norm   :     0.7000751 α      lambda       -0.1460616E-03
   maximum displ.:     0.4251261 α      in ANC's #1, #2, #3, ...

........................................................................
.............................. CYCLE   41 ..............................
........................................................................

 iter      E             dE          RMSdq      gap      omega  full diag
   1   -103.9677960 -0.103968E+03  0.546E-02    1.36       0.0  T
   2   -103.9677990 -0.291496E-05  0.310E-02    1.36       1.0  T
   3   -103.9677972  0.173230E-05  0.740E-03    1.37       1.7  T
   4   -103.9677998 -0.251895E-05  0.274E-03    1.37       4.5  T
   5   -103.9677999 -0.156741E-06  0.115E-03    1.37      10.7  T
   6   -103.9677999 -0.324728E-07  0.333E-04    1.37      37.0  T
   7   -103.9677999 -0.342202E-08  0.167E-04    1.37      73.7  T
     SCC iter.                  ...        0 min,  0.062 sec
     gradient                   ...        0 min,  0.080 sec
 * total energy  :  -102.6745654 Eh     change       -0.1279953E-03 Eh
   gradient norm :     0.0030325 Eh/α   predicted    -0.1088294E-03 ( -14.97%)
   displ. norm   :     0.6160021 α      lambda       -0.1521125E-03
   maximum displ.:     0.3939859 α      in ANC's #1, #2, #3, ...

........................................................................
.............................. CYCLE   42 ..............................
........................................................................

 iter      E             dE          RMSdq      gap      omega  full diag
   1   -103.9724926 -0.103972E+03  0.497E-02    1.35       0.0  T
   2   -103.9724962 -0.360750E-05  0.284E-02    1.36       1.0  T
   3   -103.9724947  0.148943E-05  0.745E-03    1.36       1.7  T
   4   -103.9724968 -0.207937E-05  0.287E-03    1.36       4.3  T
   5   -103.9724971 -0.314810E-06  0.127E-03    1.36       9.7  T
   6   -103.9724971 -0.296083E-07  0.344E-04    1.36      35.8  T
   7   -103.9724971 -0.413205E-08  0.166E-04    1.36      74.0  T
     SCC iter.                  ...        0 min,  0.087 sec
     gradient                   ...        0 min,  0.104 sec
 * total energy  :  -102.6746622 Eh     change       -0.9675380E-04 Eh
   gradient norm :     0.0040567 Eh/α   predicted    -0.1049179E-03 (   8.44%)
   displ. norm   :     0.7248039 α      lambda       -0.1523478E-03
   maximum displ.:     0.4406725 α      in ANC's #1, #2, #3, ...
 * RMSD in coord.:     1.0553895 α      energy gain  -0.1432749E-02 Eh

generating ANC from exact Hessian ...
Using Lindh-Hessian (1995)
 Shifting diagonal of input Hessian by    9.8752257873709528E-003
 Lowest  eigenvalues of input Hessian
    0.000000    0.000000    0.000000    0.000000    0.000000    0.000000
    0.010000    0.010013    0.010113    0.010406    0.010724    0.010911
    0.011179    0.011469    0.011794    0.012218    0.012751    0.012828
 Highest eigenvalues
    2.096425    2.203048    2.364488    2.433094    2.790271    3.524414


........................................................................
.............................. CYCLE   43 ..............................
........................................................................

 iter      E             dE          RMSdq      gap      omega  full diag
   1   -103.9666368 -0.103967E+03  0.570E-02    1.35       0.0  T
   2   -103.9666400 -0.320990E-05  0.326E-02    1.35       1.0  T
   3   -103.9666382  0.182819E-05  0.704E-03    1.35       1.7  T
   4   -103.9666408 -0.263522E-05  0.251E-03    1.35       4.9  T
   5   -103.9666410 -0.167267E-06  0.102E-03    1.35      12.1  T
   6   -103.9666410 -0.142783E-07  0.354E-04    1.35      34.8  T
   7   -103.9666410 -0.401451E-08  0.159E-04    1.35      77.4  T
     SCC iter.                  ...        0 min,  0.035 sec
     gradient                   ...        0 min,  0.107 sec
 * total energy  :  -102.6747654 Eh     change       -0.1032575E-03 Eh
   gradient norm :     0.0056313 Eh/α   predicted     0.0000000E+00 (-100.00%)
   displ. norm   :     0.0413828 α      lambda       -0.2763816E-04
   maximum displ.:     0.0167318 α      in ANC's #2, #1, #8, ...

........................................................................
.............................. CYCLE   44 ..............................
........................................................................

 iter      E             dE          RMSdq      gap      omega  full diag
   1   -103.9698567 -0.103970E+03  0.103E-02    1.35       0.0  T
   2   -103.9698570 -0.299941E-06  0.592E-03    1.35       2.1  T
   3   -103.9698570  0.151059E-07  0.165E-03    1.35       7.5  T
   4   -103.9698570 -0.380762E-07  0.610E-04    1.35      20.2  T
   5   -103.9698571 -0.115767E-07  0.265E-04    1.35      46.5  T
     SCC iter.                  ...        0 min,  0.025 sec
     gradient                   ...        0 min,  0.100 sec
 * total energy  :  -102.6748164 Eh     change       -0.5100610E-04 Eh
   gradient norm :     0.0032241 Eh/α   predicted    -0.3364808E-04 ( -34.03%)
   displ. norm   :     0.0913254 α      lambda       -0.6844639E-04
   maximum displ.:     0.0403727 α      in ANC's #2, #1, #8, ...

........................................................................
.............................. CYCLE   45 ..............................
........................................................................

 iter      E             dE          RMSdq      gap      omega  full diag
   1   -103.9726557 -0.103973E+03  0.157E-02    1.35       0.0  T
   2   -103.9726562 -0.485255E-06  0.918E-03    1.35       1.3  T
   3   -103.9726561  0.269740E-07  0.234E-03    1.35       5.3  T
   4   -103.9726562 -0.725366E-07  0.949E-04    1.35      13.0  T
   5   -103.9726562 -0.210928E-07  0.429E-04    1.35      28.7  T
     SCC iter.                  ...        0 min,  0.070 sec
     gradient                   ...        0 min,  0.102 sec
 * total energy  :  -102.6748639 Eh     change       -0.4744418E-04 Eh
   gradient norm :     0.0020417 Eh/α   predicted    -0.3450887E-04 ( -27.26%)
   displ. norm   :     0.1087325 α      lambda       -0.4545714E-04
   maximum displ.:     0.0509914 α      in ANC's #2, #1, #8, ...

........................................................................
.............................. CYCLE   46 ..............................
........................................................................

 iter      E             dE          RMSdq      gap      omega  full diag
   1   -103.9731489 -0.103973E+03  0.158E-02    1.35       0.0  T
   2   -103.9731492 -0.301529E-06  0.919E-03    1.35       1.3  T
   3   -103.9731492  0.402945E-08  0.189E-03    1.35       6.5  T
   4   -103.9731493 -0.398423E-07  0.801E-04    1.35      15.4  T
   5   -103.9731493 -0.144566E-07  0.406E-04    1.35      30.3  T
     SCC iter.                  ...        0 min,  0.025 sec
     gradient                   ...        0 min,  0.094 sec
 * total energy  :  -102.6748994 Eh     change       -0.3556590E-04 Eh
   gradient norm :     0.0027713 Eh/α   predicted    -0.2303127E-04 ( -35.24%)
   displ. norm   :     0.1649349 α      lambda       -0.5602948E-04
   maximum displ.:     0.0802902 α      in ANC's #2, #1, #8, ...

........................................................................
.............................. CYCLE   47 ..............................
........................................................................

 iter      E             dE          RMSdq      gap      omega  full diag
   1   -103.9720016 -0.103972E+03  0.216E-02    1.35       0.0  T
   2   -103.9720021 -0.448486E-06  0.125E-02    1.35       1.0  T
   3   -103.9720020  0.430387E-07  0.238E-03    1.35       5.2  T
   4   -103.9720021 -0.855125E-07  0.110E-03    1.35      11.2  T
   5   -103.9720022 -0.480169E-07  0.506E-04    1.35      24.3  T
   6   -103.9720022 -0.771901E-08  0.142E-04    1.35      86.4  T
     SCC iter.                  ...        0 min,  0.030 sec
     gradient                   ...        0 min,  0.100 sec
 * total energy  :  -102.6749412 Eh     change       -0.4178338E-04 Eh
   gradient norm :     0.0034020 Eh/α   predicted    -0.2881360E-04 ( -31.04%)
   displ. norm   :     0.1610394 α      lambda       -0.4288546E-04
   maximum displ.:     0.0830891 α      in ANC's #2, #1, #8, ...

........................................................................
.............................. CYCLE   48 ..............................
........................................................................

 iter      E             dE          RMSdq      gap      omega  full diag
   1   -103.9703523 -0.103970E+03  0.185E-02    1.35       0.0  T
   2   -103.9703526 -0.322010E-06  0.107E-02    1.35       1.1  T
   3   -103.9703525  0.143872E-06  0.232E-03    1.34       5.3  T
   4   -103.9703527 -0.184425E-06  0.923E-04    1.34      13.3  T
   5   -103.9703527 -0.372615E-07  0.405E-04    1.34      30.4  T
     SCC iter.                  ...        0 min,  0.059 sec
     gradient                   ...        0 min,  0.090 sec
 * total energy  :  -102.6749744 Eh     change       -0.3317409E-04 Eh
   gradient norm :     0.0034703 Eh/α   predicted    -0.2206524E-04 ( -33.49%)
   displ. norm   :     0.1603790 α      lambda       -0.4258379E-04
   maximum displ.:     0.0872864 α      in ANC's #2, #1, #8, ...

........................................................................
.............................. CYCLE   49 ..............................
........................................................................

 iter      E             dE          RMSdq      gap      omega  full diag
   1   -103.9690189 -0.103969E+03  0.160E-02    1.34       0.0  T
   2   -103.9690192 -0.297548E-06  0.942E-03    1.34       1.3  T
   3   -103.9690190  0.179091E-06  0.234E-03    1.34       5.3  T
   4   -103.9690192 -0.220817E-06  0.797E-04    1.34      15.4  T
   5   -103.9690192 -0.317213E-07  0.339E-04    1.34      36.3  T
     SCC iter.                  ...        0 min,  0.027 sec
     gradient                   ...        0 min,  0.088 sec
 * total energy  :  -102.6750100 Eh     change       -0.3560957E-04 Eh
   gradient norm :     0.0032620 Eh/α   predicted    -0.2184621E-04 ( -38.65%)
   displ. norm   :     0.2118596 α      lambda       -0.6257038E-04
   maximum displ.:     0.1196501 α      in ANC's #2, #1, #8, ...

........................................................................
.............................. CYCLE   50 ..............................
........................................................................

 iter      E             dE          RMSdq      gap      omega  full diag
   1   -103.9681000 -0.103968E+03  0.196E-02    1.34       0.0  T
   2   -103.9681006 -0.554105E-06  0.116E-02    1.34       1.1  T
   3   -103.9681003  0.293999E-06  0.313E-03    1.34       3.9  T
   4   -103.9681007 -0.363526E-06  0.114E-03    1.34      10.8  T
   5   -103.9681007 -0.654291E-07  0.453E-04    1.34      27.2  T
   6   -103.9681007 -0.164734E-08  0.168E-04    1.34      73.2  T
     SCC iter.                  ...        0 min,  0.066 sec
     gradient                   ...        0 min,  0.109 sec
 * total energy  :  -102.6750621 Eh     change       -0.5209821E-04 Eh
   gradient norm :     0.0034868 Eh/α   predicted    -0.3268982E-04 ( -37.25%)
   displ. norm   :     0.2786478 α      lambda       -0.8177445E-04
   maximum displ.:     0.1619907 α      in ANC's #2, #1, #8, ...

........................................................................
.............................. CYCLE   51 ..............................
........................................................................

 iter      E             dE          RMSdq      gap      omega  full diag
   1   -103.9679087 -0.103968E+03  0.252E-02    1.33       0.0  T
   2   -103.9679096 -0.886728E-06  0.147E-02    1.34       1.0  T
   3   -103.9679092  0.421721E-06  0.387E-03    1.33       3.2  T
   4   -103.9679097 -0.526442E-06  0.158E-03    1.34       7.8  T
   5   -103.9679098 -0.119141E-06  0.611E-04    1.34      20.1  T
   6   -103.9679098 -0.425153E-08  0.190E-04    1.34      64.9  T
     SCC iter.                  ...        0 min,  0.062 sec
     gradient                   ...        0 min,  0.089 sec
 * total energy  :  -102.6751290 Eh     change       -0.6689276E-04 Eh
   gradient norm :     0.0045569 Eh/α   predicted    -0.4406332E-04 ( -34.13%)
   displ. norm   :     0.3182924 α      lambda       -0.9178660E-04
   maximum displ.:     0.1903694 α      in ANC's #2, #1, #20, ...

........................................................................
.............................. CYCLE   52 ..............................
........................................................................

 iter      E             dE          RMSdq      gap      omega  full diag
   1   -103.9685254 -0.103969E+03  0.283E-02    1.33       0.0  T
   2   -103.9685264 -0.101996E-05  0.163E-02    1.33       1.0  T
   3   -103.9685260  0.433011E-06  0.416E-03    1.33       3.0  T
   4   -103.9685266 -0.544534E-06  0.181E-03    1.33       6.8  T
   5   -103.9685267 -0.158123E-06  0.650E-04    1.33      18.9  T
   6   -103.9685267 -0.445665E-08  0.190E-04    1.33      64.9  T
     SCC iter.                  ...        0 min,  0.030 sec
     gradient                   ...        0 min,  0.095 sec
 * total energy  :  -102.6752061 Eh     change       -0.7708266E-04 Eh
   gradient norm :     0.0053599 Eh/α   predicted    -0.5054572E-04 ( -34.43%)
   displ. norm   :     0.3761519 α      lambda       -0.1135021E-03
   maximum displ.:     0.2303916 α      in ANC's #2, #1, #20, ...

........................................................................
.............................. CYCLE   53 ..............................
........................................................................

 iter      E             dE          RMSdq      gap      omega  full diag
   1   -103.9697007 -0.103970E+03  0.332E-02    1.33       0.0  T
   2   -103.9697020 -0.131576E-05  0.190E-02    1.33       1.0  T
   3   -103.9697015  0.448794E-06  0.475E-03    1.33       2.6  T
   4   -103.9697021 -0.566267E-06  0.208E-03    1.33       5.9  T
   5   -103.9697023 -0.221370E-06  0.705E-04    1.33      17.4  T
   6   -103.9697023 -0.409614E-08  0.207E-04    1.33      59.6  T
     SCC iter.                  ...        0 min,  0.052 sec
     gradient                   ...        0 min,  0.083 sec
 * total energy  :  -102.6753049 Eh     change       -0.9882245E-04 Eh
   gradient norm :     0.0053089 Eh/α   predicted    -0.6478241E-04 ( -34.45%)
   displ. norm   :     0.4791665 α      lambda       -0.1507532E-03
   maximum displ.:     0.2978415 α      in ANC's #2, #1, #20, ...

........................................................................
.............................. CYCLE   54 ..............................
........................................................................

 iter      E             dE          RMSdq      gap      omega  full diag
   1   -103.9707016 -0.103971E+03  0.419E-02    1.33       0.0  T
   2   -103.9707036 -0.194950E-05  0.239E-02    1.33       1.0  T
   3   -103.9707031  0.476560E-06  0.569E-03    1.33       2.2  T
   4   -103.9707037 -0.630989E-06  0.241E-03    1.33       5.1  T
   5   -103.9707040 -0.310437E-06  0.820E-04    1.33      15.0  T
   6   -103.9707040 -0.476423E-08  0.245E-04    1.33      50.2  T
     SCC iter.                  ...        0 min,  0.030 sec
     gradient                   ...        0 min,  0.093 sec
 * total energy  :  -102.6754405 Eh     change       -0.1355893E-03 Eh
   gradient norm :     0.0047625 Eh/α   predicted    -0.9268890E-04 ( -31.64%)
   displ. norm   :     0.5840763 α      lambda       -0.2012987E-03
   maximum displ.:     0.3701191 α      in ANC's #2, #1, #3, ...

........................................................................
.............................. CYCLE   55 ..............................
........................................................................

 iter      E             dE          RMSdq      gap      omega  full diag
   1   -103.9714746 -0.103971E+03  0.507E-02    1.32       0.0  T
   2   -103.9714774 -0.279997E-05  0.290E-02    1.32       1.0  T
   3   -103.9714770  0.407965E-06  0.654E-03    1.32       1.9  T
   4   -103.9714777 -0.662355E-06  0.268E-03    1.32       4.6  T
   5   -103.9714780 -0.366913E-06  0.981E-04    1.32      12.5  T
   6   -103.9714780 -0.766003E-08  0.303E-04    1.32      40.6  T
     SCC iter.                  ...        0 min,  0.052 sec
     gradient                   ...        0 min,  0.063 sec
 * total energy  :  -102.6756241 Eh     change       -0.1836091E-03 Eh
   gradient norm :     0.0044927 Eh/α   predicted    -0.1349875E-03 ( -26.48%)
   displ. norm   :     0.7057926 α      lambda       -0.2444484E-03
   maximum displ.:     0.4487165 α      in ANC's #2, #1, #3, ...

........................................................................
.............................. CYCLE   56 ..............................
........................................................................

 iter      E             dE          RMSdq      gap      omega  full diag
   1   -103.9702963 -0.103970E+03  0.602E-02    1.31       0.0  T
   2   -103.9702997 -0.338663E-05  0.345E-02    1.31       1.0  T
   3   -103.9702994  0.268377E-06  0.666E-03    1.31       1.8  T
   4   -103.9703001 -0.701631E-06  0.286E-03    1.31       4.3  T
   5   -103.9703005 -0.357776E-06  0.116E-03    1.31      10.6  T
   6   -103.9703005 -0.164514E-07  0.344E-04    1.31      35.8  T
   7   -103.9703005 -0.380508E-08  0.158E-04    1.31      77.7  T
     SCC iter.                  ...        0 min,  0.035 sec
     gradient                   ...        0 min,  0.086 sec
 * total energy  :  -102.6758487 Eh     change       -0.2245840E-03 Eh
   gradient norm :     0.0062436 Eh/α   predicted    -0.1831106E-03 ( -18.47%)
   displ. norm   :     0.7121264 α      lambda       -0.3331789E-03
   maximum displ.:     0.4610659 α      in ANC's #2, #1, #3, ...

........................................................................
.............................. CYCLE   57 ..............................
........................................................................

 iter      E             dE          RMSdq      gap      omega  full diag
   1   -103.9721627 -0.103972E+03  0.642E-02    1.29       0.0  T
   2   -103.9721685 -0.581608E-05  0.362E-02    1.29       1.0  T
   3   -103.9721685  0.419250E-07  0.810E-03    1.30       1.5  T
   4   -103.9721692 -0.733360E-06  0.323E-03    1.30       3.8  T
   5   -103.9721695 -0.321565E-06  0.134E-03    1.30       9.2  T
   6   -103.9721696 -0.292954E-07  0.347E-04    1.30      35.4  T
   7   -103.9721696 -0.266104E-08  0.198E-04    1.30      62.2  T
     SCC iter.                  ...        0 min,  0.035 sec
     gradient                   ...        0 min,  0.066 sec
 * total energy  :  -102.6760963 Eh     change       -0.2476523E-03 Eh
   gradient norm :     0.0084602 Eh/α   predicted    -0.2510710E-03 (   1.38%)
   displ. norm   :     0.8081405 α      lambda       -0.3336719E-03
   maximum displ.:     0.5166887 α      in ANC's #2, #1, #3, ...

........................................................................
.............................. CYCLE   58 ..............................
........................................................................

 iter      E             dE          RMSdq      gap      omega  full diag
   1   -103.9673689 -0.103967E+03  0.681E-02    1.28       0.0  T
   2   -103.9673740 -0.510797E-05  0.387E-02    1.28       1.0  T
   3   -103.9673735  0.534059E-06  0.749E-03    1.28       1.6  T
   4   -103.9673747 -0.124146E-05  0.347E-03    1.28       3.5  T
   5   -103.9673752 -0.446801E-06  0.134E-03    1.28       9.2  T
   6   -103.9673752 -0.306545E-07  0.425E-04    1.28      28.9  T
   7   -103.9673752 -0.496372E-08  0.212E-04    1.28      58.2  T
     SCC iter.                  ...        0 min,  0.036 sec
     gradient                   ...        0 min,  0.093 sec
 * total energy  :  -102.6763505 Eh     change       -0.2541740E-03 Eh
   gradient norm :     0.0103360 Eh/α   predicted    -0.2757980E-03 (   8.51%)
   displ. norm   :     0.5493803 α      lambda       -0.2730954E-03
   maximum displ.:     0.3550425 α      in ANC's #2, #1, #3, ...

........................................................................
.............................. CYCLE   59 ..............................
........................................................................

 iter      E             dE          RMSdq      gap      omega  full diag
   1   -103.9678656 -0.103968E+03  0.435E-02    1.26       0.0  T
   2   -103.9678680 -0.236890E-05  0.247E-02    1.26       1.0  T
   3   -103.9678670  0.101166E-05  0.632E-03    1.26       1.9  T
   4   -103.9678686 -0.159075E-05  0.256E-03    1.26       4.8  T
   5   -103.9678687 -0.103547E-06  0.937E-04    1.26      13.1  T
   6   -103.9678687 -0.291880E-07  0.276E-04    1.26      44.5  T
     SCC iter.                  ...        0 min,  0.030 sec
     gradient                   ...        0 min,  0.083 sec
 * total energy  :  -102.6765897 Eh     change       -0.2392291E-03 Eh
[...]
          coordinate file            : /rds/general/user/hgt20/home/callum/QDESCP/Vardenafil_rdkit_conf_20/Vardenafil_rdkit_conf_20.xyz
          omp threads                :                     1


           -------------------------------------------------
          |                 G F N 2 - x T B                 |
           -------------------------------------------------

        Reference                      10.1021/acs.jctc.8b01176
      * Hamiltonian:
        H0-scaling (s, p, d)           1.850000    2.230000    2.230000
        zeta-weighting                 0.500000
      * Dispersion:
        s8                             2.700000
        a1                             0.520000
        a2                             5.000000
        s9                             5.000000
      * Repulsion:
        kExp                           1.500000    1.000000
        rExp                           1.000000
      * Coulomb:
        alpha                          2.000000
        third order                    shell-resolved
        anisotropic                    true
        a3                             3.000000
        a5                             4.000000
        cn-shift                       1.200000
        cn-exp                         4.000000
        max-rad                        5.000000


          ...................................................
          :                      SETUP                      :
          :.................................................:
          :  # basis functions                 174          :
          :  # atomic orbitals                 173          :
          :  # shells                          101          :
          :  # electrons                       184          :
          :  max. iterations                   250          :
          :  Hamiltonian                  GFN2-xTB          :
          :  restarted?                      false          :
          :  GBSA solvation                  false          :
          :  PC potential                    false          :
          :  electronic temp.          300.0000000     K    :
          :  accuracy                    1.0000000          :
          :  -> integral cutoff          0.2500000E+02      :
          :  -> integral neglect         0.1000000E-07      :
          :  -> SCF convergence          0.1000000E-05 Eh   :
          :  -> wf. convergence          0.1000000E-03 e    :
          :  Broyden damping             0.4000000          :
          :  net charge                          0          :
          :  unpaired electrons                  2          :
          ...................................................

 iter      E             dE          RMSdq      gap      omega  full diag
   1   -103.4988373 -0.103499E+03  0.412E+00    0.76       0.0  T
   2   -103.7386919 -0.239855E+00  0.300E+00    0.53       1.0  T
   3   -103.7350721  0.361974E-02  0.194E+00    0.70       1.0  T
   4   -103.6835584  0.515138E-01  0.146E+00    0.56       1.0  T
   5   -103.8313477 -0.147789E+00  0.781E-01    0.95       1.0  T
   6   -103.8564620 -0.251143E-01  0.631E-01    0.68       1.0  T
   7   -103.8367701  0.196919E-01  0.632E-01    0.81       1.0  T
   8   -103.8618560 -0.250859E-01  0.439E-01    0.83       1.0  T
   9   -103.8881044 -0.262484E-01  0.155E-01    0.76       1.0  T
  10   -103.8821927  0.591168E-02  0.242E-01    0.73       1.0  T
  11   -103.8863356 -0.414288E-02  0.171E-01    0.76       1.0  T
  12   -103.8895602 -0.322460E-02  0.316E-02    0.74       1.0  T
  13   -103.8895931 -0.328949E-04  0.181E-02    0.74       1.0  T
  14   -103.8895939 -0.818181E-06  0.154E-02    0.74       1.0  T
  15   -103.8896107 -0.167255E-04  0.671E-03    0.74       1.8  T
  16   -103.8896079  0.276614E-05  0.703E-03    0.74       1.8  T
  17   -103.8895994  0.843766E-05  0.935E-03    0.74       1.3  T
  18   -103.8896038 -0.433802E-05  0.824E-03    0.74       1.5  T
  19   -103.8896137 -0.992096E-05  0.130E-03    0.74       9.5  T
  20   -103.8896139 -0.181101E-06  0.631E-04    0.74      19.5  T
  21   -103.8896139 -0.573854E-07  0.135E-04    0.74      91.1  T

   *** convergence criteria satisfied after 21 iterations ***

         #    Occupation            Energy/Eh            Energy/eV
      -------------------------------------------------------------
         1        2.0000           -0.7660781             -20.8460
       ...           ...                  ...                  ...
        87        2.0000           -0.3993050             -10.8656
        88        2.0000           -0.3930333             -10.6950
        89        2.0000           -0.3898664             -10.6088
        90        1.9597           -0.3805064             -10.3541
        91        1.7746           -0.3786678             -10.3041
        92        1.2657           -0.3765296             -10.2459
        93        1.0000           -0.2686246              -7.3096 (HOMO)
        94        0.0000           -0.2413213              -6.5667 (LUMO)
        95                         -0.2274565              -6.1894
        96                         -0.2039651              -5.5502
        97                         -0.1764516              -4.8015
        98                         -0.1214883              -3.3059
       ...                                ...                  ...
       173                          1.2369956              33.6604
      -------------------------------------------------------------
                  HL-Gap            0.0273033 Eh            0.7430 eV
             Fermi-level           -0.3162340 Eh           -8.6052 eV

 transition dipole moment (au) for excitation:          92          93
     X       Y       Z   
   0.0119  -0.0977  -0.0711  total (au/Debye):    0.121   0.309
 dE (eV)             :    2.936
 oscillator strength :  0.14990E-02

 SCC (total)                   0 d,  0 h,  0 min,  0.378 sec
 SCC setup                      ...        0 min,  0.001 sec (  0.201%)
 Dispersion                     ...        0 min,  0.001 sec (  0.294%)
 classical contributions        ...        0 min,  0.000 sec (  0.090%)
 integral evaluation            ...        0 min,  0.016 sec (  4.299%)
 iterations                     ...        0 min,  0.190 sec ( 50.083%)
 molecular gradient             ...        0 min,  0.156 sec ( 41.252%)
 printout                       ...        0 min,  0.014 sec (  3.778%)

         :::::::::::::::::::::::::::::::::::::::::::::::::::::
         ::                     SUMMARY                     ::
         :::::::::::::::::::::::::::::::::::::::::::::::::::::
         :: total energy            -102.590692237602 Eh    ::
         :: gradient norm              0.134040432861 Eh/a0 ::
         :: HOMO-LUMO gap              0.742960253038 eV    ::
         ::.................................................::
         :: SCC energy              -103.888072258391 Eh    ::
         :: -> isotropic ES            0.137544226107 Eh    ::
         :: -> anisotropic ES          0.000049242091 Eh    ::
         :: -> anisotropic XC          0.038240938105 Eh    ::
         :: -> dispersion             -0.080418995989 Eh    ::
         :: repulsion energy           1.297380020788 Eh    ::
         :: add. restraining           0.000000000000 Eh    ::
         :: total charge              -0.000000000000 e     ::
         :::::::::::::::::::::::::::::::::::::::::::::::::::::

           -------------------------------------------------
          |                Property Printout                |
           -------------------------------------------------

    * Orbital Energies and Occupations

         #    Occupation            Energy/Eh            Energy/eV
      -------------------------------------------------------------
         1        2.0000           -0.7660781             -20.8460
       ...           ...                  ...                  ...
        81        2.0000           -0.4297631             -11.6945
        82        2.0000           -0.4290392             -11.6747
        83        2.0000           -0.4130584             -11.2399
        84        2.0000           -0.4094100             -11.1406
        85        2.0000           -0.4051639             -11.0251
        86        2.0000           -0.4045295             -11.0078
        87        2.0000           -0.3993050             -10.8656
        88        2.0000           -0.3930333             -10.6950
        89        2.0000           -0.3898664             -10.6088
        90        1.9597           -0.3805064             -10.3541
        91        1.7746           -0.3786678             -10.3041
        92        1.2657           -0.3765296             -10.2459
        93        1.0000           -0.2686246              -7.3096 (HOMO)
        94        0.0000           -0.2413213              -6.5667 (LUMO)
        95                         -0.2274565              -6.1894
        96                         -0.2039651              -5.5502
        97                         -0.1764516              -4.8015
        98                         -0.1214883              -3.3059
        99                         -0.1155230              -3.1435
       100                         -0.0900069              -2.4492
       101                         -0.0694193              -1.8890
       102                         -0.0616675              -1.6781
       103                         -0.0532514              -1.4490
       104                         -0.0318063              -0.8655
       ...                                ...                  ...
       173                          1.2369956              33.6604
      -------------------------------------------------------------
                  HL-Gap            0.0273033 Eh            0.7430 eV
             Fermi-level           -0.3162340 Eh           -8.6052 eV

     #   Z          covCN         q      C6AA      α(0)
     1   6 C        3.751    -0.103    22.534     6.770
     2   6 C        3.802    -0.054    21.547     6.609
     3   6 C        3.804    -0.068    21.792     6.646
     4   6 C        3.127     0.105    25.492     8.267
     5   7 N        1.927    -0.271    27.885     7.830
     6   6 C        3.147     0.075    26.080     8.354
     7   6 C        3.755    -0.115    22.748     6.801
     8   6 C        3.064    -0.018    28.397     8.738
     9   7 N        2.949     0.053    20.310     6.693
    10   7 N        2.769    -0.115    23.500     7.200
    11   6 C        2.858     0.123    25.304     8.245
    12   6 C        2.981    -0.042    29.028     8.838
    13   6 C        2.856     0.125    25.263     8.238
    14   6 C        2.919    -0.068    29.687     8.935
    15   6 C        2.950    -0.050    29.246     8.870
    16   6 C        2.964    -0.098    30.469     9.054
    17  16 S        3.808     1.076   104.503    17.205
    18   8 O        0.860    -0.562    25.203     6.731
    19   7 N        2.738    -0.243    26.329     7.621
    20   6 C        3.827     0.002    20.528     6.447
    21   6 C        3.764    -0.004    20.690     6.484
    22   7 N        2.732    -0.113    23.462     7.194
    23   6 C        3.763    -0.008    20.769     6.496
    24   6 C        3.799     0.002    20.542     6.453
    25   6 C        3.749    -0.004    20.707     6.490
    26   6 C        3.750    -0.120    22.870     6.820
    27   8 O        0.860    -0.559    25.129     6.721
    28   6 C        2.973    -0.051    29.258     8.873
    29   8 O        1.704    -0.294    18.887     5.868
    30   6 C        3.686     0.084    19.371     6.301
    31   6 C        3.751    -0.112    22.711     6.796
    32   7 N        1.845    -0.270    27.871     7.824
    33   6 C        2.777     0.266    22.522     7.773
    34   8 O        0.859    -0.416    22.002     6.289
    35   1 H        0.925     0.037     2.495     2.470
    36   1 H        0.925     0.041     2.433     2.439
    37   1 H        0.925     0.032     2.553     2.499
    38   1 H        0.924     0.049     2.337     2.390
    39   1 H        0.924     0.039     2.466     2.456
    40   1 H        0.924     0.065     2.143     2.289
    41   1 H        0.924     0.039     2.463     2.454
    42   1 H        0.925     0.063     2.162     2.299
    43   1 H        0.925     0.071     2.077     2.254
    44   1 H        0.925     0.063     2.162     2.300
    45   1 H        0.860     0.210     1.056     1.610
    46   1 H        0.926     0.039     2.460     2.453
    47   1 H        0.926     0.049     2.335     2.390
    48   1 H        0.924     0.062     2.177     2.308
    49   1 H        0.925     0.064     2.158     2.297
    50   1 H        0.923     0.053     2.289     2.366
    51   1 H        0.924     0.057     2.233     2.337
    52   1 H        0.923     0.071     2.077     2.254
    53   1 H        0.924     0.064     2.153     2.295
    54   1 H        0.925     0.078     2.003     2.213
    55   1 H        0.923     0.059     2.211     2.325
    56   1 H        0.924     0.045     2.380     2.413
    57   1 H        0.924     0.052     2.299     2.371
    58   1 H        0.925     0.048     2.343     2.394
    59   1 H        0.925     0.077     2.012     2.218
    60   1 H        0.925     0.037     2.490     2.468
    61   1 H        0.926     0.055     2.256     2.349
    62   1 H        0.924     0.037     2.490     2.468
    63   1 H        0.924     0.037     2.488     2.467
    64   1 H        0.925     0.053     2.288     2.366
    65   1 H        0.925     0.052     2.292     2.367
    66   1 H        0.925     0.052     2.291     2.367

 Mol. C6AA /au·bohr⁶  :      48202.138131
 Mol. C8AA /au·bohr⁸  :    1143217.198476
 Mol. α(0) /au        :        335.418385


Wiberg/Mayer (AO) data.
largest (>0.10) Wiberg bond orders for each atom

 ---------------------------------------------------------------------------
     #   Z sym  total        # sym  WBO       # sym  WBO       # sym  WBO
 ---------------------------------------------------------------------------
     1   6 C    3.996 --     2 C    1.021    35 H    0.987    36 H    0.986
                            37 H    0.984
     2   6 C    3.991 --     1 C    1.021     3 C    0.983    38 H    0.978
                            39 H    0.977
     3   6 C    3.994 --     4 C    1.018     2 C    0.983    41 H    0.967
                            40 H    0.966
     4   6 C    3.928 --     5 N    1.426     9 N    1.243     3 C    1.018
     5   7 N    3.024 --     4 C    1.426     6 C    1.299
     6   6 C    3.925 --     8 C    1.409     5 N    1.299     7 C    1.037
     7   6 C    3.988 --     6 C    1.037    43 H    0.977    42 H    0.965
                            44 H    0.964
     8   6 C    3.837 --     6 C    1.409     9 N    1.123    33 C    1.004
     9   7 N    3.635 --     4 C    1.243     8 C    1.123    10 N    1.035
    10   7 N    3.368 --    11 C    1.125     9 N    1.035    45 H    0.895
    11   6 C    3.904 --    32 N    1.386    12 C    1.147    10 N    1.125
    12   6 C    3.948 --    28 C    1.302    13 C    1.232    11 C    1.147
    13   6 C    3.908 --    14 C    1.424    12 C    1.232    29 O    1.042
    14   6 C    3.971 --    13 C    1.424    15 C    1.381    46 H    0.964
    15   6 C    3.916 --    14 C    1.381    16 C    1.371    47 H    0.967
    16   6 C    3.949 --    28 C    1.464    15 C    1.371    17 S    0.735
    17  16 S    5.037 --    27 O    1.633    18 O    1.626    19 N    0.962
                            16 C    0.735
    18   8 O    1.925 --    17 S    1.626    27 O    0.109
    19   7 N    3.260 --    20 C    1.000    24 C    0.997    17 S    0.962
    20   6 C    3.961 --    19 N    1.000    21 C    0.983    49 H    0.970
                            48 H    0.959
    21   6 C    3.974 --    22 N    1.013    20 C    0.983    51 H    0.970
                            50 H    0.950
    22   7 N    3.156 --    21 C    1.013    23 C    1.012    25 C    0.998
    23   6 C    3.966 --    22 N    1.012    24 C    0.984    53 H    0.968
                            52 H    0.937
    24   6 C    3.956 --    19 N    0.997    23 C    0.984    54 H    0.966
                            55 H    0.958
    25   6 C    3.967 --    22 N    0.998    26 C    0.995    57 H    0.970
                            56 H    0.970
    26   6 C    3.969 --    25 C    0.995    60 H    0.986    58 H    0.983
                            59 H    0.975
    27   8 O    1.934 --    17 S    1.633    18 O    0.109
    28   6 C    3.967 --    16 C    1.464    12 C    1.302    61 H    0.951
    29   8 O    2.220 --    13 C    1.042    30 C    0.956
    30   6 C    3.944 --    31 C    1.016    62 H    0.969    63 H    0.968
                            29 O    0.956
    31   6 C    3.993 --    30 C    1.016    64 H    0.985    65 H    0.984
                            66 H    0.984
    32   7 N    3.031 --    11 C    1.386    33 C    1.177    34 O    0.178
    33   6 C    3.903 --    34 O    1.566    32 N    1.177     8 C    1.004
    34   8 O    1.968 --    33 C    1.566    32 N    0.178
    35   1 H    0.999 --     1 C    0.987
    36   1 H    0.998 --     1 C    0.986
    37   1 H    0.999 --     1 C    0.984
    38   1 H    0.997 --     2 C    0.978
    39   1 H    0.997 --     2 C    0.977
    40   1 H    0.994 --     3 C    0.966
    41   1 H    0.998 --     3 C    0.967
    42   1 H    0.991 --     7 C    0.965
    43   1 H    0.993 --     7 C    0.977
    44   1 H    0.990 --     7 C    0.964
    45   1 H    0.955 --    10 N    0.895
    46   1 H    0.997 --    14 C    0.964
    47   1 H    0.997 --    15 C    0.967
    48   1 H    0.986 --    20 C    0.959
    49   1 H    0.996 --    20 C    0.970
    50   1 H    0.981 --    21 C    0.950
    51   1 H    0.996 --    21 C    0.970
    52   1 H    0.976 --    23 C    0.937
    53   1 H    0.995 --    23 C    0.968
    54   1 H    0.994 --    24 C    0.966
    55   1 H    0.985 --    24 C    0.958
    56   1 H    0.995 --    25 C    0.970
    57   1 H    0.995 --    25 C    0.970
    58   1 H    0.996 --    26 C    0.983
    59   1 H    0.994 --    26 C    0.975
    60   1 H    0.998 --    26 C    0.986
    61   1 H    0.996 --    28 C    0.951
    62   1 H    0.998 --    30 C    0.969
    63   1 H    0.998 --    30 C    0.968
    64   1 H    0.997 --    31 C    0.985
    65   1 H    0.997 --    31 C    0.984
    66   1 H    0.997 --    31 C    0.984
 ---------------------------------------------------------------------------

Topologies differ in total number of bonds
Writing topology from bond orders to xtbtopo.mol

molecular dipole:
                 x           y           z       tot (Debye)
 q only:       -1.232       0.013       1.995
   full:       -1.366      -0.645       2.011       6.393
molecular quadrupole (traceless):
                xx          xy          yy          xz          yz          zz
 q only:       11.077      40.703       0.993      24.109      -8.328     -12.070
  q+dip:        7.525      43.581       2.807      26.187     -10.480     -10.332
   full:        5.623      43.969       1.447      26.925     -10.406      -7.069


           -------------------------------------------------
          | TOTAL ENERGY             -102.590692237602 Eh   |
          | GRADIENT NORM               0.134040432861 Eh/α |
          | HOMO-LUMO GAP               0.742960253038 eV   |
           -------------------------------------------------

------------------------------------------------------------------------
 * finished run on 2025/05/15 at 16:15:00.412     
------------------------------------------------------------------------
 total:
 * wall-time:     0 d,  0 h,  0 min,  0.401 sec
 *  cpu-time:     0 d,  0 h,  0 min,  0.219 sec
 * ratio c/w:     0.546 speedup
 SCF:
 * wall-time:     0 d,  0 h,  0 min,  0.379 sec
 *  cpu-time:     0 d,  0 h,  0 min,  0.198 sec
 * ratio c/w:     0.522 speedup


