66
 energy: -102.678572966410 gnorm: 0.000561307671 xtb: 6.7.1 (edcfbbe)
C           -4.63515692937208       -0.78778830501852       -1.88133612809914
C           -5.63364840964283       -0.42026427716857       -0.78998053968375
C           -4.97667787621958       -0.21168328970668        0.58295718813333
C           -4.02868807346595        0.93239106036269        0.57943108203319
N           -4.33578577186457        2.19112870692608        0.81108814696011
C           -3.20468029036239        2.92305668824997        0.69116442821596
C           -3.16888043918093        4.39199705725718        0.88663001792163
C           -2.14966893583412        2.08551809855197        0.37228819753834
N           -2.71095469873756        0.81961040196742        0.30698951834382
N           -1.94665764950831       -0.27090077294384        0.01027189454176
C           -0.62035471772287       -0.08774438879875       -0.20352855560945
C            0.20792147432372       -1.26223012428015       -0.51744787488809
C           -0.19359872494772       -2.60905320435534       -0.39421014713479
C            0.72676658388839       -3.61865183502057       -0.67228609136126
C            2.01602816071696       -3.31752057916970       -1.07633010744513
C            2.39749030520446       -1.99845142972981       -1.21933634192614
S            4.05191545954881       -1.57258074775481       -1.79144075506122
O            4.90703818916722       -2.66538785607187       -1.42143607956793
N            4.42907353656705       -0.24127025228678       -0.92374457418799
C            4.91611431648656       -0.35998971506700        0.42456087773596
C            4.15763544008163        0.62449135979649        1.31801413904592
N            4.35020380936663        1.95917641555674        0.78864654247138
C            3.75675680853376        2.06987166053961       -0.53179647375549
C            4.47091394069881        1.09166509914536       -1.47040383164228
C            3.99925386135819        3.02985664529045        1.70223210887829
C            2.53805626005196        3.09551046137741        2.15425963262601
O            3.94827168739639       -1.20604919388302       -3.17325410955694
C            1.50455088557906       -0.99071128803919       -0.94895727193364
O           -1.47340009055038       -2.86393284811799        0.00019524814207
C           -1.91057442982348       -4.20708901520355        0.17056450135083
C           -3.35815832419964       -4.16433017425286        0.63489638929020
N           -0.03926424323215        1.06094247879233       -0.15581102095189
C           -0.72555378019882        2.23959969575862        0.12184565765342
O           -0.13891024184623        3.30177047602868        0.14848401748672
H           -3.91470105198241        0.01211634797703       -2.03654154679188
H           -5.15516232621663       -0.95290250244531       -2.82178793377626
H           -4.09654273416681       -1.70125357915225       -1.63158429688412
H           -6.14908650043960        0.49988513678907       -1.06722939050342
H           -6.38065234949521       -1.21150268603252       -0.69951904920186
H           -5.75560434119385        0.00675901976497        1.31404956660014
H           -4.45877421638726       -1.12454527639252        0.89109147455991
H           -3.83150345241896        4.87966300611505        0.17393843733943
H           -2.15279172428292        4.74912025279550        0.74674615563500
H           -3.51351472823766        4.64346860902259        1.88799733807085
H           -2.37927896519102       -1.18557667799084       -0.00321390192152
H            0.44274189325733       -4.65368004733166       -0.57466945441872
H            2.73251736507269       -4.09671731730948       -1.28053771884671
H            5.98752523473759       -0.12340459039317        0.45714974702820
H            4.76958974842562       -1.39231553845703        0.74190752647997
H            3.09229600229179        0.33371457808369        1.34518453739529
H            4.56181275147435        0.58517474060533        2.33174725279199
H            2.67436681283844        1.86539414128262       -0.51619259622792
H            3.90689603279394        3.08756386635146       -0.89695959737443
H            4.00347332251860        1.05671627305005       -2.45382752630825
H            5.51700899765512        1.40727747978637       -1.58123248408969
H            4.64513145568671        2.91997953675603        2.58005084138884
H            4.26527582087642        3.96821975352251        1.20837514287867
H            2.40614521336932        3.94354249784426        2.82136662917060
H            1.86757570306809        3.22128718116300        1.30862122506428
H            2.25891710316173        2.19200006965530        2.69218364528144
H            1.79195448686696        0.04127074976905       -1.05632710972599
H           -1.28789604064710       -4.70816485221280        0.92101119582170
H           -1.83293212511934       -4.74665559868726       -0.78115844052553
H           -3.43840092427914       -3.61369284522410        1.56909734941020
H           -3.98589450641779       -3.68749142275755       -0.11407827618201
H           -3.71766905002973       -5.17630731459640        0.79442157227717
