50
 energy: -70.101436292655 gnorm: 0.000430125234 xtb: 6.7.1 (edcfbbe)
O           -0.05047859775057       -3.20784755238415       -1.11880796940053
C            0.17912329455357       -1.92096420040395       -0.59047506047780
C           -0.86144348724304       -1.64024876572399        0.51716866536559
N           -2.20507333101744       -1.91281470161025        0.00109211743578
C           -3.11133009373140       -2.05660838194516        1.13268471539691
C           -3.01489336587137       -0.83100222397401        2.06580963730750
C           -2.67630163071898       -0.82502299093287       -0.84657486101683
C           -2.91214366393520        0.47267105705438       -0.04032107823381
C           -2.43072941483264        1.70562280559443       -0.80954345766086
C           -2.86577337899132        3.01901841196610       -0.16953816978336
C           -2.23265368575457        0.25925474823791        1.32217499730841
C           -0.79355622678182       -0.22861946553452        1.12155434964105
C            1.56399354818763       -1.85507662813634        0.00046900792996
C            2.03749437823070       -2.94041900063487        0.69585278119452
C            3.29420617447196       -2.87733122578307        1.31542225730561
N            4.05918666077757       -1.82334856568994        1.29124139066450
C            3.63762070611556       -0.74551967901267        0.60231983714132
C            2.39077368260326       -0.70166025125176       -0.09028494340469
C            2.07539426968345        0.46319916050954       -0.80875335158885
C            2.91970716086456        1.55288263182688       -0.82741045269641
O            2.49363658217907        2.62172997355676       -1.55916771301644
C            3.31794429244786        3.75895448333613       -1.64439251890428
C            4.13468223617684        1.51093656817428       -0.11708790197289
C            4.48015696471948        0.38292840755996        0.57158129403031
H           -1.01114834182537       -3.33084596934826       -1.12500939611123
H            0.07814282374555       -1.18123053952899       -1.39658876146085
H           -0.67948899685110       -2.38985833871421        1.29678501712951
H           -4.12161069539714       -2.16971540258067        0.73353232956635
H           -2.85495517826223       -2.97757728425747        1.66249218576881
H           -4.00891110065731       -0.46845952062984        2.33104434044422
H           -2.49346958356702       -1.08654063856017        2.98984331858867
H           -3.59869548574903       -1.15886739247986       -1.32971077570518
H           -1.93851065215275       -0.65540937125332       -1.63195673195876
H           -3.98608727997163        0.59701459341092        0.14017895888863
H           -1.34291757091071        1.69378996152661       -0.89971069832399
H           -2.84414648557114        1.65500435302155       -1.82050197897420
H           -2.54929829124294        3.85806155083612       -0.78458491407539
H           -3.94860675911429        3.05578192968500       -0.07021358621277
H           -2.42568361073437        3.13963407995329        0.81702375516814
H           -2.23713815330161        1.18353343202400        1.90383579791969
H           -0.25461454774927        0.45301984031863        0.46523198961539
H           -0.26338195960089       -0.24852865359124        2.07495790025134
H            1.44411308828245       -3.83873683351433        0.75704814930176
H            3.67587262662014       -3.72766480531964        1.86656264908934
H            1.16962380039351        0.53472874893120       -1.38962269548945
H            3.47280071244466        4.21961663626193       -0.66344008931215
H            4.28726512710668        3.52207051491033       -2.09391788283519
H            2.78603570895749        4.45785552500314       -2.28807123542947
H            4.80176923777162        2.35857988160799       -0.12089261637107
H            5.41369849294524        0.32382908748964        1.10877139796667
