29
 energy: -55.291433089857 gnorm: 0.000247158288 xtb: 6.7.1 (edcfbbe)
O           -1.72816352885964        1.47373673193805        0.27603902266011
C           -2.34559316180622        0.72551086088664       -0.72674435953248
C           -2.19091455778619       -0.80583034660641       -0.56646015249897
C           -2.08129669532306       -1.23642549324882        0.89719312917216
C           -0.55299177363514       -1.20984994586582        1.15007107724554
C            0.03181637054044       -1.44157278805501       -0.27280602979923
N            1.07929305082499       -0.50123399279049       -0.58739062069362
C            2.33297802588116       -0.73469551790779       -1.02306055352618
N            2.96126851191601        0.39424289397249       -1.22093330853709
C            2.03848981331685        1.33601398891597       -0.89691636377774
C            2.30112920754548        2.79442328603958       -0.98193128014354
N            3.57116812616637        3.05341152227627       -1.35638179592222
O            1.46841738952468        3.63966259828640       -0.74466677123943
N            0.89328162925391        0.81709739373982       -0.50865447807440
O           -1.01859422407180       -1.33916221979876       -1.19170253234316
O           -0.14153289221914       -2.18511621783989        2.05267673467076
O           -2.58308930716932       -2.52759623143822        1.13545927783782
H           -0.78692295101462        1.59613604151721        0.05735503134254
H           -3.41406356796026        0.95408311195609       -0.66593567974856
H           -1.98435287391887        0.99817559130585       -1.72493958438212
H           -3.03389945998528       -1.29213806973900       -1.06870444293524
H           -2.61338043030571       -0.56149261142792        1.56752875981664
H           -0.24276050432900       -0.22494131917659        1.51364497155220
H            0.48295475740882       -2.44122676504538       -0.34952275305920
H            2.73998607641382       -1.71285380767681       -1.17386711220686
H            4.19943881391873        2.29092405842620       -1.54436831638719
H            3.87710963129111        4.00639083045184       -1.45424308367293
H           -0.90345909753303       -2.76995620827496        2.21143237987019
H           -2.35611637808841       -3.09581737481851        0.38792883431100
