57
 energy: -90.574718321277 gnorm: 0.000800475725 xtb: 6.7.1 (edcfbbe)
C            3.41808486465995        2.39848875899471        1.29073452370517
N            3.77695764316617        1.05955348247070        0.87409408233379
C            5.05966797224326        0.82894196662761        0.50827869101477
N            5.95271318582427        1.76626863128597        0.72144392630401
C            7.22785499094487        1.51126866557059        0.37609332365376
C            7.66466473505835        0.34743262068560       -0.17075408960031
C            6.72333276554443       -0.70034835407400       -0.43072861138429
N            5.40726087391635       -0.35773958972334       -0.05766863733709
O            6.91958233983132       -1.79381661959945       -0.92084488504111
C            2.72266504374879        0.07782323096183        0.67938479882573
C            1.58045119228565        0.23736017797684        1.68620329681673
C            0.54387922202327       -0.85602756267105        1.43486296613926
C            2.13970781742257        0.13054882020228       -0.74105544617911
C            1.06924749337836       -0.94449945786408       -0.90400550363467
N            0.02530071082810       -0.71562010369179        0.08112096779993
C           -1.16400916035241       -1.36989973141227       -0.18964710520595
N           -1.30335386814742       -2.38704279827566       -0.99003151737293
C           -2.64848497633378       -2.66701663257164       -0.99922853137961
C           -3.32376741472245       -1.75555272499155       -0.15679063355341
N           -2.34617606361722       -0.92933561424133        0.35728448409329
C           -2.58436151905230        0.30075996334062        1.06681981030187
C           -3.49689021632555        1.20803641462617        0.27572020948952
C           -4.59504973835182        1.81446621865549        0.86909345148252
C           -5.43016196123243        2.63680914895243        0.13393090863234
C           -5.15258288721671        2.83737207020416       -1.20527711916351
F           -5.96411667799045        3.63349755182107       -1.92943325154998
C           -4.06509648533796        2.24544806774112       -1.82255353328675
C           -3.23842797831790        1.43211231050145       -1.07156221203650
C           -4.69389705596535       -1.80692903128021        0.02656557011619
C           -5.38032299495072       -2.79544447782976       -0.65297138525454
C           -4.72257405626970       -3.70239736815582       -1.48312989428981
C           -3.35597378279208       -3.65469665553513       -1.67098304150986
H            2.62836136025893        2.79925808999805        0.65371930167988
H            3.08733018411245        2.40632120450618        2.32979232794793
H            4.30682940542973        3.01737782797780        1.19925116461938
H            7.90666904569614        2.32961764172824        0.57755652907905
H            8.69588693365464        0.18032950251660       -0.42893228062685
H            4.72588518867463       -1.07797878430477       -0.25732580705854
H            3.15016769066225       -0.91823184019276        0.85295204849214
H            1.09932751151639        1.20732825896958        1.56426578332666
H            1.96057476049315        0.15551996299775        2.70507941038931
H           -0.27535329112247       -0.77410667060164        2.15090804131836
H            1.00813387949874       -1.84678087121755        1.56870013380711
H            1.69278079586152        1.11166150137416       -0.90915318205483
H            2.92485250466384       -0.01621276242091       -1.48387478017953
H            0.61642786820347       -0.89412119425181       -1.89431929116400
H            1.51074746715466       -1.94496837607464       -0.78829310869963
H           -3.02349162159716        0.08786344183039        2.04879070154508
H           -1.61907117388934        0.79559071428112        1.20851684508348
H           -4.80283000214006        1.64574940596867        1.91601784203385
H           -6.28747173784959        3.11304155081208        0.58246755862521
H           -3.87962278448193        2.42237840733350       -2.87008245331673
H           -2.38688548331115        0.95836976986091       -1.53763573564253
H           -5.20736465010318       -1.10504658414977        0.66609771642532
H           -6.45157753462215       -2.86793072196558       -0.53802712728205
H           -5.30185653134950       -4.45983415126108       -1.99020749017931
H           -2.84447379933231       -4.35501670239600       -2.31112976112978
