57
 energy: -90.578897857345 gnorm: 0.000658681933 xtb: 6.7.1 (edcfbbe)
C            3.74586817743748       -1.69500554901196       -0.39895435498428
N            3.86234663406279       -0.25179288064702       -0.42576445233559
C            5.07905254502157        0.29413191551188       -0.20853589109375
N            6.12859826015439       -0.49418487472533       -0.19288219956510
C            7.33481075217908        0.06906316755526       -0.00503189785562
C            7.55322965569442        1.40039373682284        0.15448975796645
C            6.43679468366571        2.29711234011281        0.15725697625229
N            5.20577837010373        1.63639885784406       -0.02136241426900
O            6.43155378809900        3.50374033309471        0.30091133265896
C            2.64297150846456        0.53626283548893       -0.50334639095481
C            1.62221913389093       -0.07419754360572       -1.46789730007176
C            0.38665588401453        0.83158270647611       -1.53025935035640
C            1.99099348159194        0.71129550567324        0.87440707171707
C            0.71169112823486        1.53932251797545        0.74484471265364
N           -0.22835773526549        0.98732176553444       -0.21802290117729
C           -0.91871142232823       -0.13271966431912        0.22821870078515
N           -0.52539513236997       -0.97735432077666        1.13983720867357
C           -1.54684933798219       -1.88617614626232        1.26862807077034
C           -2.58925975650031       -1.54903859404122        0.37614845807451
N           -2.16064080278482       -0.41811164467626       -0.28339348435647
C           -2.96044927037957        0.40790863639711       -1.15036526949359
C           -4.24613015615053        0.81198700751492       -0.46996699199256
C           -4.20418488954905        1.33455627680708        0.81746620239458
C           -5.36682002617039        1.69620026589224        1.47037907569531
C           -6.57434061186218        1.53264861035651        0.81523380496503
F           -7.71392089269327        1.88328288859002        1.44374343892082
C           -6.64535054452352        1.02097313509851       -0.46693116767836
C           -5.47139739747836        0.65875276475419       -1.10334993689398
C           -3.74592038226710       -2.30364070588310        0.28702927278075
C           -3.83885135777853       -3.40758295128135        1.11261982612085
C           -2.81333634719190       -3.75025180875193        1.99379820029438
C           -1.65788157297206       -3.00175687637754        2.08780974978533
H            2.96525471051212       -1.99701055835327        0.29942820926497
H            4.70193389887424       -2.09812878416490       -0.07674853695391
H            3.51651526276571       -2.08521141000757       -1.39133344627896
H            8.15187497760423       -0.64043655615163        0.00161397255667
H            8.53743507583686        1.81295121371972        0.29252397776477
H            4.40146008627937        2.24853231205923        0.01469283096282
H            2.90033026781823        1.52274075372888       -0.91120895252686
H            1.30590490360314       -1.05509170806252       -1.11248192601809
H            2.05658499156348       -0.17875320365850       -2.46315167173069
H            0.66163637494685        1.82960640232820       -1.88600672486378
H           -0.34445931847331        0.40664290337232       -2.22080379745974
H            2.67970683358012        1.20019137477375        1.56500399610850
H            1.72022479736355       -0.26351713506699        1.28077391326648
H            0.20895096292483        1.59573454943059        1.71089507034618
H            0.94722448803876        2.55534778649346        0.41028638865810
H           -3.17946404572791       -0.12832798768352       -2.08139603773783
H           -2.37273208669959        1.30148300550288       -1.38292290804088
H           -3.25212149015514        1.45390718241611        1.31326111613916
H           -5.34859553884061        2.09883185919446        2.47037703478629
H           -7.60392470810907        0.90627861340259       -0.94742550978634
H           -5.51341936012336        0.25334425121734       -2.10382710244108
H           -4.54298596904171       -2.04031386186729       -0.39148285904898
H           -4.72694168152195       -4.02063968542871        1.07538863681808
H           -2.93127593341621       -4.62435683033033        2.61695787641982
H           -0.86378386595863       -3.26502619407417        2.76792859243371
