57
 energy: -90.580364589895 gnorm: 0.000392208779 xtb: 6.7.1 (edcfbbe)
C            2.79590266115079       -1.36437104262495        1.98834166060026
N            3.17563865667109       -0.44180872364450        0.93848715025436
C            4.15583666721294        0.45150733457779        1.19664886292387
N            4.83771049316723        0.33488778852795        2.31227042947993
C            5.82428030684702        1.21928476839836        2.54195610245000
C            6.17780488908731        2.22414943762165        1.69855409645193
C            5.45228244322173        2.39912309309725        0.47666986870389
N            4.42633248709653        1.44807397309387        0.30962514138510
O            5.60739908843502        3.24074966785161       -0.38610564834271
C            2.39791956820037       -0.42973398663290       -0.28967691402541
C            1.94877500137735       -1.83201361930286       -0.70589946511076
C            1.14404837073244       -1.73820437267527       -2.00468719051943
C            1.16554911916268        0.48049158107861       -0.17324351447450
C            0.38989713939023        0.48407435153569       -1.49486093821296
N           -0.00932373273175       -0.86124625341681       -1.88092327024578
C           -1.07116516612189       -1.41650995025244       -1.19254741550839
N           -1.01151928025497       -2.48109618888137       -0.43991640755797
C           -2.29932667312085       -2.72227108806641       -0.03056126015066
C           -3.15525368878617       -1.73886730112808       -0.57479133400685
N           -2.34509779039730       -0.91698323289722       -1.32940398332542
C           -2.78644231470612        0.14875213617418       -2.18165680731979
C           -2.92452928358893        1.48398233361965       -1.48227048642176
C           -3.07668427029707        2.63501641712041       -2.24826500961002
C           -3.22060551799398        3.87079346865701       -1.64735173260647
C           -3.20772307445411        3.94282149905402       -0.26530717654082
F           -3.34373680323649        5.14456995005822        0.32866905229355
C           -3.05868164817742        2.81615106275596        0.52072519097104
C           -2.92024976304166        1.58560398035147       -0.09716413309305
C           -4.51299044305114       -1.72305704091817       -0.30999316933607
C           -5.00326163505017       -2.72271482126988        0.50943690243391
C           -4.16697943097243       -3.69906324043920        1.04956625166568
C           -2.81073934569152       -3.71665837345960        0.79240295620864
H            1.71956243375094       -1.32396519919949        2.15527556791554
H            3.08292799557141       -2.38486528629657        1.73294564405395
H            3.31911147843622       -1.06744847404850        2.89330344084032
H            6.34138472951506        1.06294129387696        3.47962488881770
H            6.97985355217131        2.90757925002740        1.91678547611098
H            3.88568425133164        1.57160584647810       -0.53607601579222
H            3.04055551135232       -0.05375108246600       -1.09696530511409
H            1.29604722770605       -2.27601138063967        0.04368431098552
H            2.81533154658573       -2.47614595329369       -0.85584439237744
H            1.76382336912836       -1.34212113970506       -2.81544171951096
H            0.78285427831018       -2.72806556652645       -2.28323404734669
H            1.46087291104242        1.49907455701153        0.08525023900623
H            0.51471308194485        0.10370122885791        0.61843906799729
H           -0.48967682912470        1.12111227950752       -1.40045553962443
H            1.01943541637367        0.88068883599526       -2.29806000779326
H           -3.76186838450323       -0.13365762498445       -2.59743258949120
H           -2.07947529578444        0.23496610801291       -3.01381846140764
H           -3.08315008784247        2.56085044649716       -3.32568091351195
H           -3.34016049902050        4.76942457081032       -2.23069585900816
H           -3.05481065125532        2.90602594558970        1.59522338481466
H           -2.80931574778248        0.70011760654484        0.51042400038642
H           -5.16271623645430       -0.96293317897919       -0.71849261639211
H           -6.05808004635311       -2.74687999303004        0.73895422625192
H           -4.59564770216092       -4.45837396463263        1.68669667092150
H           -2.16242333293113       -4.46930273323274        1.21136273993680
