42
 energy: -71.302864728225 gnorm: 0.000963528868 xtb: 6.7.1 (edcfbbe)
O           -6.19383355685282        0.09558457503118       -0.11558372734069
C           -5.41763379881891        1.01710202474887        0.03092773695790
O           -5.82985319783156        2.26270175626185        0.24801262089518
C           -3.95346885490744        0.85373430095608       -0.00080976680376
C           -3.49321319034285       -0.42817466319027       -0.02036326003158
N           -2.19664475841258       -0.78010454666651       -0.04921573691743
C           -1.22120328200018        0.20516567454006        0.00767433513475
C            0.12980151306287       -0.12700013927281        0.06616659792490
C            1.13771027487754        0.84142518728785        0.12156778914164
N            2.45134040536563        0.49064211949272        0.20895289927235
C            2.84969919932190       -0.83692121667726        0.62576613086252
C            4.24420349165010       -0.77477336794348        1.24116419827238
N            5.22295124350453       -0.40633955847341        0.22767763117849
C            4.67182697779396        0.49487998343581       -0.77312777975827
C            3.52704852017105        1.35767643605649       -0.23430323698932
C            0.70420329432992        2.18665376681286        0.11525083843419
F            1.61033029514655        3.19407518068076        0.22056590834467
C           -0.61712416496521        2.52877239213779        0.05145807719362
C           -1.61524367202285        1.55215531603512        0.00027914746116
C           -3.02321776254988        1.98206544303728       -0.04036590417280
O           -3.33856536796772        3.15688479462318       -0.10629696007660
C           -1.83960188850631       -2.16747834437572       -0.09399233731687
C           -2.59221269478196       -3.09085052215580       -1.00361561414349
C           -1.18022484794473       -2.71658052297850       -1.32816032937455
H           -6.79882086555869        2.29873377985358        0.23766464187948
H           -4.21365700608999       -1.23512726121624       -0.00525384786094
H            0.41276923552705       -1.16411449728344        0.04889546110068
H            2.85832678519693       -1.54339434727842       -0.21557142404107
H            2.14608730105136       -1.19782238680267        1.38052242582701
H            4.21525472084825       -0.06748132782304        2.08494279254920
H            4.51602624627133       -1.75840716244541        1.63656871862322
H            6.03797829860092       -0.00283215807969        0.67407249706547
H            4.29214675408585       -0.11161289042461       -1.60417153119397
H            5.46186022088488        1.13598916315314       -1.16524316450589
H            3.88925588549662        1.98868336949732        0.58860522775556
H            3.16990744971670        2.01080308200273       -1.03194465604588
H           -0.91419682079628        3.56604413559012        0.06102875486759
H           -1.51720214690381       -2.55714479413109        0.86767976317006
H           -2.79880340826618       -4.08876214037102       -0.64930479616017
H           -3.37450472124031       -2.67601271145480       -1.61953760032536
H           -1.01859744284014       -2.03515064597689       -2.14918181327873
H           -0.40100466330389       -3.45378727621453       -1.20950070757358
