62
 energy: -94.878148614765 gnorm: 0.000722421141 xtb: 6.7.1 (edcfbbe)
C           -7.47738470498985        2.48526428688033       -0.14679345770469
C           -6.58398739886756        2.02617718575243       -1.26158522887797
C           -5.26257340681805        1.46437633323229       -0.83810040142501
C           -4.09917153787230        1.86880792410600       -1.42760926081389
C           -4.03723380696780        2.91058381995829       -2.49844651134466
C           -2.87245718517033        1.29433093947983       -0.97405548603453
C           -1.60012356521841        1.61842258382116       -1.46267191259849
N           -0.49166566840577        1.06434517825409       -1.03621138353018
C           -0.61131387362618        0.13514529413908       -0.07427542092677
N            0.48040939862801       -0.48682629481763        0.41205879791254
C            1.82620649650410       -0.35984364804285        0.09650296324266
N            2.60824516577805       -1.15698780052717        0.81821150348623
C            3.90778843412760       -1.14512972961090        0.61284787913225
C            4.54401174342579       -0.32685904344616       -0.33491566329853
C            3.70086671982892        0.51429879147064       -1.08103436917106
C            2.33874129449832        0.50152201980896       -0.87185434894470
N            5.89942348232212       -0.33235371070884       -0.51195235123554
C            6.51115596056915        0.16551855203247       -1.72541963744891
C            7.78534941820495       -0.63756210137949       -2.00935587931634
N            8.77088013622964       -0.53140698389428       -0.94603987581212
C            8.16350965894597       -0.30899918487027        0.36033097413417
C            6.79082946097522       -0.97113682270286        0.43149343401236
N           -1.76235838021340       -0.25387409803648        0.47410314665465
C           -2.88527181343024        0.30315445843816        0.04104028189999
N           -4.06030970027316       -0.09714470367181        0.59297141986787
C           -4.08745887061629       -1.12167091637109        1.63234350714989
C           -3.26689541579032       -0.76088727086110        2.88862492225202
C           -2.33746499860467       -1.95316934806159        3.13364522576745
C           -3.03392411277774       -3.12148993817224        2.44119295408977
C           -3.56983883603656       -2.48877215659928        1.16171759311022
C           -5.28853396517849        0.44229835422449        0.20540647291782
O           -6.31373679794932        0.03599564556528        0.72671360980308
O           -6.89468399807421        2.12065509753101       -2.42698244328936
H           -7.82072469279069        1.60599126751464        0.39614014798065
H           -6.92434119456843        3.11143912307559        0.55034307642967
H           -8.32820338880424        3.02565787960603       -0.55381593771504
H           -3.40489271578659        3.73877041489027       -2.17969627054215
H           -3.60609931711452        2.48094246313041       -3.40153874384347
H           -5.02310276203427        3.28824511874643       -2.74393529904146
H           -1.47083783226998        2.36064440069702       -2.23843631592435
H            0.29889339083862       -1.17270144318200        1.13523962907417
H            4.46534997342993       -1.83540081862945        1.22908920954267
H            4.11243829831585        1.19101484047224       -1.81348957234117
H            1.67602690310524        1.13962693075190       -1.42971292967498
H            6.75818139329150        1.23469694944738       -1.63384689431628
H            5.81839151361309        0.04347075713084       -2.56236700715254
H            7.51176044108838       -1.69377810556829       -2.11539677068994
H            8.22813074881077       -0.31266172315831       -2.95181879696708
H            9.43880781278828        0.20561285371131       -1.13924832841992
H            8.03998769574198        0.76056802595612        0.59281493597627
H            8.82034326723761       -0.74423992681271        1.11992925503497
H            6.89435267934883       -2.04673878270062        0.23131469294514
H            6.39143665978160       -0.84292274453365        1.44050345199015
H           -5.14402910727487       -1.20975730807455        1.89871891580736
H           -3.93861300851570       -0.61517859287572        3.73461706319430
H           -2.70455929001333        0.15898312019181        2.74282378040406
H           -2.17106391706283       -2.13370183762798        4.19453987083064
H           -1.37546064728961       -1.77083871880464        2.65602073065027
H           -2.36033955115514       -3.95370676634372        2.24311641494937
H           -3.86107597120788       -3.48261518353334        3.05452176185724
H           -2.75623810657995       -2.35084442945159        0.45121944290502
H           -4.35574860807818       -3.07736047694440        0.69064943339633
