56
 energy: -97.784510358453 gnorm: 0.000445991004 xtb: 6.7.1 (edcfbbe)
O            3.90066484396884        2.29417384951112        2.93086510456786
C            4.10342499195486        1.23102906481007        2.15131458745461
C            5.35960691680096        0.62340092998161        2.19567873507468
C            5.60650064443745       -0.49428532349915        1.43626516652993
C            4.61989528925197       -1.02952231718115        0.61548052381801
C            3.37949466797660       -0.43004720883884        0.51757269897970
C            3.11122452064622        0.71652593429061        1.28414947032853
C            1.82555715837386        1.39294710286700        1.19131808017106
C            0.96209517249277        1.08449600275525        0.07348700886752
C           -0.19737314914684        1.78636593165283       -0.06318776647262
O           -0.63965215363386        2.69498226426706        0.79021019792443
C           -1.09971772670806        1.52201963903977       -1.25657800158372
C           -2.49880203123032        2.07089704260687       -0.97965885387272
C           -3.31034497329594        1.30595097876798       -0.07320760153423
C           -4.58908089594592        1.84512651945722        0.44622359649521
N           -4.98862412269938        3.02815894754743       -0.01786371601291
O           -5.26594523451729        1.21633588652291        1.27642942242759
C           -2.91978217140747        0.05107865012922        0.35721121124976
O           -3.62158340425566       -0.62635676496053        1.22131588155071
C           -1.68000864494423       -0.65673150636187       -0.15835816441340
N           -1.83743593080755       -2.08945729995494       -0.36490054261690
C           -1.73881863722160       -2.89090353040354        0.84365121022500
C           -3.00655986894074       -2.47226425407414       -1.13370525535558
O           -2.82545278907035        3.10730490579364       -1.54672938440465
O           -0.58009332514910        2.14647733613534       -2.40293225062541
C           -1.14673555726572        0.00628142631439       -1.43990785944779
C            0.24842471141288       -0.48967918917487       -1.81334728807476
C            1.41063064161388        0.08807544435697       -0.96811174525439
C            2.25871807783848       -1.03761684277032       -0.31414142328516
O            1.47263622831936       -1.77733266205577        0.60767878107859
C            2.82704951756681       -1.96302092787852       -1.40047063476535
O            1.49467044484747        2.26204044607655        2.03647949200609
H            2.95667090118181        2.56662300951280        2.83408808274387
H            6.10481182124128        1.04316543590004        2.85215816830964
H            6.57271830108304       -0.97373465329521        1.48537995028903
H            4.84779993397355       -1.92390439139137        0.06254239319815
H            0.06235148613713        2.78541573267747        1.50309042886942
H           -4.41257107414215        3.52129052395567       -0.69031543811764
H           -5.84240963236173        3.42470115325547        0.33822821375405
H           -4.43962015388242       -0.04437333899118        1.46645979566365
H           -0.91750670734773       -0.54300735462714        0.62458456746725
H           -2.64082306058463       -2.83700324514525        1.46356499144055
H           -1.58534874482935       -3.92987519466509        0.54847959044079
H           -0.88841912910231       -2.56716432482236        1.44045198056497
H           -2.87742321068354       -3.50522614250593       -1.45678386287652
H           -3.09813101436546       -1.84623717614952       -2.01804960960676
H           -3.93793804127342       -2.40663655366756       -0.55611250384582
H           -1.12431954599007        2.94418590441801       -2.53959634277379
H           -1.81980569807640       -0.21583597728273       -2.27249407064281
H            0.20898779886138       -1.57671964534785       -1.74133092644768
H            0.42085211585627       -0.22570609291201       -2.85586074410823
H            2.08556103815471        0.62473626139827       -1.64613610689867
H            0.78939115657429       -2.24586366201958        0.11152517272677
H            3.61166540176282       -1.45544996158640       -1.95420081778952
H            2.05791234918076       -2.26953614355854       -2.10257860379135
H            3.23081049737102       -2.86069463886404       -0.93972498960975
