43
 energy: -70.318475618377 gnorm: 0.000166364280 xtb: 6.7.1 (edcfbbe)
C           -1.40422757433866        2.23991397238166       -1.33193803817362
C           -1.65915429908270        0.89013199274367       -0.73893676215269
C           -1.26295507887670        0.56136651197734        0.56129532741172
O           -0.63723394554006        1.49991991820041        1.36076406791279
C           -1.51305282068417        2.43251710767513        1.95927026069996
C           -1.43739210625106       -0.73791769141798        1.04464574667232
C           -0.97265487924392       -1.10687495810417        2.41828299421594
C           -2.27551228547745       -0.11351744068561       -1.47342989275064
N           -2.45465034002490       -1.34211306618207       -1.03495012236612
C           -2.02557839227450       -1.66926495467801        0.17819800871325
C           -2.14147312259114       -3.11036401597377        0.51631328415835
S           -0.72598196981185       -4.13240865286951       -0.22908647835522
C            0.35311128955034       -2.71987833079206       -0.50039980488494
N            1.11518710969628       -2.13158868107041        0.37505734796404
C            1.60575883917154       -1.02462353829896       -0.27156350578667
C            1.11195728928976       -0.99460181416774       -1.59710825173755
N            0.32804234896239       -2.11279937450800       -1.71281121371934
C            1.42101059704537        0.04814285835807       -2.45695483259880
C            2.21565698539971        1.05422749972599       -1.96055264706122
C            2.70772819957931        1.03832488828628       -0.64054524813374
O            3.46975410235903        2.12034458768383       -0.30909302314139
C            3.98338217773427        2.19269899523315        0.99836940413548
C            2.41560813214542       -0.00530987334492        0.21815307079622
O           -1.14610513457434       -4.48347382051048       -1.58567792314633
H           -0.54556092536601        2.70338919440068       -0.85158831953020
H           -1.20568391469479        2.14674569503934       -2.39712354448718
H           -2.27212592269646        2.88933619840697       -1.20825496632029
H           -2.09415734425384        2.98567194866399        1.21602696692264
H           -0.88275848645275        3.12541271292509        2.51415022196127
H           -2.20569577025764        1.93681574894679        2.64939337808161
H           -0.15655670755269       -1.82467980206901        2.34611206978180
H           -1.78303826286286       -1.54443201407028        3.00024387026193
H           -0.60235428271553       -0.22289476204003        2.92939102198501
H           -2.62744976985539        0.07756440856800       -2.47917775306993
H           -2.10419741343960       -3.30803444002965        1.58231521320049
H           -3.02745479308752       -3.54709835779246        0.06046575774620
H           -0.23689563581849       -2.42840624765433       -2.48619362149589
H            1.04489335781919        0.07614183351671       -3.46776230161433
H            2.48207737057505        1.89906977118104       -2.57561964180568
H            3.18049536639561        2.20560381247413        1.74230036110595
H            4.53807451466393        3.12859264587088        1.04659401031458
H            4.66087552680776        1.35899329656676        1.20981072213591
H            2.76608797061568       -0.05064376249801        1.23431478618038
