----- Optimization -----
      -----------------------------------------------------------      
     |                   =====================                   |     
     |                           x T B                           |     
     |                   =====================                   |     
     |                         S. Grimme                         |     
     |          Mulliken Center for Theoretical Chemistry        |     
     |                    University of Bonn                     |     
      -----------------------------------------------------------      

   * xtb version 6.7.1 (edcfbbe) compiled by 'conda@3ef47c1a292c' on 2024-11-25

   xtb is free software: you can redistribute it and/or modify it under
   the terms of the GNU Lesser General Public License as published by
   the Free Software Foundation, either version 3 of the License, or
   (at your option) any later version.
   
   xtb is distributed in the hope that it will be useful,
   but WITHOUT ANY WARRANTY; without even the implied warranty of
   MERCHANTABILITY or FITNESS FOR A PARTICULAR PURPOSE.  See the
   GNU Lesser General Public License for more details.
   
   Cite this work as:
   * C. Bannwarth, E. Caldeweyher, S. Ehlert, A. Hansen, P. Pracht,
     J. Seibert, S. Spicher, S. Grimme, WIREs Comput. Mol. Sci., 2020, 11,
     e01493. DOI: 10.1002/wcms.1493
   
   for GFN2-xTB:
   * C. Bannwarth, S. Ehlert and S. Grimme., J. Chem. Theory Comput., 2019,
     15, 1652-1671. DOI: 10.1021/acs.jctc.8b01176
   for GFN1-xTB:
   * S. Grimme, C. Bannwarth, P. Shushkov, J. Chem. Theory Comput., 2017,
     13, 1989-2009. DOI: 10.1021/acs.jctc.7b00118
   for GFN0-xTB:
   * P. Pracht, E. Caldeweyher, S. Ehlert, S. Grimme, ChemRxiv, 2019, preprint.
     DOI: 10.26434/chemrxiv.8326202.v1
   for GFN-FF:
   * S. Spicher and S. Grimme, Angew. Chem. Int. Ed., 2020, 59, 15665-15673.
     DOI: 10.1002/anie.202004239
   
   for ALPB and GBSA implicit solvation:
   * S. Ehlert, M. Stahn, S. Spicher, S. Grimme, J. Chem. Theory Comput.,
     2021, 17, 4250-4261. DOI: 10.1021/acs.jctc.1c00471
   
   for ddCOSMO and CPCM-X implicit solvation:
   * M. Stahn, S. Ehlert, S. Grimme, J. Phys. Chem. A,
     2023, XX, XXXX-XXXX. DOI: 10.1021/acs.jpca.3c04382
   
   for DFT-D4:
   * E. Caldeweyher, C. Bannwarth and S. Grimme, J. Chem. Phys., 2017,
     147, 034112. DOI: 10.1063/1.4993215
   * E. Caldeweyher, S. Ehlert, A. Hansen, H. Neugebauer, S. Spicher,
     C. Bannwarth and S. Grimme, J. Chem. Phys., 2019, 150, 154122.
     DOI: 10.1063/1.5090222
   * E. Caldeweyher, J.-M. Mewes, S. Ehlert and S. Grimme, Phys. Chem. Chem. Phys.
     2020, 22, 8499-8512. DOI: 10.1039/D0CP00502A
   
   for sTDA-xTB:
   * S. Grimme and C. Bannwarth, J. Chem. Phys., 2016, 145, 054103.
     DOI: 10.1063/1.4959605
   
   in the mass-spec context:
   * V. Asgeirsson, C. Bauer and S. Grimme, Chem. Sci., 2017, 8, 4879.
     DOI: 10.1039/c7sc00601b
   * J. Koopman and S. Grimme, ACS Omega 2019, 4, 12, 15120-15133.
     DOI: 10.1021/acsomega.9b02011
   
   for metadynamics refer to:
   * S. Grimme, J. Chem. Theory Comput., 2019, 155, 2847-2862
     DOI: 10.1021/acs.jctc.9b00143
   
   for SPH calculations refer to:
   * S. Spicher and S. Grimme, J. Chem. Theory Comput., 2021, 17, 1701-1714
     DOI: 10.1021/acs.jctc.0c01306
   
   for ONIOM refer to:
   * C. Plett, A. Katbashev, S. Ehlert, S. Grimme, M. Bursch,
     Phys. Chem. Chem. Phys., 2023, 25, 17860-17868. DOI: 10.1039/D3CP02178E
   
   for DIPRO refer to:
   * J. Kohn, N. Gildemeister, S. Grimme, D. Fazzi, A. Hansen,
     J. Chem. Phys., 2023, just accepted.
   
   for PTB refer to:
   * S. Grimme, M. Mueller, A. Hansen, J. Chem. Phys., 2023, 158, 124111.
     DOI: 10.1063/5.0137838
   
   with help from (in alphabetical order)
   P. Atkinson, C. Bannwarth, F. Bohle, G. Brandenburg, E. Caldeweyher
   M. Checinski, S. Dohm, S. Ehlert, S. Ehrlich, I. Gerasimov, C. Hölzer
   A. Katbashev, J. Kohn, J. Koopman, C. Lavigne, S. Lehtola, F. März, M. Müller,
   F. Musil, H. Neugebauer, J. Pisarek, C. Plett, P. Pracht, F. Pultar,
   J. Seibert, P. Shushkov, S. Spicher, M. Stahn, M. Steiner, T. Strunk,
   J. Stückrath, T. Rose, and J. Unsleber
   
 * started run on 2025/05/15 at 16:26:57.202     
   ID    Z sym.   atoms
    1    6 C      1-3, 5-8, 10, 11, 13, 15, 16, 18-20, 22, 23
    2    8 O      4, 21, 24
    3    7 N      9, 14, 17
    4   16 S      12
    5    1 H      25-43

           -------------------------------------------------
          |                Calculation Setup                |
           -------------------------------------------------

          program call               : xtb /rds/general/user/hgt20/home/callum/QDESCP/Omeprazole_rdkit_conf_24/Omeprazole_rdkit_conf_24.xyz --opt normal --acc 1 --gfn 2 --chrg 0 --uhf 0 -P 1
          hostname                   : login-c
          coordinate file            : /rds/general/user/hgt20/home/callum/QDESCP/Omeprazole_rdkit_conf_24/Omeprazole_rdkit_conf_24.xyz
          omp threads                :                     1


           -------------------------------------------------
          |                 G F N 2 - x T B                 |
           -------------------------------------------------

        Reference                      10.1021/acs.jctc.8b01176
      * Hamiltonian:
        H0-scaling (s, p, d)           1.850000    2.230000    2.230000
        zeta-weighting                 0.500000
      * Dispersion:
        s8                             2.700000
        a1                             0.520000
        a2                             5.000000
        s9                             5.000000
      * Repulsion:
        kExp                           1.500000    1.000000
        rExp                           1.000000
      * Coulomb:
        alpha                          2.000000
        third order                    shell-resolved
        anisotropic                    true
        a3                             3.000000
        a5                             4.000000
        cn-shift                       1.200000
        cn-exp                         4.000000
        max-rad                        5.000000


          ...................................................
          :                      SETUP                      :
          :.................................................:
          :  # basis functions                 121          :
          :  # atomic orbitals                 120          :
          :  # shells                           68          :
          :  # electrons                       126          :
          :  max. iterations                   250          :
          :  Hamiltonian                  GFN2-xTB          :
          :  restarted?                      false          :
          :  GBSA solvation                  false          :
          :  PC potential                    false          :
          :  electronic temp.          300.0000000     K    :
          :  accuracy                    1.0000000          :
          :  -> integral cutoff          0.2500000E+02      :
          :  -> integral neglect         0.1000000E-07      :
          :  -> SCF convergence          0.1000000E-05 Eh   :
          :  -> wf. convergence          0.1000000E-03 e    :
          :  Broyden damping             0.4000000          :
          :  net charge                          0          :
          :  unpaired electrons                  0          :
          ...................................................

 iter      E             dE          RMSdq      gap      omega  full diag
   1    -71.0623399 -0.710623E+02  0.435E+00    3.12       0.0  T
   2    -71.1697673 -0.107427E+00  0.248E+00    3.16       1.0  T
   3    -71.1653338  0.443356E-02  0.118E+00    3.04       1.0  T
   4    -71.1768033 -0.114695E-01  0.500E-01    3.08       1.0  T
   5    -71.1851343 -0.833109E-02  0.156E-01    3.05       1.0  T
   6    -71.1852993 -0.164972E-03  0.766E-02    3.04       1.0  T
   7    -71.1853793 -0.799845E-04  0.313E-02    3.05       1.0  T
   8    -71.1853887 -0.939215E-05  0.179E-02    3.05       1.0  T
   9    -71.1853899 -0.120409E-05  0.765E-03    3.05       2.0  T
  10    -71.1853912 -0.127941E-05  0.292E-03    3.05       5.2  T
  11    -71.1853912 -0.392784E-07  0.147E-03    3.05      10.4  T
  12    -71.1853912 -0.114010E-07  0.585E-04    3.05      26.1  T
  13    -71.1853912 -0.616618E-08  0.255E-04    3.05      59.9  T

   *** convergence criteria satisfied after 13 iterations ***

         #    Occupation            Energy/Eh            Energy/eV
      -------------------------------------------------------------
         1        2.0000           -0.7546755             -20.5358
       ...           ...                  ...                  ...
        57        2.0000           -0.4131292             -11.2418
        58        2.0000           -0.4045460             -11.0083
        59        2.0000           -0.3962733             -10.7831
        60        2.0000           -0.3932429             -10.7007
        61        2.0000           -0.3832624             -10.4291
        62        2.0000           -0.3766551             -10.2493
        63        2.0000           -0.3729066             -10.1473 (HOMO)
        64                         -0.2607667              -7.0958 (LUMO)
        65                         -0.2557846              -6.9603
        66                         -0.2408124              -6.5528
        67                         -0.2070371              -5.6338
        68                         -0.2010946              -5.4721
       ...                                ...                  ...
       120                          0.8074820              21.9727
      -------------------------------------------------------------
                  HL-Gap            0.1121399 Eh            3.0515 eV
             Fermi-level           -0.3168366 Eh           -8.6216 eV

 SCC (total)                   0 d,  0 h,  0 min,  0.082 sec
 SCC setup                      ...        0 min,  0.000 sec (  0.487%)
 Dispersion                     ...        0 min,  0.001 sec (  0.608%)
 classical contributions        ...        0 min,  0.000 sec (  0.185%)
 integral evaluation            ...        0 min,  0.009 sec ( 11.138%)
 iterations                     ...        0 min,  0.032 sec ( 38.236%)
 molecular gradient             ...        0 min,  0.041 sec ( 49.111%)
 printout                       ...        0 min,  0.000 sec (  0.227%)

         :::::::::::::::::::::::::::::::::::::::::::::::::::::
         ::                     SUMMARY                     ::
         :::::::::::::::::::::::::::::::::::::::::::::::::::::
         :: total energy             -70.300238661964 Eh    ::
         :: gradient norm              0.103896646857 Eh/a0 ::
         :: HOMO-LUMO gap              3.051482724376 eV    ::
         ::.................................................::
         :: SCC energy               -71.183914069073 Eh    ::
         :: -> isotropic ES            0.094960479117 Eh    ::
         :: -> anisotropic ES          0.008845481662 Eh    ::
         :: -> anisotropic XC          0.030895172018 Eh    ::
         :: -> dispersion             -0.049934212124 Eh    ::
         :: repulsion energy           0.883675407109 Eh    ::
         :: add. restraining           0.000000000000 Eh    ::
         :: total charge               0.000000000000 e     ::
         :::::::::::::::::::::::::::::::::::::::::::::::::::::

      ----------------------------------------------------------- 
     |                   =====================                   |
     |                        A N C O P T                        |
     |                   =====================                   |
     |               Approximate Normal Coordinate               |
     |                Rational Function Optimizer                |
      ----------------------------------------------------------- 
      ----------------------------------------------------------- 
     |                   =====================                   |
     |                        A N C O P T                        |
     |                   =====================                   |
     |               Approximate Normal Coordinate               |
     |                Rational Function Optimizer                |
      ----------------------------------------------------------- 

          ...................................................
          :                      SETUP                      :
          :.................................................:
          :   optimization level            normal          :
          :   max. optcycles                   200          :
          :   ANC micro-cycles                  20          :
          :   degrees of freedom               123          :
          :.................................................:
          :   RF solver                   davidson          :
          :   write xtbopt.log                true          :
          :   linear?                        false          :
          :   energy convergence         0.5000000E-05 Eh   :
          :   grad. convergence          0.1000000E-02 Eh/α :
          :   maxmium RF displ.          1.0000000          :
          :   Hlow (freq-cutoff)         0.1000000E-01      :
          :   Hmax (freq-cutoff)         5.0000000          :
          :   S6 in model hess.         20.0000000          :
          ...................................................

generating ANC from exact Hessian ...
Using Lindh-Hessian (1995)
 Shifting diagonal of input Hessian by    9.8719105519709839E-003
 Lowest  eigenvalues of input Hessian
    0.000000    0.000000    0.000000    0.000000    0.000000    0.000000
    0.010000    0.010190    0.010303    0.010944    0.011696    0.012163
    0.012902    0.013137    0.013623    0.015273    0.015634    0.016099
 Highest eigenvalues
    1.985508    2.031023    2.041366    2.100717    2.232261    2.277907


........................................................................
.............................. CYCLE    1 ..............................
........................................................................

 iter      E             dE          RMSdq      gap      omega  full diag
   1    -71.1853912 -0.711854E+02  0.970E-05    3.05       0.0  T
   2    -71.1853912 -0.612062E-10  0.587E-05    3.05     259.9  T
   3    -71.1853912 -0.364508E-10  0.406E-05    3.05     375.7  T
     SCC iter.                  ...        0 min,  0.008 sec
     gradient                   ...        0 min,  0.027 sec
 * total energy  :   -70.3002387 Eh     change       -0.1209798E-08 Eh
   gradient norm :     0.1038977 Eh/α   predicted     0.0000000E+00 (-100.00%)
   displ. norm   :     0.2944088 α      lambda       -0.1362606E-01
   maximum displ.:     0.0951900 α      in ANC's #41, #21, #30, ...

........................................................................
.............................. CYCLE    2 ..............................
........................................................................

 iter      E             dE          RMSdq      gap      omega  full diag
   1    -71.2218105 -0.712218E+02  0.197E-01    3.07       0.0  T
   2    -71.2219441 -0.133521E-03  0.128E-01    3.11       1.0  T
   3    -71.2219120  0.320282E-04  0.659E-02    3.09       1.0  T
   4    -71.2220118 -0.998220E-04  0.183E-02    3.10       1.0  T
   5    -71.2220198 -0.792080E-05  0.726E-03    3.10       2.1  T
   6    -71.2220198 -0.134684E-07  0.336E-03    3.10       4.5  T
   7    -71.2220200 -0.211558E-06  0.157E-03    3.10       9.7  T
   8    -71.2220200 -0.193993E-07  0.791E-04    3.10      19.3  T
   9    -71.2220200 -0.338413E-08  0.271E-04    3.10      56.3  T
     SCC iter.                  ...        0 min,  0.021 sec
     gradient                   ...        0 min,  0.026 sec
 * total energy  :   -70.3097238 Eh     change       -0.9485146E-02 Eh
   gradient norm :     0.0501268 Eh/α   predicted    -0.7410712E-02 ( -21.87%)
   displ. norm   :     0.2665187 α      lambda       -0.4466170E-02
   maximum displ.:     0.0819917 α      in ANC's #9, #5, #31, ...

........................................................................
.............................. CYCLE    3 ..............................
........................................................................

 iter      E             dE          RMSdq      gap      omega  full diag
   1    -71.2426623 -0.712427E+02  0.137E-01    3.10       0.0  T
   2    -71.2427628 -0.100462E-03  0.881E-02    3.12       1.0  T
   3    -71.2427805 -0.177837E-04  0.458E-02    3.11       1.0  T
   4    -71.2427902 -0.966605E-05  0.166E-02    3.11       1.0  T
   5    -71.2427997 -0.949401E-05  0.438E-03    3.11       3.5  T
   6    -71.2427998 -0.114310E-06  0.241E-03    3.11       6.3  T
   7    -71.2427999 -0.498599E-07  0.105E-03    3.11      14.5  T
   8    -71.2427999 -0.166235E-07  0.584E-04    3.11      26.1  T
   9    -71.2427999 -0.149900E-08  0.200E-04    3.11      76.1  T
     SCC iter.                  ...        0 min,  0.056 sec
     gradient                   ...        0 min,  0.027 sec
 * total energy  :   -70.3123431 Eh     change       -0.2619315E-02 Eh
   gradient norm :     0.0144867 Eh/α   predicted    -0.2392695E-02 (  -8.65%)
   displ. norm   :     0.2095270 α      lambda       -0.7723179E-03
   maximum displ.:     0.0814209 α      in ANC's #5, #9, #11, ...

........................................................................
.............................. CYCLE    4 ..............................
........................................................................

 iter      E             dE          RMSdq      gap      omega  full diag
   1    -71.2440869 -0.712441E+02  0.636E-02    3.11       0.0  T
   2    -71.2440964 -0.950772E-05  0.378E-02    3.11       1.0  T
   3    -71.2440959  0.542466E-06  0.155E-02    3.10       1.0  T
   4    -71.2440976 -0.165308E-05  0.471E-03    3.10       3.2  T
   5    -71.2440981 -0.572191E-06  0.196E-03    3.10       7.8  T
   6    -71.2440982 -0.523888E-07  0.805E-04    3.10      18.9  T
   7    -71.2440982 -0.940558E-08  0.231E-04    3.10      65.9  T
     SCC iter.                  ...        0 min,  0.055 sec
     gradient                   ...        0 min,  0.027 sec
 * total energy  :   -70.3129427 Eh     change       -0.5995466E-03 Eh
   gradient norm :     0.0084892 Eh/α   predicted    -0.4031496E-03 ( -32.76%)
   displ. norm   :     0.3582654 α      lambda       -0.8237015E-03
   maximum displ.:     0.1507166 α      in ANC's #5, #9, #11, ...

........................................................................
.............................. CYCLE    5 ..............................
........................................................................

 iter      E             dE          RMSdq      gap      omega  full diag
   1    -71.2425453 -0.712425E+02  0.904E-02    3.10       0.0  T
   2    -71.2425526 -0.729673E-05  0.530E-02    3.09       1.0  T
   3    -71.2425506  0.202581E-05  0.136E-02    3.09       1.1  T
   4    -71.2425535 -0.287697E-05  0.477E-03    3.09       3.2  T
   5    -71.2425540 -0.514330E-06  0.196E-03    3.09       7.8  T
   6    -71.2425540 -0.556789E-07  0.744E-04    3.09      20.5  T
   7    -71.2425540 -0.103846E-07  0.246E-04    3.09      61.9  T
     SCC iter.                  ...        0 min,  0.055 sec
     gradient                   ...        0 min,  0.027 sec
 * total energy  :   -70.3134981 Eh     change       -0.5554736E-03 Eh
   gradient norm :     0.0074852 Eh/α   predicted    -0.4647169E-03 ( -16.34%)
   displ. norm   :     0.2639491 α      lambda       -0.3221771E-03
   maximum displ.:     0.1178712 α      in ANC's #5, #1, #9, ...

........................................................................
.............................. CYCLE    6 ..............................
........................................................................

 iter      E             dE          RMSdq      gap      omega  full diag
   1    -71.2418843 -0.712419E+02  0.529E-02    3.09       0.0  T
   2    -71.2418855 -0.127600E-05  0.307E-02    3.08       1.0  T
   3    -71.2418843  0.127448E-05  0.686E-03    3.08       2.2  T
   4    -71.2418859 -0.167226E-05  0.214E-03    3.08       7.1  T
   5    -71.2418860 -0.562249E-07  0.916E-04    3.08      16.6  T
   6    -71.2418860 -0.107356E-07  0.315E-04    3.08      48.4  T
     SCC iter.                  ...        0 min,  0.014 sec
     gradient                   ...        0 min,  0.066 sec
 * total energy  :   -70.3137300 Eh     change       -0.2318135E-03 Eh
   gradient norm :     0.0068198 Eh/α   predicted    -0.1723328E-03 ( -25.66%)
   displ. norm   :     0.2420676 α      lambda       -0.2339684E-03
   maximum displ.:     0.1111784 α      in ANC's #1, #5, #3, ...

........................................................................
.............................. CYCLE    7 ..............................
........................................................................

 iter      E             dE          RMSdq      gap      omega  full diag
   1    -71.2423920 -0.712424E+02  0.399E-02    3.08       0.0  T
   2    -71.2423943 -0.227514E-05  0.231E-02    3.08       1.0  T
   3    -71.2423935  0.786804E-06  0.869E-03    3.08       1.8  T
   4    -71.2423947 -0.120736E-05  0.234E-03    3.08       6.5  T
   5    -71.2423948 -0.140200E-06  0.849E-04    3.08      18.0  T
   6    -71.2423948 -0.438527E-08  0.433E-04    3.08      35.2  T
     SCC iter.                  ...        0 min,  0.014 sec
     gradient                   ...        0 min,  0.060 sec
 * total energy  :   -70.3139022 Eh     change       -0.1722667E-03 Eh
   gradient norm :     0.0047246 Eh/α   predicted    -0.1238505E-03 ( -28.11%)
   displ. norm   :     0.2302422 α      lambda       -0.1880691E-03
   maximum displ.:     0.1254580 α      in ANC's #1, #5, #3, ...

........................................................................
.............................. CYCLE    8 ..............................
........................................................................

 iter      E             dE          RMSdq      gap      omega  full diag
   1    -71.2433369 -0.712433E+02  0.366E-02    3.08       0.0  T
   2    -71.2433392 -0.232381E-05  0.215E-02    3.08       1.0  T
   3    -71.2433388  0.458611E-06  0.813E-03    3.08       1.9  T
   4    -71.2433396 -0.814920E-06  0.229E-03    3.08       6.7  T
   5    -71.2433397 -0.126785E-06  0.851E-04    3.08      17.9  T
   6    -71.2433397 -0.511257E-08  0.429E-04    3.08      35.5  T
     SCC iter.                  ...        0 min,  0.014 sec
     gradient                   ...        0 min,  0.027 sec
 * total energy  :   -70.3140444 Eh     change       -0.1421914E-03 Eh
   gradient norm :     0.0037978 Eh/α   predicted    -0.9902098E-04 ( -30.36%)
   displ. norm   :     0.2465451 α      lambda       -0.1694705E-03
   maximum displ.:     0.1447106 α      in ANC's #1, #3, #16, ...

........................................................................
.............................. CYCLE    9 ..............................
........................................................................

 iter      E             dE          RMSdq      gap      omega  full diag
   1    -71.2439500 -0.712440E+02  0.437E-02    3.09       0.0  T
   2    -71.2439515 -0.151353E-05  0.259E-02    3.09       1.0  T
   3    -71.2439511  0.395822E-06  0.610E-03    3.09       2.5  T
   4    -71.2439518 -0.651557E-06  0.174E-03    3.09       8.8  T
   5    -71.2439518 -0.533584E-07  0.867E-04    3.09      17.6  T
   6    -71.2439518 -0.552663E-08  0.362E-04    3.09      42.1  T
     SCC iter.                  ...        0 min,  0.014 sec
     gradient                   ...        0 min,  0.027 sec
 * total energy  :   -70.3141776 Eh     change       -0.1331774E-03 Eh
   gradient norm :     0.0044105 Eh/α   predicted    -0.8989066E-04 ( -32.50%)
   displ. norm   :     0.2873517 α      lambda       -0.1760748E-03
   maximum displ.:     0.1735952 α      in ANC's #1, #3, #16, ...

........................................................................
.............................. CYCLE   10 ..............................
........................................................................

 iter      E             dE          RMSdq      gap      omega  full diag
   1    -71.2440077 -0.712440E+02  0.571E-02    3.10       0.0  T
   2    -71.2440087 -0.978441E-06  0.337E-02    3.10       1.0  T
   3    -71.2440085  0.241796E-06  0.483E-03    3.10       3.2  T
   4    -71.2440090 -0.517882E-06  0.171E-03    3.10       8.9  T
   5    -71.2440090 -0.113432E-07  0.107E-03    3.10      14.3  T
   6    -71.2440090 -0.236899E-07  0.310E-04    3.10      49.2  T
   7    -71.2440090 -0.205665E-08  0.150E-04    3.10     101.7  T
     SCC iter.                  ...        0 min,  0.016 sec
     gradient                   ...        0 min,  0.078 sec
 * total energy  :   -70.3143190 Eh     change       -0.1413788E-03 Eh
   gradient norm :     0.0049696 Eh/α   predicted    -0.9530704E-04 ( -32.59%)
   displ. norm   :     0.3241488 α      lambda       -0.1807632E-03
   maximum displ.:     0.2005669 α      in ANC's #1, #3, #4, ...

........................................................................
.............................. CYCLE   11 ..............................
........................................................................

 iter      E             dE          RMSdq      gap      omega  full diag
   1    -71.2436236 -0.712436E+02  0.681E-02    3.11       0.0  T
   2    -71.2436246 -0.100711E-05  0.399E-02    3.11       1.0  T
   3    -71.2436238  0.745514E-06  0.635E-03    3.11       2.4  T
   4    -71.2436250 -0.119183E-05  0.219E-03    3.10       7.0  T
   5    -71.2436250 -0.382160E-08  0.729E-04    3.11      20.9  T
   6    -71.2436251 -0.146468E-07  0.341E-04    3.11      44.7  T
     SCC iter.                  ...        0 min,  0.014 sec
     gradient                   ...        0 min,  0.078 sec
 * total energy  :   -70.3144637 Eh     change       -0.1447702E-03 Eh
   gradient norm :     0.0049535 Eh/α   predicted    -0.9988217E-04 ( -31.01%)
   displ. norm   :     0.3219931 α      lambda       -0.1616271E-03
   maximum displ.:     0.2063326 α      in ANC's #1, #3, #4, ...

........................................................................
.............................. CYCLE   12 ..............................
........................................................................

 iter      E             dE          RMSdq      gap      omega  full diag
   1    -71.2432964 -0.712433E+02  0.675E-02    3.11       0.0  T
   2    -71.2432977 -0.131917E-05  0.394E-02    3.10       1.0  T
   3    -71.2432967  0.941413E-06  0.708E-03    3.10       2.2  T
   4    -71.2432981 -0.135595E-05  0.261E-03    3.10       5.8  T
   5    -71.2432982 -0.100062E-06  0.106E-03    3.10      14.4  T
   6    -71.2432982 -0.110614E-07  0.430E-04    3.10      35.4  T
   7    -71.2432982 -0.315219E-08  0.207E-04    3.10      73.7  T
     SCC iter.                  ...        0 min,  0.016 sec
     gradient                   ...        0 min,  0.078 sec
 * total energy  :   -70.3145927 Eh     change       -0.1289235E-03 Eh
   gradient norm :     0.0044348 Eh/α   predicted    -0.8919684E-04 ( -30.81%)
   displ. norm   :     0.2887597 α      lambda       -0.1324151E-03
   maximum displ.:     0.1933259 α      in ANC's #1, #3, #4, ...

........................................................................
.............................. CYCLE   13 ..............................
........................................................................

 iter      E             dE          RMSdq      gap      omega  full diag
   1    -71.2433979 -0.712434E+02  0.574E-02    3.10       0.0  T
   2    -71.2433992 -0.128153E-05  0.334E-02    3.10       1.0  T
   3    -71.2433984  0.730982E-06  0.640E-03    3.10       2.4  T
   4    -71.2433994 -0.982164E-06  0.264E-03    3.09       5.8  T
   5    -71.2433996 -0.157850E-06  0.105E-03    3.09      14.5  T
   6    -71.2433996 -0.132054E-07  0.413E-04    3.10      36.9  T
   7    -71.2433996 -0.212508E-08  0.198E-04    3.10      77.0  T
     SCC iter.                  ...        0 min,  0.016 sec
     gradient                   ...        0 min,  0.079 sec
 * total energy  :   -70.3147003 Eh     change       -0.1075946E-03 Eh
   gradient norm :     0.0036059 Eh/α   predicted    -0.7173090E-04 ( -33.33%)
   displ. norm   :     0.2609342 α      lambda       -0.1146644E-03
   maximum displ.:     0.1817582 α      in ANC's #1, #3, #4, ...

........................................................................
.............................. CYCLE   14 ..............................
........................................................................

 iter      E             dE          RMSdq      gap      omega  full diag
   1    -71.2438182 -0.712438E+02  0.479E-02    3.09       0.0  T
   2    -71.2438192 -0.944331E-06  0.280E-02    3.09       1.0  T
   3    -71.2438185  0.642250E-06  0.539E-03    3.09       2.8  T
   4    -71.2438193 -0.810184E-06  0.227E-03    3.08       6.7  T
   5    -71.2438195 -0.133517E-06  0.875E-04    3.09      17.4  T
   6    -71.2438195 -0.868022E-08  0.348E-04    3.09      43.8  T
     SCC iter.                  ...        0 min,  0.014 sec
     gradient                   ...        0 min,  0.078 sec
 * total energy  :   -70.3147967 Eh     change       -0.9646768E-04 Eh
   gradient norm :     0.0029758 Eh/α   predicted    -0.6123910E-04 ( -36.52%)
   displ. norm   :     0.2607633 α      lambda       -0.1144405E-03
   maximum displ.:     0.1856136 α      in ANC's #1, #3, #8, ...

........................................................................
.............................. CYCLE   15 ..............................
........................................................................

 iter      E             dE          RMSdq      gap      omega  full diag
   1    -71.2442945 -0.712443E+02  0.457E-02    3.08       0.0  T
   2    -71.2442952 -0.708181E-06  0.269E-02    3.08       1.0  T
   3    -71.2442944  0.858926E-06  0.513E-03    3.08       3.0  T
   4    -71.2442955 -0.108717E-05  0.176E-03    3.08       8.7  T
   5    -71.2442955 -0.554334E-07  0.710E-04    3.08      21.5  T
   6    -71.2442955 -0.398599E-08  0.293E-04    3.08      52.1  T
     SCC iter.                  ...        0 min,  0.014 sec
     gradient                   ...        0 min,  0.072 sec
 * total energy  :   -70.3148963 Eh     change       -0.9952854E-04 Eh
   gradient norm :     0.0030902 Eh/α   predicted    -0.6111398E-04 ( -38.60%)
   displ. norm   :     0.2934166 α      lambda       -0.1302637E-03
   maximum displ.:     0.2096070 α      in ANC's #1, #3, #8, ...

........................................................................
.............................. CYCLE   16 ..............................
........................................................................

 iter      E             dE          RMSdq      gap      omega  full diag
   1    -71.2445911 -0.712446E+02  0.517E-02    3.08       0.0  T
   2    -71.2445918 -0.739234E-06  0.306E-02    3.07       1.0  T
   3    -71.2445905  0.134614E-05  0.591E-03    3.07       2.6  T
   4    -71.2445922 -0.169112E-05  0.158E-03    3.07       9.7  T
   5    -71.2445922 -0.145301E-07  0.708E-04    3.07      21.5  T
   6    -71.2445922 -0.644485E-08  0.272E-04    3.07      56.1  T
     SCC iter.                  ...        0 min,  0.014 sec
     gradient                   ...        0 min,  0.072 sec
 * total energy  :   -70.3150117 Eh     change       -0.1154432E-03 Eh
   gradient norm :     0.0036970 Eh/α   predicted    -0.7074184E-04 ( -38.72%)
   displ. norm   :     0.3436859 α      lambda       -0.1525877E-03
   maximum displ.:     0.2448029 α      in ANC's #1, #3, #6, ...

........................................................................
.............................. CYCLE   17 ..............................
........................................................................

 iter      E             dE          RMSdq      gap      omega  full diag
   1    -71.2446176 -0.712446E+02  0.622E-02    3.08       0.0  T
   2    -71.2446186 -0.993064E-06  0.368E-02    3.08       1.0  T
   3    -71.2446164  0.212923E-05  0.737E-03    3.08       2.1  T
   4    -71.2446191 -0.263324E-05  0.184E-03    3.08       8.3  T
   5    -71.2446191 -0.156461E-07  0.854E-04    3.08      17.9  T
   6    -71.2446191 -0.141702E-07  0.315E-04    3.08      48.3  T
     SCC iter.                  ...        0 min,  0.014 sec
     gradient                   ...        0 min,  0.078 sec
 * total energy  :   -70.3151468 Eh     change       -0.1351129E-03 Eh
   gradient norm :     0.0041040 Eh/α   predicted    -0.8530764E-04 ( -36.86%)
   displ. norm   :     0.3796175 α      lambda       -0.1621984E-03
   maximum displ.:     0.2709316 α      in ANC's #1, #3, #10, ...

........................................................................
.............................. CYCLE   18 ..............................
........................................................................

 iter      E             dE          RMSdq      gap      omega  full diag
   1    -71.2443056 -0.712443E+02  0.698E-02    3.09       0.0  T
   2    -71.2443068 -0.119892E-05  0.413E-02    3.09       1.0  T
   3    -71.2443040  0.282299E-05  0.849E-03    3.09       1.8  T
   4    -71.2443075 -0.346325E-05  0.208E-03    3.09       7.3  T
   5    -71.2443075 -0.191726E-07  0.934E-04    3.09      16.3  T
   6    -71.2443075 -0.197073E-07  0.348E-04    3.09      43.8  T
     SCC iter.                  ...        0 min,  0.014 sec
     gradient                   ...        0 min,  0.069 sec
 * total energy  :   -70.3152883 Eh     change       -0.1414860E-03 Eh
   gradient norm :     0.0038988 Eh/α   predicted    -0.9278822E-04 ( -34.42%)
   displ. norm   :     0.3647171 α      lambda       -0.1469513E-03
   maximum displ.:     0.2636260 α      in ANC's #1, #3, #10, ...

........................................................................
.............................. CYCLE   19 ..............................
........................................................................

 iter      E             dE          RMSdq      gap      omega  full diag
   1    -71.2442795 -0.712443E+02  0.675E-02    3.10       0.0  T
   2    -71.2442806 -0.109415E-05  0.398E-02    3.10       1.0  T
   3    -71.2442779  0.269968E-05  0.830E-03    3.11       1.8  T
   4    -71.2442812 -0.331181E-05  0.197E-03    3.10       7.7  T
   5    -71.2442812 -0.992783E-08  0.823E-04    3.10      18.5  T
   6    -71.2442812 -0.160100E-07  0.325E-04    3.10      46.9  T
     SCC iter.                  ...        0 min,  0.014 sec
     gradient                   ...        0 min,  0.027 sec
 * total energy  :   -70.3154154 Eh     change       -0.1271166E-03 Eh
   gradient norm :     0.0031766 Eh/α   predicted    -0.8325075E-04 ( -34.51%)
   displ. norm   :     0.3175787 α      lambda       -0.1213131E-03
   maximum displ.:     0.2346258 α      in ANC's #1, #3, #4, ...

........................................................................
.............................. CYCLE   20 ..............................
........................................................................

 iter      E             dE          RMSdq      gap      omega  full diag
   1    -71.2442254 -0.712442E+02  0.579E-02    3.12       0.0  T
   2    -71.2442262 -0.789853E-06  0.340E-02    3.12       1.0  T
   3    -71.2442245  0.176838E-05  0.680E-03    3.12       2.2  T
   4    -71.2442267 -0.220580E-05  0.161E-03    3.12       9.4  T
   5    -71.2442267 -0.522741E-08  0.637E-04    3.12      23.9  T
   6    -71.2442267 -0.701759E-08  0.279E-04    3.12      54.7  T
     SCC iter.                  ...        0 min,  0.014 sec
     gradient                   ...        0 min,  0.027 sec
 * total energy  :   -70.3155216 Eh     change       -0.1061682E-03 Eh
   gradient norm :     0.0021900 Eh/α   predicted    -0.6677676E-04 ( -37.10%)
   displ. norm   :     0.2783091 α      lambda       -0.1069539E-03
   maximum displ.:     0.2077344 α      in ANC's #1, #3, #4, ...
 * RMSD in coord.:     0.6955420 α      energy gain  -0.1528292E-01 Eh

generating ANC from exact Hessian ...
Using Lindh-Hessian (1995)
 Shifting diagonal of input Hessian by    9.8369631106038601E-003
 Lowest  eigenvalues of input Hessian
    0.000000    0.000000    0.000000    0.000000    0.000000    0.000000
    0.010000    0.010115    0.010375    0.010984    0.011493    0.011990
    0.012892    0.013171    0.013947    0.015520    0.015746    0.015928
 Highest eigenvalues
    2.052070    2.071792    2.146219    2.153523    2.253076    2.517644


........................................................................
.............................. CYCLE   21 ..............................
........................................................................

 iter      E             dE          RMSdq      gap      omega  full diag
   1    -71.2452350 -0.712452E+02  0.514E-02    3.13       0.0  T
   2    -71.2452357 -0.722443E-06  0.301E-02    3.13       1.0  T
   3    -71.2452347  0.102683E-05  0.545E-03    3.14       2.8  T
   4    -71.2452360 -0.132651E-05  0.145E-03    3.13      10.6  T
   5    -71.2452361 -0.213797E-07  0.666E-04    3.13      22.9  T
   6    -71.2452361 -0.231958E-08  0.278E-04    3.13      54.8  T
     SCC iter.                  ...        0 min,  0.014 sec
     gradient                   ...        0 min,  0.074 sec
 * total energy  :   -70.3156137 Eh     change       -0.9213576E-04 Eh
   gradient norm :     0.0027509 Eh/α   predicted     0.0000000E+00 (-100.00%)
   displ. norm   :     0.0509773 α      lambda       -0.4461503E-04
   maximum displ.:     0.0354299 α      in ANC's #1, #10, #4, ...

........................................................................
.............................. CYCLE   22 ..............................
........................................................................

 iter      E             dE          RMSdq      gap      omega  full diag
   1    -71.2452511 -0.712453E+02  0.104E-02    3.13       0.0  T
   2    -71.2452512 -0.143703E-06  0.614E-03    3.13       2.5  T
   3    -71.2452511  0.919370E-07  0.212E-03    3.13       7.2  T
   4    -71.2452512 -0.117157E-06  0.708E-04    3.13      21.5  T
   5    -71.2452513 -0.137551E-07  0.274E-04    3.13      55.6  T
     SCC iter.                  ...        0 min,  0.012 sec
     gradient                   ...        0 min,  0.072 sec
 * total energy  :   -70.3156533 Eh     change       -0.3962568E-04 Eh
   gradient norm :     0.0013496 Eh/α   predicted    -0.2240105E-04 ( -43.47%)
   displ. norm   :     0.2704735 α      lambda       -0.1197482E-03
   maximum displ.:     0.1715934 α      in ANC's #1, #10, #4, ...

........................................................................
.............................. CYCLE   23 ..............................
........................................................................

 iter      E             dE          RMSdq      gap      omega  full diag
   1    -71.2449257 -0.712449E+02  0.516E-02    3.13       0.0  T
   2    -71.2449277 -0.208105E-05  0.305E-02    3.13       1.0  T
   3    -71.2449261  0.165460E-05  0.896E-03    3.13       1.7  T
   4    -71.2449281 -0.206176E-05  0.286E-03    3.13       5.3  T
   5    -71.2449284 -0.201400E-06  0.119E-03    3.13      12.8  T
   6    -71.2449284 -0.193064E-07  0.486E-04    3.13      31.4  T
   7    -71.2449284 -0.341294E-08  0.223E-04    3.13      68.5  T
     SCC iter.                  ...        0 min,  0.017 sec
     gradient                   ...        0 min,  0.072 sec
 * total energy  :   -70.3157673 Eh     change       -0.1139616E-03 Eh
   gradient norm :     0.0043141 Eh/α   predicted    -0.6183072E-04 ( -45.74%)
   displ. norm   :     0.1267370 α      lambda       -0.5742181E-04
   maximum displ.:     0.0852868 α      in ANC's #1, #4, #3, ...

........................................................................
.............................. CYCLE   24 ..............................
........................................................................

 iter      E             dE          RMSdq      gap      omega  full diag
   1    -71.2450110 -0.712450E+02  0.205E-02    3.13       0.0  T
   2    -71.2450111 -0.135685E-06  0.121E-02    3.13       1.3  T
   3    -71.2450110  0.114492E-06  0.238E-03    3.13       6.4  T
   4    -71.2450112 -0.156008E-06  0.772E-04    3.13      19.7  T
   5    -71.2450112 -0.876486E-08  0.329E-04    3.13      46.4  T
     SCC iter.                  ...        0 min,  0.012 sec
     gradient                   ...        0 min,  0.027 sec
 * total energy  :   -70.3158190 Eh     change       -0.5168942E-04 Eh
   gradient norm :     0.0039786 Eh/α   predicted    -0.2917829E-04 ( -43.55%)
   displ. norm   :     0.2080789 α      lambda       -0.9891464E-04
   maximum displ.:     0.1392972 α      in ANC's #1, #3, #4, ...

........................................................................
.............................. CYCLE   25 ..............................
........................................................................

 iter      E             dE          RMSdq      gap      omega  full diag
   1    -71.2453523 -0.712454E+02  0.321E-02    3.13       0.0  T
   2    -71.2453526 -0.318635E-06  0.189E-02    3.13       1.0  T
   3    -71.2453520  0.644395E-06  0.448E-03    3.13       3.4  T
   4    -71.2453528 -0.791066E-06  0.103E-03    3.13      14.8  T
   5    -71.2453528 -0.700119E-08  0.487E-04    3.13      31.3  T
   6    -71.2453528 -0.240250E-08  0.211E-04    3.13      72.3  T
     SCC iter.                  ...        0 min,  0.014 sec
     gradient                   ...        0 min,  0.084 sec
 * total energy  :   -70.3159013 Eh     change       -0.8225901E-04 Eh
   gradient norm :     0.0021252 Eh/α   predicted    -0.5160079E-04 ( -37.27%)
   displ. norm   :     0.2476945 α      lambda       -0.8837131E-04
   maximum displ.:     0.1690902 α      in ANC's #1, #3, #4, ...

........................................................................
.............................. CYCLE   26 ..............................
........................................................................

 iter      E             dE          RMSdq      gap      omega  full diag
   1    -71.2455748 -0.712456E+02  0.363E-02    3.14       0.0  T
   2    -71.2455752 -0.389890E-06  0.214E-02    3.14       1.0  T
   3    -71.2455740  0.122902E-05  0.601E-03    3.14       2.5  T
   4    -71.2455755 -0.147100E-05  0.118E-03    3.14      13.0  T
   5    -71.2455755  0.216522E-08  0.531E-04    3.14      28.7  T
   6    -71.2455755 -0.732813E-08  0.205E-04    3.14      74.2  T
     SCC iter.                  ...        0 min,  0.014 sec
     gradient                   ...        0 min,  0.078 sec
 * total energy  :   -70.3159739 Eh     change       -0.7262904E-04 Eh
   gradient norm :     0.0014418 Eh/α   predicted    -0.4689687E-04 ( -35.43%)
   displ. norm   :     0.3129900 α      lambda       -0.6112387E-04
   maximum displ.:     0.2189370 α      in ANC's #1, #3, #2, ...

........................................................................
.............................. CYCLE   27 ..............................
........................................................................

 iter      E             dE          RMSdq      gap      omega  full diag
   1    -71.2458336 -0.712458E+02  0.442E-02    3.15       0.0  T
   2    -71.2458341 -0.577850E-06  0.259E-02    3.15       1.0  T
   3    -71.2458324  0.176308E-05  0.738E-03    3.15       2.1  T
   4    -71.2458345 -0.212440E-05  0.154E-03    3.15       9.9  T
   5    -71.2458345  0.869321E-08  0.666E-04    3.15      22.9  T
   6    -71.2458345 -0.163779E-07  0.228E-04    3.15      67.0  T
     SCC iter.                  ...        0 min,  0.014 sec
     gradient                   ...        0 min,  0.078 sec
 * total energy  :   -70.3160502 Eh     change       -0.7635564E-04 Eh
   gradient norm :     0.0019924 Eh/α   predicted    -0.3189477E-04 ( -58.23%)
   displ. norm   :     0.2176077 α      lambda       -0.4562293E-04
   maximum displ.:     0.1573561 α      in ANC's #1, #3, #2, ...

........................................................................
.............................. CYCLE   28 ..............................
........................................................................

 iter      E             dE          RMSdq      gap      omega  full diag
   1    -71.2461933 -0.712462E+02  0.301E-02    3.16       0.0  T
   2    -71.2461936 -0.286735E-06  0.174E-02    3.16       1.0  T
   3    -71.2461930  0.617237E-06  0.445E-03    3.16       3.4  T
   4    -71.2461937 -0.768382E-06  0.107E-03    3.16      14.3  T
   5    -71.2461937  0.156108E-08  0.440E-04    3.16      34.6  T
   6    -71.2461937 -0.516050E-08  0.172E-04    3.16      88.5  T
     SCC iter.                  ...        0 min,  0.014 sec
     gradient                   ...        0 min,  0.072 sec
 * total energy  :   -70.3161135 Eh     change       -0.6330934E-04 Eh
   gradient norm :     0.0018124 Eh/α   predicted    -0.2329182E-04 ( -63.21%)
   displ. norm   :     0.2388841 α      lambda       -0.5919950E-04
   maximum displ.:     0.1716626 α      in ANC's #1, #3, #2, ...

........................................................................
.............................. CYCLE   29 ..............................
........................................................................

 iter      E             dE          RMSdq      gap      omega  full diag
   1    -71.2463354 -0.712463E+02  0.348E-02    3.17       0.0  T
   2    -71.2463358 -0.398326E-06  0.201E-02    3.17       1.0  T
   3    -71.2463350  0.797336E-06  0.489E-03    3.17       3.1  T
   4    -71.2463360 -0.988530E-06  0.133E-03    3.17      11.5  T
   5    -71.2463360 -0.104096E-07  0.517E-04    3.17      29.5  T
   6    -71.2463360 -0.363013E-08  0.223E-04    3.17      68.4  T
     SCC iter.                  ...        0 min,  0.014 sec
     gradient                   ...        0 min,  0.073 sec
 * total energy  :   -70.3161958 Eh     change       -0.8221872E-04 Eh
   gradient norm :     0.0015917 Eh/α   predicted    -0.3035076E-04 ( -63.09%)
   displ. norm   :     0.3410351 α      lambda       -0.8378601E-04
   maximum displ.:     0.2416993 α      in ANC's #1, #3, #2, ...

........................................................................
.............................. CYCLE   30 ..............................
........................................................................

 iter      E             dE          RMSdq      gap      omega  full diag
   1    -71.2459636 -0.712460E+02  0.513E-02    3.18       0.0  T
   2    -71.2459646 -0.927023E-06  0.298E-02    3.18       1.0  T
   3    -71.2459628  0.177309E-05  0.724E-03    3.18       2.1  T
   4    -71.2459650 -0.215931E-05  0.214E-03    3.18       7.1  T
   5    -71.2459650 -0.612186E-07  0.843E-04    3.18      18.1  T
   6    -71.2459650 -0.620922E-08  0.355E-04    3.18      42.9  T
     SCC iter.                  ...        0 min,  0.014 sec
     gradient                   ...        0 min,  0.027 sec
 * total energy  :   -70.3163072 Eh     change       -0.1113973E-03 Eh
   gradient norm :     0.0014726 Eh/α   predicted    -0.4405999E-04 ( -60.45%)
   displ. norm   :     0.3906452 α      lambda       -0.8399125E-04
   maximum displ.:     0.2793054 α      in ANC's #1, #3, #2, ...

........................................................................
.............................. CYCLE   31 ..............................
........................................................................

 iter      E             dE          RMSdq      gap      omega  full diag
   1    -71.2456481 -0.712456E+02  0.592E-02    3.18       0.0  T
   2    -71.2456493 -0.120145E-05  0.344E-02    3.18       1.0  T
   3    -71.2456471  0.215190E-05  0.810E-03    3.18       1.9  T
   4    -71.2456497 -0.259339E-05  0.263E-03    3.18       5.8  T
   5    -71.2456498 -0.120091E-06  0.101E-03    3.18      15.1  T
   6    -71.2456499 -0.967523E-08  0.409E-04    3.18      37.3  T
   7    -71.2456499 -0.297544E-08  0.194E-04    3.18      78.4  T
     SCC iter.                  ...        0 min,  0.016 sec
     gradient                   ...        0 min,  0.078 sec
 * total energy  :   -70.3164155 Eh     change       -0.1083056E-03 Eh
   gradient norm :     0.0016945 Eh/α   predicted    -0.4484435E-04 ( -58.59%)
   displ. norm   :     0.3215324 α      lambda       -0.6320960E-04
   maximum displ.:     0.2361688 α      in ANC's #1, #3, #2, ...

........................................................................
.............................. CYCLE   32 ..............................
........................................................................

 iter      E             dE          RMSdq      gap      omega  full diag
   1    -71.2458382 -0.712458E+02  0.485E-02    3.19       0.0  T
   2    -71.2458389 -0.775409E-06  0.282E-02    3.18       1.0  T
   3    -71.2458376  0.136474E-05  0.647E-03    3.19       2.4  T
   4    -71.2458392 -0.164856E-05  0.221E-03    3.18       6.9  T
   5    -71.2458393 -0.869819E-07  0.847E-04    3.18      18.0  T
   6    -71.2458393 -0.714425E-08  0.338E-04    3.18      45.1  T
     SCC iter.                  ...        0 min,  0.014 sec
     gradient                   ...        0 min,  0.073 sec
 * total energy  :   -70.3165004 Eh     change       -0.8489845E-04 Eh
   gradient norm :     0.0015876 Eh/α   predicted    -0.3305773E-04 ( -61.06%)
   displ. norm   :     0.2536103 α      lambda       -0.5398862E-04
   maximum displ.:     0.1923321 α      in ANC's #1, #3, #2, ...

........................................................................
.............................. CYCLE   33 ..............................
........................................................................

 iter      E             dE          RMSdq      gap      omega  full diag
   1    -71.2464792 -0.712465E+02  0.386E-02    3.19       0.0  T
   2    -71.2464796 -0.429325E-06  0.224E-02    3.18       1.0  T
   3    -71.2464790  0.545626E-06  0.447E-03    3.19       3.4  T
   4    -71.2464797 -0.670618E-06  0.183E-03    3.18       8.3  T
   5    -71.2464798 -0.646684E-07  0.614E-04    3.18      24.8  T
   6    -71.2464798 -0.574467E-08  0.252E-04    3.18      60.4  T
     SCC iter.                  ...        0 min,  0.015 sec
     gradient                   ...        0 min,  0.079 sec
 * total energy  :   -70.3165753 Eh     change       -0.7489905E-04 Eh
   gradient norm :     0.0012094 Eh/α   predicted    -0.2776736E-04 ( -62.93%)
   displ. norm   :     0.2452106 α      lambda       -0.5654793E-04
   maximum displ.:     0.1893655 α      in ANC's #1, #3, #2, ...

........................................................................
.............................. CYCLE   34 ..............................
........................................................................

 iter      E             dE          RMSdq      gap      omega  full diag
   1    -71.2468103 -0.712468E+02  0.386E-02    3.19       0.0  T
   2    -71.2468107 -0.465856E-06  0.224E-02    3.18       1.0  T
   3    -71.2468101  0.626484E-06  0.457E-03    3.18       3.3  T
   4    -71.2468109 -0.784246E-06  0.179E-03    3.18       8.5  T
   5    -71.2468109 -0.502784E-07  0.578E-04    3.18      26.4  T
   6    -71.2468109 -0.388326E-08  0.257E-04    3.18      59.2  T
     SCC iter.                  ...        0 min,  0.014 sec
     gradient                   ...        0 min,  0.085 sec
 * total energy  :   -70.3166537 Eh     change       -0.7840663E-04 Eh
   gradient norm :     0.0011759 Eh/α   predicted    -0.2903095E-04 ( -62.97%)
   displ. norm   :     0.2593708 α      lambda       -0.6158601E-04
   maximum displ.:     0.2027069 α      in ANC's #1, #2, #3, ...

........................................................................
.............................. CYCLE   35 ..............................
........................................................................

 iter      E             dE          RMSdq      gap      omega  full diag
   1    -71.2468483 -0.712468E+02  0.401E-02    3.19       0.0  T
   2    -71.2468488 -0.487588E-06  0.232E-02    3.18       1.0  T
   3    -71.2468485  0.337369E-06  0.423E-03    3.18       3.6  T
   4    -71.2468489 -0.474461E-06  0.184E-03    3.18       8.3  T
   5    -71.2468490 -0.407336E-07  0.617E-04    3.18      24.7  T
   6    -71.2468490 -0.101461E-07  0.250E-04    3.18      60.9  T
     SCC iter.                  ...        0 min,  0.014 sec
     gradient                   ...        0 min,  0.085 sec
 * total energy  :   -70.3167382 Eh     change       -0.8456919E-04 Eh
   gradient norm :     0.0010825 Eh/α   predicted    -0.3171844E-04 ( -62.49%)
   displ. norm   :     0.2681303 α      lambda       -0.6197106E-04
   maximum displ.:     0.2114172 α      in ANC's #1, #2, #3, ...

........................................................................
.............................. CYCLE   36 ..............................
........................................................................

 iter      E             dE          RMSdq      gap      omega  full diag
   1    -71.2469789 -0.712470E+02  0.419E-02    3.19       0.0  T
   2    -71.2469795 -0.621256E-06  0.243E-02    3.18       1.0  T
   3    -71.2469788  0.641606E-06  0.505E-03    3.18       3.0  T
   4    -71.2469797 -0.845999E-06  0.194E-03    3.18       7.9  T
   5    -71.2469797 -0.353622E-07  0.698E-04    3.18      21.8  T
   6    -71.2469797 -0.102324E-07  0.260E-04    3.18      58.6  T
     SCC iter.                  ...        0 min,  0.071 sec
     gradient                   ...        0 min,  0.028 sec
 * total energy  :   -70.3168237 Eh     change       -0.8546017E-04 Eh
   gradient norm :     0.0011782 Eh/α   predicted    -0.3197668E-04 ( -62.58%)
   displ. norm   :     0.2607268 α      lambda       -0.5825968E-04
   maximum displ.:     0.2080982 α      in ANC's #1, #2, #3, ...

........................................................................
.............................. CYCLE   37 ..............................
........................................................................

 iter      E             dE          RMSdq      gap      omega  full diag
   1    -71.2467548 -0.712468E+02  0.388E-02    3.19       0.0  T
   2    -71.2467553 -0.478995E-06  0.227E-02    3.18       1.0  T
   3    -71.2467547  0.578598E-06  0.475E-03    3.19       3.2  T
   4    -71.2467555 -0.759227E-06  0.174E-03    3.18       8.8  T
   5    -71.2467555 -0.182676E-07  0.667E-04    3.18      22.9  T
   6    -71.2467555 -0.123838E-07  0.243E-04    3.18      62.8  T
     SCC iter.                  ...        0 min,  0.071 sec
     gradient                   ...        0 min,  0.028 sec
 * total energy  :   -70.3169039 Eh     change       -0.8018983E-04 Eh
   gradient norm :     0.0008797 Eh/α   predicted    -0.3001425E-04 ( -62.57%)
   displ. norm   :     0.2473896 α      lambda       -0.5396722E-04
   maximum displ.:     0.1973432 α      in ANC's #1, #2, #4, ...

........................................................................
.............................. CYCLE   38 ..............................
........................................................................

 iter      E             dE          RMSdq      gap      omega  full diag
   1    -71.2467996 -0.712468E+02  0.390E-02    3.19       0.0  T
   2    -71.2468001 -0.478147E-06  0.229E-02    3.19       1.0  T
   3    -71.2467994  0.688045E-06  0.495E-03    3.19       3.1  T
   4    -71.2468003 -0.879338E-06  0.166E-03    3.19       9.2  T
   5    -71.2468003 -0.962672E-08  0.624E-04    3.19      24.4  T
   6    -71.2468003 -0.112037E-07  0.212E-04    3.19      71.9  T
     SCC iter.                  ...        0 min,  0.014 sec
     gradient                   ...        0 min,  0.085 sec
 * total energy  :   -70.3169776 Eh     change       -0.7372557E-04 Eh
   gradient norm :     0.0011016 Eh/α   predicted    -0.2771855E-04 ( -62.40%)
   displ. norm   :     0.2290268 α      lambda       -0.4780123E-04
   maximum displ.:     0.1856063 α      in ANC's #1, #2, #4, ...

........................................................................
.............................. CYCLE   39 ..............................
........................................................................

 iter      E             dE          RMSdq      gap      omega  full diag
   1    -71.2467784 -0.712468E+02  0.356E-02    3.19       0.0  T
   2    -71.2467787 -0.326825E-06  0.209E-02    3.19       1.0  T
   3    -71.2467779  0.768708E-06  0.467E-03    3.19       3.3  T
   4    -71.2467789 -0.948680E-06  0.132E-03    3.19      11.5  T
   5    -71.2467789 -0.226339E-08  0.451E-04    3.19      33.8  T
   6    -71.2467789 -0.502044E-08  0.198E-04    3.19      77.0  T
     SCC iter.                  ...        0 min,  0.014 sec
     gradient                   ...        0 min,  0.085 sec
 * total energy  :   -70.3170437 Eh     change       -0.6607203E-04 Eh
   gradient norm :     0.0007958 Eh/α   predicted    -0.2445828E-04 ( -62.98%)
   displ. norm   :     0.2023560 α      lambda       -0.4010483E-04
   maximum displ.:     0.1647298 α      in ANC's #1, #2, #4, ...

........................................................................
.............................. CYCLE   40 ..............................
........................................................................

 iter      E             dE          RMSdq      gap      omega  full diag
   1    -71.2467229 -0.712467E+02  0.338E-02    3.19       0.0  T
   2    -71.2467231 -0.257880E-06  0.199E-02    3.19       1.0  T
   3    -71.2467224  0.757281E-06  0.444E-03    3.19       3.4  T
   4    -71.2467233 -0.913361E-06  0.108E-03    3.19      14.1  T
   5    -71.2467233 -0.736648E-09  0.399E-04    3.19      38.2  T
   6    -71.2467233 -0.304296E-08  0.180E-04    3.19      84.8  T
     SCC iter.                  ...        0 min,  0.014 sec
     gradient                   ...        0 min,  0.083 sec
 * total energy  :   -70.3170998 Eh     change       -0.5612012E-04 Eh
   gradient norm :     0.0007303 Eh/α   predicted    -0.2041955E-04 ( -63.61%)
   displ. norm   :     0.1808321 α      lambda       -0.3574858E-04
   maximum displ.:     0.1488666 α      in ANC's #1, #2, #4, ...

........................................................................
.............................. CYCLE   41 ..............................
........................................................................

 iter      E             dE          RMSdq      gap      omega  full diag
   1    -71.2469736 -0.712470E+02  0.309E-02    3.19       0.0  T
   2    -71.2469738 -0.214731E-06  0.181E-02    3.19       1.0  T
   3    -71.2469731  0.617842E-06  0.397E-03    3.19       3.8  T
   4    -71.2469739 -0.745585E-06  0.901E-04    3.19      16.9  T
   5    -71.2469739 -0.154908E-08  0.375E-04    3.19      40.7  T
     SCC iter.                  ...        0 min,  0.069 sec
     gradient                   ...        0 min,  0.029 sec
 * total energy  :   -70.3171498 Eh     change       -0.5000706E-04 Eh
   gradient norm :     0.0007114 Eh/α   predicted    -0.1813588E-04 ( -63.73%)
   displ. norm   :     0.1720945 α      lambda       -0.3350333E-04
   maximum displ.:     0.1403118 α      in ANC's #1, #2, #4, ...

........................................................................
.............................. CYCLE   42 ..............................
........................................................................

 iter      E             dE          RMSdq      gap      omega  full diag
   1    -71.2469706 -0.712470E+02  0.312E-02    3.20       0.0  T
   2    -71.2469708 -0.212569E-06  0.184E-02    3.19       1.0  T
   3    -71.2469701  0.646785E-06  0.394E-03    3.20       3.9  T
   4    -71.2469709 -0.773238E-06  0.815E-04    3.19      18.7  T
   5    -71.2469709 -0.256316E-08  0.387E-04    3.19      39.4  T
     SCC iter.                  ...        0 min,  0.069 sec
     gradient                   ...        0 min,  0.028 sec
 * total energy  :   -70.3171970 Eh     change       -0.4714668E-04 Eh
   gradient norm :     0.0006719 Eh/α   predicted    -0.1697319E-04 ( -64.00%)
   displ. norm   :     0.1687541 α      lambda       -0.3300719E-04
   maximum displ.:     0.1370359 α      in ANC's #1, #2, #4, ...
 * RMSD in coord.:     0.7033341 α      energy gain  -0.1675382E-02 Eh

generating ANC from exact Hessian ...
Using Lindh-Hessian (1995)
 Shifting diagonal of input Hessian by    9.7775462595152580E-003
 Lowest  eigenvalues of input Hessian
    0.000000    0.000000    0.000000    0.000000    0.000000    0.000000
    0.010000    0.010080    0.010518    0.010948    0.011491    0.011890
    0.012885    0.013320    0.014074    0.015606    0.015775    0.015963
 Highest eigenvalues
    2.052566    2.073217    2.147593    2.151807    2.254805    2.512010


........................................................................
.............................. CYCLE   43 ..............................
........................................................................

 iter      E             dE          RMSdq      gap      omega  full diag
   1    -71.2471339 -0.712471E+02  0.301E-02    3.20       0.0  T
   2    -71.2471340 -0.197506E-06  0.177E-02    3.20       1.0  T
   3    -71.2471336  0.464353E-06  0.350E-03    3.20       4.4  T
   4    -71.2471342 -0.566401E-06  0.728E-04    3.20      20.9  T
   5    -71.2471342 -0.273167E-08  0.364E-04    3.20      41.9  T
     SCC iter.                  ...        0 min,  0.012 sec
     gradient                   ...        0 min,  0.079 sec
 * total energy  :   -70.3172443 Eh     change       -0.4732475E-04 Eh
   gradient norm :     0.0006766 Eh/α   predicted     0.0000000E+00 (-100.00%)
   displ. norm   :     0.0546722 α      lambda       -0.1487992E-04
   maximum displ.:     0.0505476 α      in ANC's #1, #12, #3, ...

........................................................................
.............................. CYCLE   44 ..............................
........................................................................

 iter      E             dE          RMSdq      gap      omega  full diag
   1    -71.2472320 -0.712472E+02  0.771E-03    3.20       0.0  T
   2    -71.2472320 -0.142658E-07  0.453E-03    3.20       3.4  T
   3    -71.2472320  0.205356E-07  0.821E-04    3.20      18.6  T
   4    -71.2472320 -0.254349E-07  0.223E-04    3.20      68.3  T
     SCC iter.                  ...        0 min,  0.009 sec
     gradient                   ...        0 min,  0.079 sec
 * total energy  :   -70.3172658 Eh     change       -0.2151988E-04 Eh
   gradient norm :     0.0004463 Eh/α   predicted    -0.7457551E-05 ( -65.35%)
   displ. norm   :     0.0872937 α      lambda       -0.2209429E-04
   maximum displ.:     0.0733220 α      in ANC's #1, #12, #3, ...

........................................................................
.............................. CYCLE   45 ..............................
........................................................................

 iter      E             dE          RMSdq      gap      omega  full diag
   1    -71.2472136 -0.712472E+02  0.134E-02    3.20       0.0  T
   2    -71.2472137 -0.368019E-07  0.786E-03    3.20       1.9  T
   3    -71.2472136  0.353472E-07  0.110E-03    3.20      13.9  T
   4    -71.2472137 -0.410316E-07  0.470E-04    3.20      32.5  T
   5    -71.2472137 -0.615613E-08  0.132E-04    3.20     115.1  T
     SCC iter.                  ...        0 min,  0.012 sec
     gradient                   ...        0 min,  0.085 sec
 * total energy  :   -70.3172976 Eh     change       -0.3177033E-04 Eh
   gradient norm :     0.0004326 Eh/α   predicted    -0.1123148E-04 ( -64.65%)
   displ. norm   :     0.1280876 α      lambda       -0.2953386E-04
   maximum displ.:     0.1044264 α      in ANC's #1, #12, #17, ...

........................................................................
.............................. CYCLE   46 ..............................
........................................................................

 iter      E             dE          RMSdq      gap      omega  full diag
   1    -71.2472104 -0.712472E+02  0.197E-02    3.20       0.0  T
   2    -71.2472105 -0.740393E-07  0.116E-02    3.20       1.3  T
   3    -71.2472104  0.631742E-07  0.150E-03    3.20      10.2  T
   4    -71.2472105 -0.730139E-07  0.738E-04    3.20      20.7  T
   5    -71.2472105 -0.144427E-07  0.202E-04    3.20      75.5  T
     SCC iter.                  ...        0 min,  0.012 sec
     gradient                   ...        0 min,  0.079 sec
 * total energy  :   -70.3173385 Eh     change       -0.4089648E-04 Eh
   gradient norm :     0.0004838 Eh/α   predicted    -0.1487859E-04 ( -63.62%)
   displ. norm   :     0.1483906 α      lambda       -0.3003701E-04
   maximum displ.:     0.1212477 α      in ANC's #1, #17, #3, ...

........................................................................
.............................. CYCLE   47 ..............................
........................................................................

 iter      E             dE          RMSdq      gap      omega  full diag
   1    -71.2472536 -0.712473E+02  0.234E-02    3.20       0.0  T
   2    -71.2472537 -0.925640E-07  0.138E-02    3.20       1.1  T
   3    -71.2472537  0.583087E-07  0.157E-03    3.20       9.7  T
   4    -71.2472537 -0.775047E-07  0.761E-04    3.20      20.1  T
   5    -71.2472538 -0.107705E-07  0.224E-04    3.20      68.0  T
     SCC iter.                  ...        0 min,  0.012 sec
     gradient                   ...        0 min,  0.079 sec
 * total energy  :   -70.3173797 Eh     change       -0.4118194E-04 Eh
   gradient norm :     0.0005371 Eh/α   predicted    -0.1516998E-04 ( -63.16%)
   displ. norm   :     0.1367559 α      lambda       -0.2495511E-04
   maximum displ.:     0.1139923 α      in ANC's #1, #17, #3, ...

........................................................................
.............................. CYCLE   48 ..............................
........................................................................

 iter      E             dE          RMSdq      gap      omega  full diag
   1    -71.2473199 -0.712473E+02  0.218E-02    3.20       0.0  T
   2    -71.2473200 -0.806042E-07  0.129E-02    3.20       1.2  T
   3    -71.2473199  0.995675E-07  0.176E-03    3.20       8.7  T
   4    -71.2473200 -0.124485E-06  0.638E-04    3.20      23.9  T
   5    -71.2473200 -0.580194E-08  0.217E-04    3.20      70.1  T
     SCC iter.                  ...        0 min,  0.069 sec
     gradient                   ...        0 min,  0.028 sec
 * total energy  :   -70.3174142 Eh     change       -0.3452422E-04 Eh
   gradient norm :     0.0005285 Eh/α   predicted    -0.1258388E-04 ( -63.55%)
   displ. norm   :     0.1095692 α      lambda       -0.1929543E-04
   maximum displ.:     0.0941642 α      in ANC's #1, #3, #17, ...

........................................................................
.............................. CYCLE   49 ..............................
........................................................................

 iter      E             dE          RMSdq      gap      omega  full diag
   1    -71.2475002 -0.712475E+02  0.183E-02    3.20       0.0  T
   2    -71.2475002 -0.538995E-07  0.108E-02    3.20       1.4  T
   3    -71.2475001  0.606641E-07  0.147E-03    3.20      10.4  T
   4    -71.2475002 -0.802737E-07  0.478E-04    3.20      31.9  T
   5    -71.2475002 -0.187197E-08  0.175E-04    3.20      87.0  T
     SCC iter.                  ...        0 min,  0.063 sec
     gradient                   ...        0 min,  0.028 sec
 * total energy  :   -70.3174414 Eh     change       -0.2724081E-04 Eh
   gradient norm :     0.0004550 Eh/α   predicted    -0.9707381E-05 ( -64.36%)
   displ. norm   :     0.0860490 α      lambda       -0.1538922E-04
   maximum displ.:     0.0763783 α      in ANC's #1, #3, #17, ...

........................................................................
.............................. CYCLE   50 ..............................
........................................................................

 iter      E             dE          RMSdq      gap      omega  full diag
   1    -71.2475987 -0.712476E+02  0.149E-02    3.20       0.0  T
   2    -71.2475987 -0.440403E-07  0.876E-03    3.20       1.7  T
   3    -71.2475987  0.537320E-07  0.137E-03    3.20      11.2  T
   4    -71.2475987 -0.690004E-07  0.367E-04    3.20      41.6  T
   5    -71.2475987 -0.158350E-08  0.164E-04    3.20      92.7  T
     SCC iter.                  ...        0 min,  0.063 sec
     gradient                   ...        0 min,  0.028 sec
 * total energy  :   -70.3174637 Eh     change       -0.2223191E-04 Eh
   gradient norm :     0.0003994 Eh/α   predicted    -0.7728005E-05 ( -65.24%)
   displ. norm   :     0.0714018 α      lambda       -0.1345526E-04
   maximum displ.:     0.0652078 α      in ANC's #1, #3, #8, ...

........................................................................
.............................. CYCLE   51 ..............................
........................................................................

 iter      E             dE          RMSdq      gap      omega  full diag
   1    -71.2476610 -0.712477E+02  0.127E-02    3.21       0.0  T
   2    -71.2476611 -0.355586E-07  0.746E-03    3.20       2.0  T
   3    -71.2476610  0.450637E-07  0.130E-03    3.21      11.7  T
   4    -71.2476611 -0.578125E-07  0.335E-04    3.20      45.5  T
   5    -71.2476611 -0.144357E-08  0.153E-04    3.20      99.4  T
     SCC iter.                  ...        0 min,  0.066 sec
     gradient                   ...        0 min,  0.028 sec
 * total energy  :   -70.3174833 Eh     change       -0.1959529E-04 Eh
   gradient norm :     0.0003885 Eh/α   predicted    -0.6745720E-05 ( -65.57%)
   displ. norm   :     0.0663952 α      lambda       -0.1298504E-04
   maximum displ.:     0.0610199 α      in ANC's #1, #8, #3, ...

........................................................................
.............................. CYCLE   52 ..............................
........................................................................

 iter      E             dE          RMSdq      gap      omega  full diag
   1    -71.2477066 -0.712477E+02  0.122E-02    3.21       0.0  T
   2    -71.2477067 -0.361258E-07  0.712E-03    3.21       2.1  T
   3    -71.2477066  0.343533E-07  0.124E-03    3.21      12.3  T
   4    -71.2477067 -0.453977E-07  0.380E-04    3.21      40.1  T
   5    -71.2477067 -0.232869E-08  0.155E-04    3.21      98.5  T
     SCC iter.                  ...        0 min,  0.012 sec
     gradient                   ...        0 min,  0.028 sec
 * total energy  :   -70.3175022 Eh     change       -0.1892235E-04 Eh
   gradient norm :     0.0003709 Eh/α   predicted    -0.6505625E-05 ( -65.62%)
   displ. norm   :     0.0685593 α      lambda       -0.1341838E-04
   maximum displ.:     0.0622023 α      in ANC's #1, #2, #8, ...

........................................................................
.............................. CYCLE   53 ..............................
........................................................................

 iter      E             dE          RMSdq      gap      omega  full diag
   1    -71.2477247 -0.712477E+02  0.125E-02    3.21       0.0  T
   2    -71.2477247 -0.377625E-07  0.724E-03    3.21       2.1  T
   3    -71.2477247  0.353286E-07  0.131E-03    3.21      11.6  T
   4    -71.2477248 -0.475368E-07  0.433E-04    3.21      35.2  T
   5    -71.2477248 -0.272533E-08  0.169E-04    3.21      90.0  T
     SCC iter.                  ...        0 min,  0.012 sec
     gradient                   ...        0 min,  0.085 sec
 * total energy  :   -70.3175217 Eh     change       -0.1953632E-04 Eh
   gradient norm :     0.0003824 Eh/α   predicted    -0.6725759E-05 ( -65.57%)
   displ. norm   :     0.0741054 α      lambda       -0.1417577E-04
   maximum displ.:     0.0659105 α      in ANC's #1, #2, #4, ...

........................................................................
.............................. CYCLE   54 ..............................
........................................................................

 iter      E             dE          RMSdq      gap      omega  full diag
   1    -71.2477257 -0.712477E+02  0.135E-02    3.21       0.0  T
   2    -71.2477258 -0.400168E-07  0.780E-03    3.21       2.0  T
   3    -71.2477257  0.320995E-07  0.130E-03    3.21      11.7  T
   4    -71.2477258 -0.442741E-07  0.493E-04    3.21      30.9  T
   5    -71.2477258 -0.353941E-08  0.152E-04    3.21     100.5  T
     SCC iter.                  ...        0 min,  0.012 sec
     gradient                   ...        0 min,  0.079 sec
 * total energy  :   -70.3175423 Eh     change       -0.2057777E-04 Eh
   gradient norm :     0.0003620 Eh/α   predicted    -0.7109221E-05 ( -65.45%)
   displ. norm   :     0.0812223 α      lambda       -0.1492752E-04
   maximum displ.:     0.0705744 α      in ANC's #1, #2, #4, ...

........................................................................
.............................. CYCLE   55 ..............................
........................................................................

 iter      E             dE          RMSdq      gap      omega  full diag
   1    -71.2477217 -0.712477E+02  0.145E-02    3.21       0.0  T
   2    -71.2477218 -0.494108E-07  0.835E-03    3.21       1.8  T
   3    -71.2477217  0.319319E-07  0.141E-03    3.21      10.8  T
   4    -71.2477218 -0.464447E-07  0.593E-04    3.21      25.7  T
   5    -71.2477218 -0.520782E-08  0.159E-04    3.21      95.6  T
     SCC iter.                  ...        0 min,  0.012 sec
     gradient                   ...        0 min,  0.085 sec
 * total energy  :   -70.3175639 Eh     change       -0.2165257E-04 Eh
   gradient norm :     0.0003656 Eh/α   predicted    -0.7490042E-05 ( -65.41%)
   displ. norm   :     0.0879833 α      lambda       -0.1551475E-04
   maximum displ.:     0.0749211 α      in ANC's #1, #2, #4, ...

........................................................................
.............................. CYCLE   56 ..............................
........................................................................

 iter      E             dE          RMSdq      gap      omega  full diag
   1    -71.2477091 -0.712477E+02  0.153E-02    3.21       0.0  T
   2    -71.2477091 -0.510719E-07  0.884E-03    3.21       1.7  T
   3    -71.2477091  0.339509E-07  0.143E-03    3.21      10.6  T
   4    -71.2477091 -0.491082E-07  0.606E-04    3.21      25.2  T
   5    -71.2477091 -0.476554E-08  0.150E-04    3.21     101.5  T
     SCC iter.                  ...        0 min,  0.012 sec
     gradient                   ...        0 min,  0.082 sec
 * total energy  :   -70.3175865 Eh     change       -0.2255166E-04 Eh
   gradient norm :     0.0003548 Eh/α   predicted    -0.7787496E-05 ( -65.47%)
   displ. norm   :     0.0949579 α      lambda       -0.1617322E-04
   maximum displ.:     0.0793152 α      in ANC's #1, #2, #4, ...

........................................................................
.............................. CYCLE   57 ..............................
........................................................................

 iter      E             dE          RMSdq      gap      omega  full diag
   1    -71.2476928 -0.712477E+02  0.163E-02    3.21       0.0  T
   2    -71.2476929 -0.653139E-07  0.945E-03    3.21       1.6  T
   3    -71.2476929  0.455669E-07  0.158E-03    3.21       9.7  T
   4    -71.2476929 -0.646046E-07  0.696E-04    3.21      21.9  T
   5    -71.2476929 -0.697808E-08  0.171E-04    3.21      88.9  T
     SCC iter.                  ...        0 min,  0.012 sec
     gradient                   ...        0 min,  0.079 sec
 * total energy  :   -70.3176101 Eh     change       -0.2359270E-04 Eh
   gradient norm :     0.0003621 Eh/α   predicted    -0.8121585E-05 ( -65.58%)
   displ. norm   :     0.1042717 α      lambda       -0.1724442E-04
   maximum displ.:     0.0851201 α      in ANC's #1, #2, #4, ...

........................................................................
.............................. CYCLE   58 ..............................
........................................................................

 iter      E             dE          RMSdq      gap      omega  full diag
   1    -71.2476860 -0.712477E+02  0.177E-02    3.21       0.0  T
   2    -71.2476861 -0.802795E-07  0.102E-02    3.21       1.5  T
   3    -71.2476860  0.619293E-07  0.179E-03    3.21       8.5  T
   4    -71.2476861 -0.853463E-07  0.760E-04    3.21      20.1  T
   5    -71.2476861 -0.715194E-08  0.212E-04    3.21      71.8  T
     SCC iter.                  ...        0 min,  0.012 sec
     gradient                   ...        0 min,  0.079 sec
 * total energy  :   -70.3176353 Eh     change       -0.2524976E-04 Eh
   gradient norm :     0.0003466 Eh/α   predicted    -0.8665903E-05 ( -65.68%)
   displ. norm   :     0.1173545 α      lambda       -0.1899760E-04
   maximum displ.:     0.0937662 α      in ANC's #1, #2, #4, ...

........................................................................
.............................. CYCLE   59 ..............................
........................................................................

 iter      E             dE          RMSdq      gap      omega  full diag
   1    -71.2476703 -0.712477E+02  0.195E-02    3.21       0.0  T
   2    -71.2476704 -0.102687E-06  0.114E-02    3.21       1.3  T
   3    -71.2476703  0.113739E-06  0.215E-03    3.21       7.1  T
   4    -71.2476704 -0.150580E-06  0.819E-04    3.21      18.6  T
   5    -71.2476704 -0.574421E-08  0.263E-04    3.21      58.0  T
     SCC iter.                  ...        0 min,  0.012 sec
     gradient                   ...        0 min,  0.079 sec
 * total energy  :   -70.3176632 Eh     change       -0.2787743E-04 Eh
   gradient norm :     0.0003543 Eh/α   predicted    -0.9558508E-05 ( -65.71%)
   displ. norm   :     0.1345442 α      lambda       -0.2137333E-04
   maximum displ.:     0.1054552 α      in ANC's #1, #2, #3, ...

........................................................................
.............................. CYCLE   60 ..............................
........................................................................

 iter      E             dE          RMSdq      gap      omega  full diag
   1    -71.2476631 -0.712477E+02  0.225E-02    3.21       0.0  T
   2    -71.2476633 -0.144567E-06  0.131E-02    3.21       1.2  T
   3    -71.2476631  0.168393E-06  0.255E-03    3.21       6.0  T
   4    -71.2476633 -0.219426E-06  0.982E-04    3.21      15.5  T
   5    -71.2476633 -0.923056E-08  0.299E-04    3.21      51.1  T
     SCC iter.                  ...        0 min,  0.012 sec
     gradient                   ...        0 min,  0.079 sec
 * total energy  :   -70.3176946 Eh     change       -0.3136833E-04 Eh
[...]
   
   for DFT-D4:
   * E. Caldeweyher, C. Bannwarth and S. Grimme, J. Chem. Phys., 2017,
     147, 034112. DOI: 10.1063/1.4993215
   * E. Caldeweyher, S. Ehlert, A. Hansen, H. Neugebauer, S. Spicher,
     C. Bannwarth and S. Grimme, J. Chem. Phys., 2019, 150, 154122.
     DOI: 10.1063/1.5090222
   * E. Caldeweyher, J.-M. Mewes, S. Ehlert and S. Grimme, Phys. Chem. Chem. Phys.
     2020, 22, 8499-8512. DOI: 10.1039/D0CP00502A
   
   for sTDA-xTB:
   * S. Grimme and C. Bannwarth, J. Chem. Phys., 2016, 145, 054103.
     DOI: 10.1063/1.4959605
   
   in the mass-spec context:
   * V. Asgeirsson, C. Bauer and S. Grimme, Chem. Sci., 2017, 8, 4879.
     DOI: 10.1039/c7sc00601b
   * J. Koopman and S. Grimme, ACS Omega 2019, 4, 12, 15120-15133.
     DOI: 10.1021/acsomega.9b02011
   
   for metadynamics refer to:
   * S. Grimme, J. Chem. Theory Comput., 2019, 155, 2847-2862
     DOI: 10.1021/acs.jctc.9b00143
   
   for SPH calculations refer to:
   * S. Spicher and S. Grimme, J. Chem. Theory Comput., 2021, 17, 1701-1714
     DOI: 10.1021/acs.jctc.0c01306
   
   for ONIOM refer to:
   * C. Plett, A. Katbashev, S. Ehlert, S. Grimme, M. Bursch,
     Phys. Chem. Chem. Phys., 2023, 25, 17860-17868. DOI: 10.1039/D3CP02178E
   
   for DIPRO refer to:
   * J. Kohn, N. Gildemeister, S. Grimme, D. Fazzi, A. Hansen,
     J. Chem. Phys., 2023, just accepted.
   
   for PTB refer to:
   * S. Grimme, M. Mueller, A. Hansen, J. Chem. Phys., 2023, 158, 124111.
     DOI: 10.1063/5.0137838
   
   with help from (in alphabetical order)
   P. Atkinson, C. Bannwarth, F. Bohle, G. Brandenburg, E. Caldeweyher
   M. Checinski, S. Dohm, S. Ehlert, S. Ehrlich, I. Gerasimov, C. Hölzer
   A. Katbashev, J. Kohn, J. Koopman, C. Lavigne, S. Lehtola, F. März, M. Müller,
   F. Musil, H. Neugebauer, J. Pisarek, C. Plett, P. Pracht, F. Pultar,
   J. Seibert, P. Shushkov, S. Spicher, M. Stahn, M. Steiner, T. Strunk,
   J. Stückrath, T. Rose, and J. Unsleber
   
 * started run on 2025/05/15 at 16:27:10.589     
   ID    Z sym.   atoms
    1    6 C      1-3, 5-8, 10, 11, 13, 15, 16, 18-20, 22, 23
    2    8 O      4, 21, 24
    3    7 N      9, 14, 17
    4   16 S      12
    5    1 H      25-43

           -------------------------------------------------
          |                Calculation Setup                |
           -------------------------------------------------

          program call               : xtb /rds/general/user/hgt20/home/callum/QDESCP/Omeprazole_rdkit_conf_24/Omeprazole_rdkit_conf_24.xyz --acc 1 --gfn 2 --chrg 0 --uhf 2 --etemp 300 --input /rds/general/user/hgt20/home/callum/QDESCP/Omeprazole_rdkit_conf_24/Omeprazole_rdkit_conf_24_xtb.inp -P 1
          hostname                   : login-c
          coordinate file            : /rds/general/user/hgt20/home/callum/QDESCP/Omeprazole_rdkit_conf_24/Omeprazole_rdkit_conf_24.xyz
          omp threads                :                     1


           -------------------------------------------------
          |                 G F N 2 - x T B                 |
           -------------------------------------------------

        Reference                      10.1021/acs.jctc.8b01176
      * Hamiltonian:
        H0-scaling (s, p, d)           1.850000    2.230000    2.230000
        zeta-weighting                 0.500000
      * Dispersion:
        s8                             2.700000
        a1                             0.520000
        a2                             5.000000
        s9                             5.000000
      * Repulsion:
        kExp                           1.500000    1.000000
        rExp                           1.000000
      * Coulomb:
        alpha                          2.000000
        third order                    shell-resolved
        anisotropic                    true
        a3                             3.000000
        a5                             4.000000
        cn-shift                       1.200000
        cn-exp                         4.000000
        max-rad                        5.000000


          ...................................................
          :                      SETUP                      :
          :.................................................:
          :  # basis functions                 121          :
          :  # atomic orbitals                 120          :
          :  # shells                           68          :
          :  # electrons                       126          :
          :  max. iterations                   250          :
          :  Hamiltonian                  GFN2-xTB          :
          :  restarted?                      false          :
          :  GBSA solvation                  false          :
          :  PC potential                    false          :
          :  electronic temp.          300.0000000     K    :
          :  accuracy                    1.0000000          :
          :  -> integral cutoff          0.2500000E+02      :
          :  -> integral neglect         0.1000000E-07      :
          :  -> SCF convergence          0.1000000E-05 Eh   :
          :  -> wf. convergence          0.1000000E-03 e    :
          :  Broyden damping             0.4000000          :
          :  net charge                          0          :
          :  unpaired electrons                  2          :
          ...................................................

 iter      E             dE          RMSdq      gap      omega  full diag
   1    -70.9412226 -0.709412E+02  0.431E+00    0.21       0.0  T
   2    -70.8989418  0.422808E-01  0.303E+00    0.45       1.0  T
   3    -70.8064236  0.925182E-01  0.237E+00    0.95       1.0  T
   4    -70.9360985 -0.129675E+00  0.162E+00    0.31       1.0  T
   5    -71.0061301 -0.700316E-01  0.141E+00    0.57       1.0  T
   6    -71.0625122 -0.563822E-01  0.966E-01    0.25       1.0  T
   7    -71.0807626 -0.182504E-01  0.851E-01    0.05       1.0  T
   8    -71.1130748 -0.323122E-01  0.665E-01    0.19       1.0  T
   9    -71.0668746  0.462002E-01  0.787E-01    0.24       1.0  T
  10    -71.0352379  0.316368E-01  0.975E-01    0.13       1.0  T
  11    -71.0873584 -0.521206E-01  0.602E-01    0.08       1.0  T
  12    -71.1137232 -0.263648E-01  0.340E-01    0.08       1.0  T
  13    -71.1235843 -0.986106E-02  0.123E-01    0.08       1.0  T
  14    -71.1247027 -0.111838E-02  0.676E-02    0.08       1.0  T
  15    -71.1249124 -0.209714E-03  0.316E-02    0.08       1.0  T
  16    -71.1246438  0.268549E-03  0.556E-02    0.08       1.0  T
  17    -71.1245942  0.496004E-04  0.568E-02    0.08       1.0  T
  18    -71.1249115 -0.317255E-03  0.169E-02    0.08       1.0  T
  19    -71.1249253 -0.138291E-04  0.119E-02    0.08       1.3  T
  20    -71.1249373 -0.119495E-04  0.583E-03    0.08       2.6  T
  21    -71.1249401 -0.281690E-05  0.260E-03    0.08       5.9  T
  22    -71.1249404 -0.315272E-06  0.188E-03    0.08       8.1  T
  23    -71.1249408 -0.372844E-06  0.200E-04    0.08      76.3  T
  24    -71.1249408  0.125218E-08  0.211E-04    0.08      72.4  T

   *** convergence criteria satisfied after 24 iterations ***

         #    Occupation            Energy/Eh            Energy/eV
      -------------------------------------------------------------
         1        2.0000           -0.7528660             -20.4865
       ...           ...                  ...                  ...
        58        2.0000           -0.4010822             -10.9140
        59        2.0000           -0.3890517             -10.5866
        60        1.9999           -0.3863963             -10.5144
        61        1.9720           -0.3809862             -10.3672
        62        1.7582           -0.3787010             -10.3050
        63        1.2699           -0.3766702             -10.2497
        64        0.8229           -0.2474548              -6.7336 (HOMO)
        65        0.1771           -0.2445359              -6.6542 (LUMO)
        66        0.0000           -0.2350431              -6.3958
        67                         -0.2065770              -5.6212
        68                         -0.1969057              -5.3581
        69                         -0.1858079              -5.0561
       ...                                ...                  ...
       120                          0.9188003              25.0018
      -------------------------------------------------------------
                  HL-Gap            0.0029189 Eh            0.0794 eV
             Fermi-level           -0.3118054 Eh           -8.4847 eV

 transition dipole moment (au) for excitation:          63          64
     X       Y       Z   
   0.6304   0.5282  -0.6321  total (au/Debye):    1.037   2.637
 dE (eV)             :    3.516
 oscillator strength :  0.13108E+00

 SCC (total)                   0 d,  0 h,  0 min,  0.185 sec
 SCC setup                      ...        0 min,  0.000 sec (  0.199%)
 Dispersion                     ...        0 min,  0.000 sec (  0.261%)
 classical contributions        ...        0 min,  0.000 sec (  0.085%)
 integral evaluation            ...        0 min,  0.010 sec (  5.395%)
 iterations                     ...        0 min,  0.097 sec ( 52.307%)
 molecular gradient             ...        0 min,  0.028 sec ( 15.290%)
 printout                       ...        0 min,  0.049 sec ( 26.460%)

         :::::::::::::::::::::::::::::::::::::::::::::::::::::
         ::                     SUMMARY                     ::
         :::::::::::::::::::::::::::::::::::::::::::::::::::::
         :: total energy             -70.194617577579 Eh    ::
         :: gradient norm              0.090085291367 Eh/a0 ::
         :: HOMO-LUMO gap              0.079426826165 eV    ::
         ::.................................................::
         :: SCC energy               -71.122943667261 Eh    ::
         :: -> isotropic ES            0.086626850399 Eh    ::
         :: -> anisotropic ES          0.004989065472 Eh    ::
         :: -> anisotropic XC          0.024978316881 Eh    ::
         :: -> dispersion             -0.058154529213 Eh    ::
         :: repulsion energy           0.928326089682 Eh    ::
         :: add. restraining           0.000000000000 Eh    ::
         :: total charge               0.000000000526 e     ::
         :::::::::::::::::::::::::::::::::::::::::::::::::::::

           -------------------------------------------------
          |                Property Printout                |
           -------------------------------------------------

    * Orbital Energies and Occupations

         #    Occupation            Energy/Eh            Energy/eV
      -------------------------------------------------------------
         1        2.0000           -0.7528660             -20.4865
       ...           ...                  ...                  ...
        52        2.0000           -0.4444865             -12.0951
        53        2.0000           -0.4423571             -12.0371
        54        2.0000           -0.4362636             -11.8713
        55        2.0000           -0.4200553             -11.4303
        56        2.0000           -0.4143755             -11.2757
        57        2.0000           -0.4051025             -11.0234
        58        2.0000           -0.4010822             -10.9140
        59        2.0000           -0.3890517             -10.5866
        60        1.9999           -0.3863963             -10.5144
        61        1.9720           -0.3809862             -10.3672
        62        1.7582           -0.3787010             -10.3050
        63        1.2699           -0.3766702             -10.2497
        64        0.8229           -0.2474548              -6.7336 (HOMO)
        65        0.1771           -0.2445359              -6.6542 (LUMO)
        66        0.0000           -0.2350431              -6.3958
        67                         -0.2065770              -5.6212
        68                         -0.1969057              -5.3581
        69                         -0.1858079              -5.0561
        70                         -0.1547197              -4.2101
        71                         -0.1133579              -3.0846
        72                         -0.0830719              -2.2605
        73                         -0.0495869              -1.3493
        74                          0.0114537               0.3117
        75                          0.0187042               0.5090
       ...                                ...                  ...
       120                          0.9188003              25.0018
      -------------------------------------------------------------
                  HL-Gap            0.0029189 Eh            0.0794 eV
             Fermi-level           -0.3118054 Eh           -8.4847 eV

     #   Z          covCN         q      C6AA      α(0)
     1   6 C        3.757    -0.100    22.460     6.757
     2   6 C        2.957    -0.027    28.668     8.782
     3   6 C        2.893     0.119    25.374     8.259
     4   8 O        1.703    -0.309    19.160     5.910
     5   6 C        3.654     0.046    20.094     6.436
     6   6 C        2.959    -0.013    28.329     8.730
     7   6 C        3.757    -0.112    22.704     6.794
     8   6 C        2.909     0.037    27.181     8.549
     9   7 N        1.844    -0.216    26.549     7.636
    10   6 C        2.975     0.063    26.590     8.458
    11   6 C        3.797    -0.092    22.249     6.716
    12  16 S        2.848     0.387   126.279    18.913
    13   6 C        3.214     0.095    25.265     8.179
    14   7 N        1.895    -0.301    28.662     7.937
    15   6 C        3.229     0.076    25.544     8.208
    16   6 C        3.107     0.056    26.611     8.452
    17   7 N        2.803    -0.112    23.442     7.191
    18   6 C        2.907    -0.065    29.616     8.923
    19   6 C        2.928    -0.062    29.547     8.914
    20   6 C        2.871     0.151    24.732     8.152
    21   8 O        1.706    -0.238    17.937     5.718
    22   6 C        3.645     0.031    20.393     6.490
    23   6 C        2.908    -0.087    30.188     9.009
    24   8 O        0.860    -0.459    22.885     6.414
    25   1 H        0.925     0.056     2.246     2.343
    26   1 H        0.925     0.044     2.397     2.421
    27   1 H        0.924     0.045     2.389     2.417
    28   1 H        0.924     0.034     2.528     2.487
    29   1 H        0.925     0.054     2.273     2.358
    30   1 H        0.924     0.030     2.588     2.516
    31   1 H        0.925     0.075     2.034     2.230
    32   1 H        0.925     0.044     2.395     2.420
    33   1 H        0.925     0.062     2.177     2.307
    34   1 H        0.925     0.043     2.410     2.428
    35   1 H        0.925     0.058     2.228     2.334
    36   1 H        0.925     0.081     1.969     2.195
    37   1 H        0.860     0.193     1.145     1.676
    38   1 H        0.926     0.036     2.501     2.473
    39   1 H        0.926     0.051     2.303     2.373
    40   1 H        0.924     0.056     2.245     2.343
    41   1 H        0.925     0.067     2.115     2.274
    42   1 H        0.924     0.053     2.287     2.365
    43   1 H        0.926     0.053     2.289     2.366

 Mol. C6AA /au·bohr⁶  :      23676.158017
 Mol. C8AA /au·bohr⁸  :     592384.120207
 Mol. α(0) /au        :        239.855665


Wiberg/Mayer (AO) data.
largest (>0.10) Wiberg bond orders for each atom

 ---------------------------------------------------------------------------
     #   Z sym  total        # sym  WBO       # sym  WBO       # sym  WBO
 ---------------------------------------------------------------------------
     1   6 C    3.990 --     2 C    1.024    25 H    0.979    26 H    0.978
                            27 H    0.965
     2   6 C    3.920 --     8 C    1.405     3 C    1.292     1 C    1.024
     3   6 C    3.860 --     6 C    1.378     2 C    1.292     4 O    0.997
     4   8 O    2.101 --     3 C    0.997     5 C    0.973
     5   6 C    3.944 --    29 H    0.980    30 H    0.979    28 H    0.977
                             4 O    0.973
     6   6 C    3.954 --     3 C    1.378    10 C    1.318     7 C    1.029
     7   6 C    3.986 --     6 C    1.029    33 H    0.978    32 H    0.969
                            31 H    0.956
     8   6 C    3.950 --     9 N    1.410     2 C    1.405    34 H    0.957
     9   7 N    2.992 --     8 C    1.410    10 C    1.308
    10   6 C    3.886 --     6 C    1.318     9 N    1.308    11 C    1.068
    11   6 C    3.909 --    10 C    1.068    35 H    0.970    36 H    0.961
                            12 S    0.741
    12  16 S    3.735 --    24 O    1.778    13 C    0.982    11 C    0.741
    13   6 C    3.814 --    14 N    1.451    17 N    1.136    12 S    0.982
    14   7 N    2.970 --    13 C    1.451    15 C    1.229
    15   6 C    3.939 --    23 C    1.320    14 N    1.229    16 C    1.195
    16   6 C    3.891 --    18 C    1.295    17 N    1.204    15 C    1.195
    17   7 N    3.498 --    16 C    1.204    13 C    1.136    37 H    0.929
    18   6 C    3.892 --    19 C    1.445    16 C    1.295    38 H    0.967
    19   6 C    3.871 --    18 C    1.445    20 C    1.275    39 H    0.968
    20   6 C    3.828 --    23 C    1.328    19 C    1.275    21 O    1.096
    21   8 O    2.216 --    20 C    1.096    22 C    0.984
    22   6 C    3.937 --    21 O    0.984    41 H    0.979    40 H    0.971
                            42 H    0.971
    23   6 C    3.854 --    20 C    1.328    15 C    1.320    43 H    0.963
    24   8 O    1.972 --    12 S    1.778
    25   1 H    0.995 --     1 C    0.979
    26   1 H    0.996 --     1 C    0.978
    27   1 H    0.993 --     1 C    0.965
    28   1 H    0.999 --     5 C    0.977
    29   1 H    0.995 --     5 C    0.980
    30   1 H    0.999 --     5 C    0.979
    31   1 H    0.993 --     7 C    0.956
    32   1 H    0.996 --     7 C    0.969
    33   1 H    0.994 --     7 C    0.978
    34   1 H    0.992 --     8 C    0.957
    35   1 H    0.996 --    11 C    0.970
    36   1 H    0.991 --    11 C    0.961
    37   1 H    0.962 --    17 N    0.929
    38   1 H    0.998 --    18 C    0.967
    39   1 H    0.997 --    19 C    0.968
    40   1 H    0.990 --    22 C    0.971
    41   1 H    0.995 --    22 C    0.979
    42   1 H    0.990 --    22 C    0.971
    43   1 H    0.997 --    23 C    0.963
 ---------------------------------------------------------------------------

Topologies differ in total number of bonds
Writing topology from bond orders to xtbtopo.mol

molecular dipole:
                 x           y           z       tot (Debye)
 q only:        0.333       1.342       1.240
   full:        0.009       1.841       0.976       5.296
molecular quadrupole (traceless):
                xx          xy          yy          xz          yz          zz
 q only:        3.639      -1.399      -7.499      -1.587      -9.401       3.861
  q+dip:        4.211      -0.394     -12.723      -1.122      -8.443       8.511
   full:        6.663      -2.601     -13.401      -3.174      -7.039       6.738


           -------------------------------------------------
          | TOTAL ENERGY              -70.194617577579 Eh   |
          | GRADIENT NORM               0.090085291367 Eh/α |
          | HOMO-LUMO GAP               0.079426826165 eV   |
           -------------------------------------------------

------------------------------------------------------------------------
 * finished run on 2025/05/15 at 16:27:10.790     
------------------------------------------------------------------------
 total:
 * wall-time:     0 d,  0 h,  0 min,  0.201 sec
 *  cpu-time:     0 d,  0 h,  0 min,  0.121 sec
 * ratio c/w:     0.602 speedup
 SCF:
 * wall-time:     0 d,  0 h,  0 min,  0.185 sec
 *  cpu-time:     0 d,  0 h,  0 min,  0.107 sec
 * ratio c/w:     0.576 speedup


