42
 energy: -73.165305579468 gnorm: 0.000286128095 xtb: 6.7.1 (edcfbbe)
O           -1.09658041307514       -2.35872623132573       -2.58576091793972
C           -1.07883355014241       -1.62618820645995       -1.60953703190873
C           -2.24302222599183       -1.09128871870497       -0.93246801270784
C           -2.13825589195361       -0.27719914796560        0.15839486242319
C           -3.39065430298708        0.26201493822414        0.79349293839549
O           -3.21655734899534        0.33922149113188        2.19203707164455
C           -3.71373648458172        1.68799849830012        0.26824228794860
C           -3.92880107138649        1.79971452567338       -1.23335908273725
C           -4.59698715221559       -0.64996554171497        0.52648280688911
O           -4.64961079448305       -1.40083290252851       -0.56049199754337
C           -3.57238356067680       -1.49400917927909       -1.48214664142621
O           -5.49811605557373       -0.67506490234468        1.32845545442368
C           -0.87686382607988        0.07835814176347        0.68086389633640
C            0.22662541497214       -0.40876482156326        0.04593950997757
N            0.11426463555083       -1.22028396307993       -1.04586363590285
C            1.40243700689354       -1.63559988412547       -1.57525143091612
C            1.64067283121824       -0.20743600000156        0.30368526864120
C            2.36943914898977       -0.94073437095037       -0.67598123993623
C            3.73065953706276       -0.89769718450252       -0.65601145629499
N            2.17363198373209        0.52115208714933        1.24383941184830
C            3.52067094062105        0.57856334993152        1.28183043206656
C            4.34901889727356       -0.11509981383739        0.34854270012627
C            5.74702987848097        0.00843783909446        0.45744271749274
C            6.30330237932927        0.77985147025959        1.44071028610489
C            5.48791068191425        1.45988045210195        2.35925223158972
C            4.12635828882141        1.36322559909944        2.28480561089534
H           -4.08704652480434        0.18540371692046        2.59303876042593
H           -2.88164499343870        2.32513887593691        0.57534909535979
H           -4.60884462388412        2.02590377690157        0.79598266236865
H           -4.79297486668031        1.21931733515569       -1.54875487099597
H           -3.05086325892150        1.46287607593895       -1.78080607112732
H           -4.11121787570822        2.83979089599569       -1.49399719066261
H           -3.82209575023798       -0.89648952431091       -2.36909190265132
H           -3.53105929247888       -2.54193924510159       -1.80047524333903
H           -0.79491135139720        0.70235129944803        1.55173102617479
H            1.48996276989659       -1.33573894404140       -2.62484021873735
H            1.48678054100138       -2.72722380838269       -1.53842699793581
H            4.33690866367666       -1.43156867656222       -1.37444705145277
H            6.37031444015162       -0.51725488308385       -0.25197653291823
H            7.37658478389590        0.87085242210524        1.51655251146875
H            5.94835349662016        2.06272494908592        3.12771344656034
H            3.48023489559236        1.87652820964714        2.97900253796966
