49
 energy: -69.219578639950 gnorm: 0.000419450431 xtb: 6.7.1 (edcfbbe)
C            1.88841436944405       -0.19441847495805        3.11721103384180
C            1.14806350766863       -0.93288975217904        1.99719723163621
N            1.40935641466034       -0.31777155561894        0.71507524312702
C            2.52234478886721       -0.51146068278881       -0.03451980263725
C            3.46620932920283       -1.49137727015093        0.25304190791106
C            4.54646139252884       -1.68739181878315       -0.60301467104513
N            4.76851701803507       -1.00354085698933       -1.69509865924649
C            3.89155759225460       -0.02892836660549       -2.00475265349673
C            2.74875665403168        0.27708385780575       -1.21296039775736
C            1.91782866079254        1.33617455007923       -1.62485350359113
C            2.18160209380604        2.04824915005622       -2.76421406258243
C            3.30042175156784        1.72373524808590       -3.54165622935869
Cl           3.60665528405528        2.63631931236979       -4.98070010891676
C            4.14418124993521        0.71361694591980       -3.17756973089153
C           -0.36195780304415       -0.94285843347725        2.25267323936826
C           -1.11934028036929       -1.71413591492216        1.17167303448014
C           -2.60390729260640       -1.34256184723443        1.12043185352555
N           -2.79867509885443        0.04550811172294        0.72631778478681
C           -4.01190124405727        0.64675884216656        1.25693715387970
C           -5.32816562146360       -0.02560274179413        0.85484234052979
C           -2.58343246461545        0.29960428623910       -0.69179751904668
C           -1.88846792241064        1.66130672162404       -0.85406664436903
O           -0.87097908889873        1.80255334947229        0.10661779532378
H            1.71855317447869       -0.68051855105260        4.07419208463061
H            1.54063581575384        0.83446391488266        3.17987410936037
H            2.95691730649988       -0.18386207751345        2.91601731284443
H            1.49419230334025       -1.97152088937313        1.95670873455093
H            0.84421818177117        0.49290807440234        0.50581572660981
H            3.38104292671480       -2.11263678612119        1.12939440509939
H            5.27566122332886       -2.45609005422728       -0.37661410498961
H            1.05655961353325        1.61760157397322       -1.04036606552918
H            1.53944674638619        2.86036816414117       -3.06724785804571
H            5.01433744504197        0.45774112664811       -3.75948296651937
H           -0.55298939310607       -1.38854260495846        3.23017630655055
H           -0.72195146670026        0.08675034883401        2.28600468307762
H           -1.03598517029837       -2.78667445151785        1.35550981345106
H           -0.65517513164526       -1.51202399801817        0.20560330351351
H           -3.12424786205083       -2.03724814247346        0.44301858134776
H           -3.02864345320860       -1.46520298808079        2.11965519030196
H           -3.92782792788500        0.63903791868796        2.34880999448858
H           -4.03115665407456        1.69034906554926        0.93293830588919
H           -5.44206173422821       -0.04762569447329       -0.22642976066855
H           -5.37286469052194       -1.04572761455065        1.22793246980116
H           -6.16180352411244        0.53150038721819        1.27369613796814
H           -3.51062811267097        0.28923574502906       -1.27891453995723
H           -1.92709065192583       -0.47604194273063       -1.08749531168344
H           -2.61599617042769        2.47798701658278       -0.74424423746417
H           -1.42602020311439        1.74223876395355       -1.83969339738289
H           -1.26106588141620        1.44576103515402        0.92242644728717
