49
 energy: -69.210468128302 gnorm: 0.000903661054 xtb: 6.7.1 (edcfbbe)
C            1.16344845707886       -1.44358611472364       -4.18711058452821
C            0.54581586154920       -0.98963991464003       -2.86376925605226
N            1.59132684560796       -0.56290998655260       -1.95986961451773
C            1.63122847603016        0.61592830397861       -1.28841698529589
C            1.02310234076341        1.76907158302910       -1.77228063213053
C            1.05877903155422        2.93916033692111       -1.02107379306099
N            1.64084145640291        3.05552952355962        0.14732065055574
C            2.29030943335770        1.97819148402355        0.63178777376808
C            2.33738230085502        0.72606583062090       -0.04436019160629
C            3.03860075730011       -0.33083440838678        0.56613438658852
C            3.65911004082749       -0.17493901273092        1.77572191811030
C            3.60026621633636        1.06306704476086        2.43008348016048
Cl           4.39068476352983        1.23293395901571        3.95771241746337
C            2.93285439999418        2.12053113892440        1.87921146438357
C           -0.27328933096231       -2.12587964281284       -2.22725280479056
C           -0.80845149288261       -1.80768380843215       -0.82958135738918
C           -1.80615377280631       -0.64632999821682       -0.79817250346117
N           -2.28524479026158       -0.43127794936990        0.55633782017328
C           -3.42737944096172       -1.25458313607017        0.91413207979398
C           -3.40757747172685       -1.60210752182019        2.39941370428556
C           -2.44071551520975        0.97090180412953        0.89955641388056
C           -1.10550997021934        1.55756305655654        1.37040294072477
O           -1.17333150096478        2.96253403231292        1.31984494585477
H            1.83686447147296       -2.28223752255764       -4.02353237626509
H            1.72838400190403       -0.63063187698779       -4.63599438023692
H            0.38626876416611       -1.75362685165018       -4.88009327457707
H           -0.11575039663034       -0.14310351134234       -3.05464876661615
H            2.09227780700875       -1.33161728832195       -1.54160589018224
H            0.51574932245355        1.77392989656087       -2.72338612276714
H            0.56663879566605        3.83052066302402       -1.38824300514296
H            3.10625931244981       -1.29622972332823        0.08428978253370
H            4.19214202954802       -0.99384532006129        2.23266982348425
H            2.88289100215950        3.07978384753048        2.36831600895289
H           -1.10852558573061       -2.35837566192106       -2.89042699074149
H            0.35747924234476       -3.01718763764802       -2.16544897662092
H            0.01111632537926       -1.56401741419954       -0.15111339918596
H           -1.29522083112821       -2.70185213667670       -0.43647252673729
H           -1.30401589881000        0.26443714539208       -1.12795775259006
H           -2.63417060786448       -0.84636082313690       -1.49940258892628
H           -4.38126905412456       -0.76247065302632        0.65768481054411
H           -3.37049089909766       -2.18200502031067        0.33995832356094
H           -4.23444788895856       -2.26627535186337        2.63928310232886
H           -3.49354595137863       -0.70819410837541        3.01067268050581
H           -2.47171247061281       -2.09531842748669        2.64743222847813
H           -2.79498755351634        1.57274450493511        0.04815922444836
H           -3.17421506321123        1.07473525440500        1.69831169818141
H           -0.31101017166492        1.18035344349222        0.71909635350917
H           -0.88733486483757        1.21564489740194        2.39145768917298
H           -0.27527093217908        3.31969307208033        1.28882205196688
