----- Optimization -----
      -----------------------------------------------------------      
     |                   =====================                   |     
     |                           x T B                           |     
     |                   =====================                   |     
     |                         S. Grimme                         |     
     |          Mulliken Center for Theoretical Chemistry        |     
     |                    University of Bonn                     |     
      -----------------------------------------------------------      

   * xtb version 6.7.1 (edcfbbe) compiled by 'conda@3ef47c1a292c' on 2024-11-25

   xtb is free software: you can redistribute it and/or modify it under
   the terms of the GNU Lesser General Public License as published by
   the Free Software Foundation, either version 3 of the License, or
   (at your option) any later version.
   
   xtb is distributed in the hope that it will be useful,
   but WITHOUT ANY WARRANTY; without even the implied warranty of
   MERCHANTABILITY or FITNESS FOR A PARTICULAR PURPOSE.  See the
   GNU Lesser General Public License for more details.
   
   Cite this work as:
   * C. Bannwarth, E. Caldeweyher, S. Ehlert, A. Hansen, P. Pracht,
     J. Seibert, S. Spicher, S. Grimme, WIREs Comput. Mol. Sci., 2020, 11,
     e01493. DOI: 10.1002/wcms.1493
   
   for GFN2-xTB:
   * C. Bannwarth, S. Ehlert and S. Grimme., J. Chem. Theory Comput., 2019,
     15, 1652-1671. DOI: 10.1021/acs.jctc.8b01176
   for GFN1-xTB:
   * S. Grimme, C. Bannwarth, P. Shushkov, J. Chem. Theory Comput., 2017,
     13, 1989-2009. DOI: 10.1021/acs.jctc.7b00118
   for GFN0-xTB:
   * P. Pracht, E. Caldeweyher, S. Ehlert, S. Grimme, ChemRxiv, 2019, preprint.
     DOI: 10.26434/chemrxiv.8326202.v1
   for GFN-FF:
   * S. Spicher and S. Grimme, Angew. Chem. Int. Ed., 2020, 59, 15665-15673.
     DOI: 10.1002/anie.202004239
   
   for ALPB and GBSA implicit solvation:
   * S. Ehlert, M. Stahn, S. Spicher, S. Grimme, J. Chem. Theory Comput.,
     2021, 17, 4250-4261. DOI: 10.1021/acs.jctc.1c00471
   
   for ddCOSMO and CPCM-X implicit solvation:
   * M. Stahn, S. Ehlert, S. Grimme, J. Phys. Chem. A,
     2023, XX, XXXX-XXXX. DOI: 10.1021/acs.jpca.3c04382
   
   for DFT-D4:
   * E. Caldeweyher, C. Bannwarth and S. Grimme, J. Chem. Phys., 2017,
     147, 034112. DOI: 10.1063/1.4993215
   * E. Caldeweyher, S. Ehlert, A. Hansen, H. Neugebauer, S. Spicher,
     C. Bannwarth and S. Grimme, J. Chem. Phys., 2019, 150, 154122.
     DOI: 10.1063/1.5090222
   * E. Caldeweyher, J.-M. Mewes, S. Ehlert and S. Grimme, Phys. Chem. Chem. Phys.
     2020, 22, 8499-8512. DOI: 10.1039/D0CP00502A
   
   for sTDA-xTB:
   * S. Grimme and C. Bannwarth, J. Chem. Phys., 2016, 145, 054103.
     DOI: 10.1063/1.4959605
   
   in the mass-spec context:
   * V. Asgeirsson, C. Bauer and S. Grimme, Chem. Sci., 2017, 8, 4879.
     DOI: 10.1039/c7sc00601b
   * J. Koopman and S. Grimme, ACS Omega 2019, 4, 12, 15120-15133.
     DOI: 10.1021/acsomega.9b02011
   
   for metadynamics refer to:
   * S. Grimme, J. Chem. Theory Comput., 2019, 155, 2847-2862
     DOI: 10.1021/acs.jctc.9b00143
   
   for SPH calculations refer to:
   * S. Spicher and S. Grimme, J. Chem. Theory Comput., 2021, 17, 1701-1714
     DOI: 10.1021/acs.jctc.0c01306
   
   for ONIOM refer to:
   * C. Plett, A. Katbashev, S. Ehlert, S. Grimme, M. Bursch,
     Phys. Chem. Chem. Phys., 2023, 25, 17860-17868. DOI: 10.1039/D3CP02178E
   
   for DIPRO refer to:
   * J. Kohn, N. Gildemeister, S. Grimme, D. Fazzi, A. Hansen,
     J. Chem. Phys., 2023, just accepted.
   
   for PTB refer to:
   * S. Grimme, M. Mueller, A. Hansen, J. Chem. Phys., 2023, 158, 124111.
     DOI: 10.1063/5.0137838
   
   with help from (in alphabetical order)
   P. Atkinson, C. Bannwarth, F. Bohle, G. Brandenburg, E. Caldeweyher
   M. Checinski, S. Dohm, S. Ehlert, S. Ehrlich, I. Gerasimov, C. Hölzer
   A. Katbashev, J. Kohn, J. Koopman, C. Lavigne, S. Lehtola, F. März, M. Müller,
   F. Musil, H. Neugebauer, J. Pisarek, C. Plett, P. Pracht, F. Pultar,
   J. Seibert, P. Shushkov, S. Spicher, M. Stahn, M. Steiner, T. Strunk,
   J. Stückrath, T. Rose, and J. Unsleber
   
 * started run on 2025/05/15 at 16:13:45.212     
   ID    Z sym.   atoms
    1    6 C      1, 2, 4-6, 8-12, 14-17, 19-22
    2    7 N      3, 7, 18
    3   17 Cl     13
    4    8 O      23
    5    1 H      24-49

           -------------------------------------------------
          |                Calculation Setup                |
           -------------------------------------------------

          program call               : xtb /rds/general/user/hgt20/home/callum/QDESCP/Hydroxychloroquine_rdkit_conf_13/Hydroxychloroquine_rdkit_conf_13.xyz --opt normal --acc 1 --gfn 2 --chrg 0 --uhf 0 -P 1
          hostname                   : login-c
          coordinate file            : /rds/general/user/hgt20/home/callum/QDESCP/Hydroxychloroquine_rdkit_conf_13/Hydroxychloroquine_rdkit_conf_13.xyz
          omp threads                :                     1


           -------------------------------------------------
          |                 G F N 2 - x T B                 |
           -------------------------------------------------

        Reference                      10.1021/acs.jctc.8b01176
      * Hamiltonian:
        H0-scaling (s, p, d)           1.850000    2.230000    2.230000
        zeta-weighting                 0.500000
      * Dispersion:
        s8                             2.700000
        a1                             0.520000
        a2                             5.000000
        s9                             5.000000
      * Repulsion:
        kExp                           1.500000    1.000000
        rExp                           1.000000
      * Coulomb:
        alpha                          2.000000
        third order                    shell-resolved
        anisotropic                    true
        a3                             3.000000
        a5                             4.000000
        cn-shift                       1.200000
        cn-exp                         4.000000
        max-rad                        5.000000


          ...................................................
          :                      SETUP                      :
          :.................................................:
          :  # basis functions                 124          :
          :  # atomic orbitals                 123          :
          :  # shells                           73          :
          :  # electrons                       126          :
          :  max. iterations                   250          :
          :  Hamiltonian                  GFN2-xTB          :
          :  restarted?                      false          :
          :  GBSA solvation                  false          :
          :  PC potential                    false          :
          :  electronic temp.          300.0000000     K    :
          :  accuracy                    1.0000000          :
          :  -> integral cutoff          0.2500000E+02      :
          :  -> integral neglect         0.1000000E-07      :
          :  -> SCF convergence          0.1000000E-05 Eh   :
          :  -> wf. convergence          0.1000000E-03 e    :
          :  Broyden damping             0.4000000          :
          :  net charge                          0          :
          :  unpaired electrons                  0          :
          ...................................................

 iter      E             dE          RMSdq      gap      omega  full diag
   1    -70.0108286 -0.700108E+02  0.363E+00    2.37       0.0  T
   2    -70.0857352 -0.749066E-01  0.223E+00    2.35       1.0  T
   3    -70.0676301  0.181051E-01  0.119E+00    2.29       1.0  T
   4    -70.0996079 -0.319777E-01  0.381E-01    2.04       1.0  T
   5    -70.1038685 -0.426061E-02  0.122E-01    2.02       1.0  T
   6    -70.1043623 -0.493841E-03  0.559E-02    2.03       1.0  T
   7    -70.1044141 -0.517938E-04  0.279E-02    2.05       1.0  T
   8    -70.1044236 -0.953227E-05  0.127E-02    2.05       1.1  T
   9    -70.1044261 -0.243688E-05  0.825E-03    2.05       1.7  T
  10    -70.1044268 -0.733692E-06  0.603E-03    2.05       2.4  T
  11    -70.1044275 -0.666448E-06  0.333E-03    2.05       4.3  T
  12    -70.1044277 -0.211851E-06  0.183E-03    2.05       7.8  T
  13    -70.1044277 -0.687883E-07  0.821E-04    2.05      17.4  T
  14    -70.1044278 -0.124127E-07  0.441E-04    2.05      32.4  T

   *** convergence criteria satisfied after 14 iterations ***

         #    Occupation            Energy/Eh            Energy/eV
      -------------------------------------------------------------
         1        2.0000           -1.0543406             -28.6901
       ...           ...                  ...                  ...
        57        2.0000           -0.4166456             -11.3375
        58        2.0000           -0.4136423             -11.2558
        59        2.0000           -0.4041468             -10.9974
        60        2.0000           -0.3975682             -10.8184
        61        2.0000           -0.3740866             -10.1794
        62        2.0000           -0.3668429              -9.9823
        63        2.0000           -0.3547874              -9.6543 (HOMO)
        64                         -0.2793081              -7.6004 (LUMO)
        65                         -0.2396593              -6.5215
        66                         -0.2086329              -5.6772
        67                         -0.1636919              -4.4543
        68                         -0.1336786              -3.6376
       ...                                ...                  ...
       123                          0.6613201              17.9954
      -------------------------------------------------------------
                  HL-Gap            0.0754793 Eh            2.0539 eV
             Fermi-level           -0.3170477 Eh           -8.6273 eV

 SCC (total)                   0 d,  0 h,  0 min,  0.119 sec
 SCC setup                      ...        0 min,  0.000 sec (  0.365%)
 Dispersion                     ...        0 min,  0.001 sec (  0.495%)
 classical contributions        ...        0 min,  0.000 sec (  0.160%)
 integral evaluation            ...        0 min,  0.010 sec (  8.101%)
 iterations                     ...        0 min,  0.078 sec ( 65.487%)
 molecular gradient             ...        0 min,  0.030 sec ( 25.218%)
 printout                       ...        0 min,  0.000 sec (  0.169%)

         :::::::::::::::::::::::::::::::::::::::::::::::::::::
         ::                     SUMMARY                     ::
         :::::::::::::::::::::::::::::::::::::::::::::::::::::
         :: total energy             -69.196753320760 Eh    ::
         :: gradient norm              0.092179572651 Eh/a0 ::
         :: HOMO-LUMO gap              2.053897576855 eV    ::
         ::.................................................::
         :: SCC energy               -70.102619301145 Eh    ::
         :: -> isotropic ES            0.053688827665 Eh    ::
         :: -> anisotropic ES          0.011587553959 Eh    ::
         :: -> anisotropic XC          0.039334630036 Eh    ::
         :: -> dispersion             -0.052056351145 Eh    ::
         :: repulsion energy           0.905865980386 Eh    ::
         :: add. restraining           0.000000000000 Eh    ::
         :: total charge              -0.000000000000 e     ::
         :::::::::::::::::::::::::::::::::::::::::::::::::::::

      ----------------------------------------------------------- 
     |                   =====================                   |
     |                        A N C O P T                        |
     |                   =====================                   |
     |               Approximate Normal Coordinate               |
     |                Rational Function Optimizer                |
      ----------------------------------------------------------- 
      ----------------------------------------------------------- 
     |                   =====================                   |
     |                        A N C O P T                        |
     |                   =====================                   |
     |               Approximate Normal Coordinate               |
     |                Rational Function Optimizer                |
      ----------------------------------------------------------- 

          ...................................................
          :                      SETUP                      :
          :.................................................:
          :   optimization level            normal          :
          :   max. optcycles                   200          :
          :   ANC micro-cycles                  20          :
          :   degrees of freedom               141          :
          :.................................................:
          :   RF solver                   davidson          :
          :   write xtbopt.log                true          :
          :   linear?                        false          :
          :   energy convergence         0.5000000E-05 Eh   :
          :   grad. convergence          0.1000000E-02 Eh/α :
          :   maxmium RF displ.          1.0000000          :
          :   Hlow (freq-cutoff)         0.1000000E-01      :
          :   Hmax (freq-cutoff)         5.0000000          :
          :   S6 in model hess.         20.0000000          :
          ...................................................

generating ANC from exact Hessian ...
Using Lindh-Hessian (1995)
 Shifting diagonal of input Hessian by    9.8495081314579330E-003
 Lowest  eigenvalues of input Hessian
    0.000000    0.000000    0.000000    0.000000    0.000000    0.000000
    0.010000    0.010152    0.010506    0.010646    0.010970    0.011832
    0.012062    0.012272    0.012526    0.013657    0.014242    0.014955
 Highest eigenvalues
    1.816582    1.838096    1.883324    1.980562    2.083166    2.159406


........................................................................
.............................. CYCLE    1 ..............................
........................................................................

 iter      E             dE          RMSdq      gap      omega  full diag
   1    -70.1044278 -0.701044E+02  0.283E-04    2.05       0.0  T
   2    -70.1044278 -0.639105E-09  0.230E-04    2.05      62.2  T
   3    -70.1044278 -0.281119E-09  0.192E-04    2.05      74.4  T
     SCC iter.                  ...        0 min,  0.008 sec
     gradient                   ...        0 min,  0.069 sec
 * total energy  :   -69.1967533 Eh     change       -0.2859878E-08 Eh
   gradient norm :     0.0921804 Eh/α   predicted     0.0000000E+00 (-100.00%)
   displ. norm   :     0.2816092 α      lambda       -0.1164857E-01
   maximum displ.:     0.0985260 α      in ANC's #32, #23, #28, ...

........................................................................
.............................. CYCLE    2 ..............................
........................................................................

 iter      E             dE          RMSdq      gap      omega  full diag
   1    -70.1356043 -0.701356E+02  0.165E-01    2.14       0.0  T
   2    -70.1357305 -0.126122E-03  0.103E-01    2.16       1.0  T
   3    -70.1357211  0.933690E-05  0.577E-02    2.16       1.0  T
   4    -70.1357764 -0.553057E-04  0.143E-02    2.16       1.0  T
   5    -70.1357849 -0.846133E-05  0.429E-03    2.16       3.3  T
   6    -70.1357854 -0.491400E-06  0.190E-03    2.16       7.5  T
   7    -70.1357854 -0.238779E-07  0.723E-04    2.16      19.8  T
   8    -70.1357854 -0.624951E-08  0.418E-04    2.16      34.2  T
     SCC iter.                  ...        0 min,  0.020 sec
     gradient                   ...        0 min,  0.079 sec
 * total energy  :   -69.2046963 Eh     change       -0.7942964E-02 Eh
   gradient norm :     0.0380644 Eh/α   predicted    -0.6289262E-02 ( -20.82%)
   displ. norm   :     0.2519984 α      lambda       -0.3241085E-02
   maximum displ.:     0.0780175 α      in ANC's #3, #17, #23, ...

........................................................................
.............................. CYCLE    3 ..............................
........................................................................

 iter      E             dE          RMSdq      gap      omega  full diag
   1    -70.1523265 -0.701523E+02  0.104E-01    2.21       0.0  T
   2    -70.1524132 -0.866732E-04  0.655E-02    2.22       1.0  T
   3    -70.1524359 -0.227747E-04  0.382E-02    2.23       1.0  T
   4    -70.1524491 -0.131705E-04  0.106E-02    2.23       1.4  T
   5    -70.1524534 -0.432626E-05  0.315E-03    2.23       4.5  T
   6    -70.1524537 -0.296214E-06  0.126E-03    2.23      11.4  T
   7    -70.1524537 -0.107754E-07  0.447E-04    2.23      31.9  T
   8    -70.1524537 -0.307389E-08  0.208E-04    2.23      68.7  T
     SCC iter.                  ...        0 min,  0.020 sec
     gradient                   ...        0 min,  0.070 sec
 * total energy  :   -69.2065898 Eh     change       -0.1893492E-02 Eh
   gradient norm :     0.0098739 Eh/α   predicted    -0.1724131E-02 (  -8.94%)
   displ. norm   :     0.1986433 α      lambda       -0.6062243E-03
   maximum displ.:     0.0886592 α      in ANC's #3, #5, #8, ...

........................................................................
.............................. CYCLE    4 ..............................
........................................................................

 iter      E             dE          RMSdq      gap      omega  full diag
   1    -70.1541188 -0.701541E+02  0.479E-02    2.22       0.0  T
   2    -70.1541294 -0.105273E-04  0.281E-02    2.22       1.0  T
   3    -70.1541281  0.128323E-05  0.166E-02    2.22       1.0  T
   4    -70.1541340 -0.595321E-05  0.378E-03    2.22       3.8  T
   5    -70.1541346 -0.556292E-06  0.129E-03    2.22      11.1  T
   6    -70.1541346 -0.299566E-07  0.642E-04    2.22      22.2  T
   7    -70.1541346 -0.398713E-08  0.253E-04    2.22      56.6  T
     SCC iter.                  ...        0 min,  0.018 sec
     gradient                   ...        0 min,  0.069 sec
 * total energy  :   -69.2070728 Eh     change       -0.4830452E-03 Eh
   gradient norm :     0.0073889 Eh/α   predicted    -0.3150790E-03 ( -34.77%)
   displ. norm   :     0.3789471 α      lambda       -0.7650227E-03
   maximum displ.:     0.1925087 α      in ANC's #5, #3, #8, ...

........................................................................
.............................. CYCLE    5 ..............................
........................................................................

 iter      E             dE          RMSdq      gap      omega  full diag
   1    -70.1535045 -0.701535E+02  0.781E-02    2.20       0.0  T
   2    -70.1535224 -0.178487E-04  0.452E-02    2.20       1.0  T
   3    -70.1535110  0.113870E-04  0.247E-02    2.20       1.0  T
   4    -70.1535298 -0.187695E-04  0.520E-03    2.20       2.7  T
   5    -70.1535309 -0.109126E-05  0.194E-03    2.20       7.4  T
   6    -70.1535309 -0.434202E-07  0.107E-03    2.20      13.4  T
   7    -70.1535309 -0.146012E-07  0.466E-04    2.20      30.7  T
   8    -70.1535309 -0.206892E-08  0.369E-04    2.20      38.7  T
     SCC iter.                  ...        0 min,  0.021 sec
     gradient                   ...        0 min,  0.075 sec
 * total energy  :   -69.2076044 Eh     change       -0.5315486E-03 Eh
   gradient norm :     0.0064440 Eh/α   predicted    -0.4374430E-03 ( -17.70%)
   displ. norm   :     0.3174297 α      lambda       -0.3727979E-03
   maximum displ.:     0.1741252 α      in ANC's #5, #3, #8, ...

........................................................................
.............................. CYCLE    6 ..............................
........................................................................

 iter      E             dE          RMSdq      gap      omega  full diag
   1    -70.1530114 -0.701530E+02  0.566E-02    2.18       0.0  T
   2    -70.1530173 -0.588124E-05  0.327E-02    2.18       1.0  T
   3    -70.1530099  0.736324E-05  0.162E-02    2.19       1.0  T
   4    -70.1530198 -0.985249E-05  0.322E-03    2.18       4.4  T
   5    -70.1530202 -0.405431E-06  0.128E-03    2.18      11.1  T
   6    -70.1530202 -0.137019E-07  0.702E-04    2.19      20.3  T
   7    -70.1530202 -0.689730E-08  0.305E-04    2.19      46.9  T
     SCC iter.                  ...        0 min,  0.069 sec
     gradient                   ...        0 min,  0.030 sec
 * total energy  :   -69.2079080 Eh     change       -0.3036538E-03 Eh
   gradient norm :     0.0072990 Eh/α   predicted    -0.2051869E-03 ( -32.43%)
   displ. norm   :     0.3973582 α      lambda       -0.4511843E-03
   maximum displ.:     0.2185026 α      in ANC's #5, #3, #8, ...

........................................................................
.............................. CYCLE    7 ..............................
........................................................................

 iter      E             dE          RMSdq      gap      omega  full diag
   1    -70.1528637 -0.701529E+02  0.649E-02    2.17       0.0  T
   2    -70.1528684 -0.471674E-05  0.376E-02    2.17       1.0  T
   3    -70.1528589  0.955278E-05  0.163E-02    2.16       1.0  T
   4    -70.1528706 -0.117248E-04  0.318E-03    2.16       4.5  T
   5    -70.1528709 -0.343824E-06  0.141E-03    2.16      10.2  T
   6    -70.1528709 -0.115529E-07  0.694E-04    2.16      20.6  T
   7    -70.1528709 -0.744572E-08  0.293E-04    2.16      48.8  T
     SCC iter.                  ...        0 min,  0.018 sec
     gradient                   ...        0 min,  0.063 sec
 * total energy  :   -69.2082896 Eh     change       -0.3815627E-03 Eh
   gradient norm :     0.0064447 Eh/α   predicted    -0.2612123E-03 ( -31.54%)
   displ. norm   :     0.4920158 α      lambda       -0.5222739E-03
   maximum displ.:     0.2714081 α      in ANC's #5, #3, #8, ...

........................................................................
.............................. CYCLE    8 ..............................
........................................................................

 iter      E             dE          RMSdq      gap      omega  full diag
   1    -70.1531151 -0.701531E+02  0.767E-02    2.15       0.0  T
   2    -70.1531195 -0.440023E-05  0.448E-02    2.14       1.0  T
   3    -70.1531077  0.118472E-04  0.172E-02    2.14       1.0  T
   4    -70.1531218 -0.141701E-04  0.331E-03    2.14       4.3  T
   5    -70.1531221 -0.290055E-06  0.162E-03    2.14       8.8  T
   6    -70.1531221 -0.151830E-07  0.684E-04    2.14      20.9  T
   7    -70.1531221 -0.721637E-08  0.286E-04    2.14      50.0  T
     SCC iter.                  ...        0 min,  0.069 sec
     gradient                   ...        0 min,  0.030 sec
 * total energy  :   -69.2087057 Eh     change       -0.4160660E-03 Eh
   gradient norm :     0.0054819 Eh/α   predicted    -0.3243534E-03 ( -22.04%)
   displ. norm   :     0.4757689 α      lambda       -0.3974386E-03
   maximum displ.:     0.2649315 α      in ANC's #5, #3, #8, ...

........................................................................
.............................. CYCLE    9 ..............................
........................................................................

 iter      E             dE          RMSdq      gap      omega  full diag
   1    -70.1538944 -0.701539E+02  0.723E-02    2.13       0.0  T
   2    -70.1538974 -0.298493E-05  0.424E-02    2.13       1.0  T
   3    -70.1538883  0.907963E-05  0.149E-02    2.12       1.0  T
   4    -70.1538991 -0.108050E-04  0.277E-03    2.12       5.2  T
   5    -70.1538992 -0.166653E-06  0.144E-03    2.12       9.9  T
   6    -70.1538993 -0.143978E-07  0.562E-04    2.13      25.4  T
   7    -70.1538993 -0.477753E-08  0.229E-04    2.13      62.3  T
     SCC iter.                  ...        0 min,  0.058 sec
     gradient                   ...        0 min,  0.030 sec
 * total energy  :   -69.2090104 Eh     change       -0.3047302E-03 Eh
   gradient norm :     0.0058844 Eh/α   predicted    -0.2437106E-03 ( -20.02%)
   displ. norm   :     0.4018204 α      lambda       -0.2742899E-03
   maximum displ.:     0.2254730 α      in ANC's #5, #3, #4, ...

........................................................................
.............................. CYCLE   10 ..............................
........................................................................

 iter      E             dE          RMSdq      gap      omega  full diag
   1    -70.1553133 -0.701553E+02  0.621E-02    2.11       0.0  T
   2    -70.1553149 -0.161629E-05  0.364E-02    2.11       1.0  T
   3    -70.1553105  0.432809E-05  0.105E-02    2.11       1.4  T
   4    -70.1553157 -0.519580E-05  0.202E-03    2.11       7.1  T
   5    -70.1553158 -0.768892E-07  0.109E-03    2.11      13.1  T
   6    -70.1553158 -0.113396E-07  0.388E-04    2.11      36.8  T
   7    -70.1553158 -0.223903E-08  0.158E-04    2.11      90.2  T
     SCC iter.                  ...        0 min,  0.019 sec
     gradient                   ...        0 min,  0.064 sec
 * total energy  :   -69.2092210 Eh     change       -0.2105643E-03 Eh
   gradient norm :     0.0050854 Eh/α   predicted    -0.1593209E-03 ( -24.34%)
   displ. norm   :     0.3538145 α      lambda       -0.1953323E-03
   maximum displ.:     0.2002074 α      in ANC's #3, #5, #4, ...

........................................................................
.............................. CYCLE   11 ..............................
........................................................................

 iter      E             dE          RMSdq      gap      omega  full diag
   1    -70.1563587 -0.701564E+02  0.578E-02    2.09       0.0  T
   2    -70.1563599 -0.124864E-05  0.339E-02    2.09       1.0  T
   3    -70.1563577  0.224401E-05  0.793E-03    2.09       1.8  T
   4    -70.1563605 -0.278451E-05  0.175E-03    2.09       8.2  T
   5    -70.1563605 -0.608185E-07  0.923E-04    2.09      15.5  T
   6    -70.1563605 -0.830974E-08  0.303E-04    2.09      47.1  T
     SCC iter.                  ...        0 min,  0.067 sec
     gradient                   ...        0 min,  0.030 sec
 * total energy  :   -69.2093657 Eh     change       -0.1447593E-03 Eh
   gradient norm :     0.0034709 Eh/α   predicted    -0.1098937E-03 ( -24.09%)
   displ. norm   :     0.2835781 α      lambda       -0.1151144E-03
   maximum displ.:     0.1621930 α      in ANC's #3, #5, #4, ...

........................................................................
.............................. CYCLE   12 ..............................
........................................................................

 iter      E             dE          RMSdq      gap      omega  full diag
   1    -70.1566759 -0.701567E+02  0.500E-02    2.07       0.0  T
   2    -70.1566770 -0.104144E-05  0.293E-02    2.07       1.0  T
   3    -70.1566757  0.121556E-05  0.615E-03    2.07       2.3  T
   4    -70.1566773 -0.159530E-05  0.161E-03    2.07       8.9  T
   5    -70.1566774 -0.538159E-07  0.851E-04    2.07      16.8  T
   6    -70.1566774 -0.717792E-08  0.289E-04    2.07      49.5  T
     SCC iter.                  ...        0 min,  0.016 sec
     gradient                   ...        0 min,  0.057 sec
 * total energy  :   -69.2094504 Eh     change       -0.8469000E-04 Eh
   gradient norm :     0.0026102 Eh/α   predicted    -0.6218606E-04 ( -26.57%)
   displ. norm   :     0.2283225 α      lambda       -0.8169480E-04
   maximum displ.:     0.1264710 α      in ANC's #3, #5, #4, ...

........................................................................
.............................. CYCLE   13 ..............................
........................................................................

 iter      E             dE          RMSdq      gap      omega  full diag
   1    -70.1568790 -0.701569E+02  0.453E-02    2.06       0.0  T
   2    -70.1568801 -0.107047E-05  0.265E-02    2.06       1.0  T
   3    -70.1568790  0.103928E-05  0.563E-03    2.06       2.5  T
   4    -70.1568804 -0.139394E-05  0.166E-03    2.06       8.6  T
   5    -70.1568805 -0.638158E-07  0.867E-04    2.06      16.5  T
   6    -70.1568805 -0.648002E-08  0.344E-04    2.06      41.6  T
     SCC iter.                  ...        0 min,  0.016 sec
     gradient                   ...        0 min,  0.074 sec
 * total energy  :   -69.2095132 Eh     change       -0.6279418E-04 Eh
   gradient norm :     0.0025662 Eh/α   predicted    -0.4297764E-04 ( -31.56%)
   displ. norm   :     0.2553751 α      lambda       -0.9243710E-04
   maximum displ.:     0.1267202 α      in ANC's #3, #4, #5, ...

........................................................................
.............................. CYCLE   14 ..............................
........................................................................

 iter      E             dE          RMSdq      gap      omega  full diag
   1    -70.1565343 -0.701565E+02  0.561E-02    2.04       0.0  T
   2    -70.1565363 -0.198010E-05  0.328E-02    2.04       1.0  T
   3    -70.1565341  0.215694E-05  0.764E-03    2.04       1.9  T
   4    -70.1565370 -0.280646E-05  0.224E-03    2.04       6.4  T
   5    -70.1565371 -0.125955E-06  0.115E-03    2.04      12.4  T
   6    -70.1565371 -0.100737E-07  0.508E-04    2.04      28.1  T
   7    -70.1565371 -0.517407E-08  0.321E-04    2.04      44.4  T
     SCC iter.                  ...        0 min,  0.019 sec
     gradient                   ...        0 min,  0.070 sec
 * total energy  :   -69.2095844 Eh     change       -0.7116979E-04 Eh
   gradient norm :     0.0031189 Eh/α   predicted    -0.4923429E-04 ( -30.82%)
   displ. norm   :     0.2833424 α      lambda       -0.1045503E-03
   maximum displ.:     0.1284663 α      in ANC's #6, #3, #4, ...

........................................................................
.............................. CYCLE   15 ..............................
........................................................................

 iter      E             dE          RMSdq      gap      omega  full diag
   1    -70.1559746 -0.701560E+02  0.674E-02    2.03       0.0  T
   2    -70.1559776 -0.306921E-05  0.393E-02    2.03       1.0  T
   3    -70.1559740  0.366929E-05  0.942E-03    2.03       1.5  T
   4    -70.1559786 -0.466098E-05  0.270E-03    2.03       5.3  T
   5    -70.1559788 -0.193057E-06  0.136E-03    2.03      10.5  T
   6    -70.1559788 -0.132785E-07  0.634E-04    2.03      22.5  T
   7    -70.1559788 -0.856500E-08  0.380E-04    2.03      37.6  T
     SCC iter.                  ...        0 min,  0.018 sec
     gradient                   ...        0 min,  0.069 sec
 * total energy  :   -69.2096613 Eh     change       -0.7691423E-04 Eh
   gradient norm :     0.0039634 Eh/α   predicted    -0.5647222E-04 ( -26.58%)
   displ. norm   :     0.2238419 α      lambda       -0.8632620E-04
   maximum displ.:     0.1167012 α      in ANC's #6, #10, #7, ...

........................................................................
.............................. CYCLE   16 ..............................
........................................................................

 iter      E             dE          RMSdq      gap      omega  full diag
   1    -70.1555925 -0.701556E+02  0.546E-02    2.02       0.0  T
   2    -70.1555943 -0.180571E-05  0.320E-02    2.02       1.0  T
   3    -70.1555918  0.252272E-05  0.746E-03    2.02       1.9  T
   4    -70.1555949 -0.309902E-05  0.203E-03    2.02       7.0  T
   5    -70.1555950 -0.117360E-06  0.983E-04    2.02      14.5  T
   6    -70.1555950 -0.751157E-08  0.448E-04    2.02      31.9  T
     SCC iter.                  ...        0 min,  0.016 sec
     gradient                   ...        0 min,  0.070 sec
 * total energy  :   -69.2097271 Eh     change       -0.6578145E-04 Eh
   gradient norm :     0.0036559 Eh/α   predicted    -0.4532715E-04 ( -31.09%)
   displ. norm   :     0.2331540 α      lambda       -0.8905902E-04
   maximum displ.:     0.1199998 α      in ANC's #6, #10, #7, ...

........................................................................
.............................. CYCLE   17 ..............................
........................................................................

 iter      E             dE          RMSdq      gap      omega  full diag
   1    -70.1554445 -0.701554E+02  0.573E-02    2.02       0.0  T
   2    -70.1554458 -0.138918E-05  0.337E-02    2.02       1.0  T
   3    -70.1554437  0.216692E-05  0.667E-03    2.02       2.1  T
   4    -70.1554463 -0.260852E-05  0.184E-03    2.02       7.8  T
   5    -70.1554464 -0.983079E-07  0.873E-04    2.02      16.4  T
   6    -70.1554464 -0.653040E-08  0.360E-04    2.02      39.7  T
     SCC iter.                  ...        0 min,  0.017 sec
     gradient                   ...        0 min,  0.067 sec
 * total energy  :   -69.2097908 Eh     change       -0.6377486E-04 Eh
   gradient norm :     0.0027414 Eh/α   predicted    -0.4695660E-04 ( -26.37%)
   displ. norm   :     0.1905100 α      lambda       -0.6314529E-04
   maximum displ.:     0.1002424 α      in ANC's #10, #6, #2, ...

........................................................................
.............................. CYCLE   18 ..............................
........................................................................

 iter      E             dE          RMSdq      gap      omega  full diag
   1    -70.1553485 -0.701553E+02  0.479E-02    2.03       0.0  T
   2    -70.1553493 -0.716246E-06  0.283E-02    2.02       1.0  T
   3    -70.1553481  0.112781E-05  0.499E-03    2.02       2.9  T
   4    -70.1553495 -0.137125E-05  0.146E-03    2.02       9.8  T
   5    -70.1553496 -0.552672E-07  0.762E-04    2.02      18.8  T
   6    -70.1553496 -0.535816E-08  0.350E-04    2.02      40.8  T
     SCC iter.                  ...        0 min,  0.016 sec
     gradient                   ...        0 min,  0.076 sec
 * total energy  :   -69.2098369 Eh     change       -0.4608208E-04 Eh
   gradient norm :     0.0027694 Eh/α   predicted    -0.3271984E-04 ( -29.00%)
   displ. norm   :     0.1685896 α      lambda       -0.5822589E-04
   maximum displ.:     0.0960393 α      in ANC's #10, #2, #6, ...

........................................................................
.............................. CYCLE   19 ..............................
........................................................................

 iter      E             dE          RMSdq      gap      omega  full diag
   1    -70.1560606 -0.701561E+02  0.434E-02    2.03       0.0  T
   2    -70.1560611 -0.491312E-06  0.258E-02    2.03       1.0  T
   3    -70.1560603  0.783470E-06  0.441E-03    2.03       3.2  T
   4    -70.1560613 -0.977915E-06  0.129E-03    2.03      11.1  T
   5    -70.1560613 -0.336135E-07  0.760E-04    2.03      18.8  T
   6    -70.1560613 -0.618060E-08  0.368E-04    2.03      38.9  T
     SCC iter.                  ...        0 min,  0.016 sec
     gradient                   ...        0 min,  0.030 sec
 * total energy  :   -69.2098794 Eh     change       -0.4246309E-04 Eh
   gradient norm :     0.0030909 Eh/α   predicted    -0.2994220E-04 ( -29.49%)
   displ. norm   :     0.2199392 α      lambda       -0.5744930E-04
   maximum displ.:     0.1165145 α      in ANC's #10, #2, #3, ...

........................................................................
.............................. CYCLE   20 ..............................
........................................................................

 iter      E             dE          RMSdq      gap      omega  full diag
   1    -70.1552268 -0.701552E+02  0.520E-02    2.02       0.0  T
   2    -70.1552278 -0.104816E-05  0.309E-02    2.02       1.0  T
   3    -70.1552263  0.153211E-05  0.640E-03    2.02       2.2  T
   4    -70.1552282 -0.190320E-05  0.173E-03    2.02       8.3  T
   5    -70.1552282 -0.686621E-07  0.974E-04    2.02      14.7  T
   6    -70.1552283 -0.118676E-07  0.409E-04    2.02      34.9  T
     SCC iter.                  ...        0 min,  0.016 sec
     gradient                   ...        0 min,  0.081 sec
 * total energy  :   -69.2099183 Eh     change       -0.3891048E-04 Eh
   gradient norm :     0.0036700 Eh/α   predicted    -0.3011527E-04 ( -22.60%)
   displ. norm   :     0.1691774 α      lambda       -0.7450647E-04
   maximum displ.:     0.0763898 α      in ANC's #10, #2, #9, ...
 * RMSD in coord.:     0.6054298 α      energy gain  -0.1316497E-01 Eh

generating ANC from exact Hessian ...
Using Lindh-Hessian (1995)
 Shifting diagonal of input Hessian by    9.8369782650467238E-003
 Lowest  eigenvalues of input Hessian
    0.000000    0.000000    0.000000    0.000000    0.000000    0.000000
    0.010000    0.010253    0.010758    0.010921    0.011104    0.011976
    0.012327    0.012427    0.012748    0.014077    0.014717    0.015053
 Highest eigenvalues
    1.846190    1.913930    1.956179    2.028478    2.148904    2.193816


........................................................................
.............................. CYCLE   21 ..............................
........................................................................

 iter      E             dE          RMSdq      gap      omega  full diag
   1    -70.1579757 -0.701580E+02  0.422E-02    2.02       0.0  T
   2    -70.1579765 -0.789342E-06  0.251E-02    2.02       1.0  T
   3    -70.1579763  0.214946E-06  0.375E-03    2.02       3.8  T
   4    -70.1579767 -0.440550E-06  0.139E-03    2.02      10.3  T
   5    -70.1579767 -0.221049E-07  0.795E-04    2.02      18.0  T
   6    -70.1579767 -0.710527E-08  0.396E-04    2.02      36.1  T
     SCC iter.                  ...        0 min,  0.055 sec
     gradient                   ...        0 min,  0.030 sec
 * total energy  :   -69.2099479 Eh     change       -0.2960387E-04 Eh
   gradient norm :     0.0034375 Eh/α   predicted     0.0000000E+00 (-100.00%)
   displ. norm   :     0.0334964 α      lambda       -0.4131101E-04
   maximum displ.:     0.0154724 α      in ANC's #11, #15, #3, ...

........................................................................
.............................. CYCLE   22 ..............................
........................................................................

 iter      E             dE          RMSdq      gap      omega  full diag
   1    -70.1569205 -0.701569E+02  0.112E-02    2.01       0.0  T
   2    -70.1569206 -0.167807E-06  0.658E-03    2.01       2.2  T
   3    -70.1569206  0.682261E-07  0.169E-03    2.01       8.5  T
   4    -70.1569207 -0.996140E-07  0.511E-04    2.01      27.9  T
   5    -70.1569207 -0.551854E-08  0.264E-04    2.01      54.0  T
     SCC iter.                  ...        0 min,  0.013 sec
     gradient                   ...        0 min,  0.069 sec
 * total energy  :   -69.2099791 Eh     change       -0.3119355E-04 Eh
   gradient norm :     0.0015433 Eh/α   predicted    -0.2068350E-04 ( -33.69%)
   displ. norm   :     0.1060520 α      lambda       -0.3965394E-04
   maximum displ.:     0.0544165 α      in ANC's #11, #3, #9, ...

........................................................................
.............................. CYCLE   23 ..............................
........................................................................

 iter      E             dE          RMSdq      gap      omega  full diag
   1    -70.1554217 -0.701554E+02  0.266E-02    2.00       0.0  T
   2    -70.1554224 -0.748084E-06  0.156E-02    2.00       1.0  T
   3    -70.1554221  0.300429E-06  0.374E-03    2.00       3.8  T
   4    -70.1554226 -0.500373E-06  0.119E-03    2.00      12.0  T
   5    -70.1554226 -0.157535E-07  0.685E-04    2.00      20.8  T
   6    -70.1554226 -0.408225E-08  0.437E-04    2.00      32.7  T
     SCC iter.                  ...        0 min,  0.067 sec
     gradient                   ...        0 min,  0.030 sec
 * total energy  :   -69.2100083 Eh     change       -0.2916221E-04 Eh
   gradient norm :     0.0023768 Eh/α   predicted    -0.1992641E-04 ( -31.67%)
   displ. norm   :     0.0392243 α      lambda       -0.1493613E-04
   maximum displ.:     0.0192912 α      in ANC's #11, #3, #2, ...

........................................................................
.............................. CYCLE   24 ..............................
........................................................................

 iter      E             dE          RMSdq      gap      omega  full diag
   1    -70.1557997 -0.701558E+02  0.825E-03    2.00       0.0  T
   2    -70.1557998 -0.349170E-07  0.490E-03    2.00       2.9  T
   3    -70.1557997  0.260902E-07  0.923E-04    2.00      15.5  T
   4    -70.1557998 -0.387824E-07  0.319E-04    2.00      44.8  T
     SCC iter.                  ...        0 min,  0.011 sec
     gradient                   ...        0 min,  0.070 sec
 * total energy  :   -69.2100222 Eh     change       -0.1393862E-04 Eh
   gradient norm :     0.0018622 Eh/α   predicted    -0.7479814E-05 ( -46.34%)
   displ. norm   :     0.3768305 α      lambda       -0.8292205E-04
   maximum displ.:     0.1818763 α      in ANC's #11, #3, #2, ...

........................................................................
.............................. CYCLE   25 ..............................
........................................................................

 iter      E             dE          RMSdq      gap      omega  full diag
   1    -70.1571150 -0.701571E+02  0.772E-02    1.98       0.0  T
   2    -70.1571178 -0.281070E-05  0.459E-02    1.98       1.0  T
   3    -70.1571140  0.378858E-05  0.972E-03    1.98       1.5  T
   4    -70.1571189 -0.489874E-05  0.243E-03    1.98       5.9  T
   5    -70.1571190 -0.714929E-07  0.132E-03    1.98      10.8  T
   6    -70.1571190 -0.230492E-07  0.546E-04    1.98      26.2  T
   7    -70.1571190 -0.983250E-08  0.206E-04    1.98      69.4  T
     SCC iter.                  ...        0 min,  0.063 sec
     gradient                   ...        0 min,  0.030 sec
 * total energy  :   -69.2100865 Eh     change       -0.6426171E-04 Eh
   gradient norm :     0.0033782 Eh/α   predicted    -0.4410658E-04 ( -31.36%)
   displ. norm   :     0.0707783 α      lambda       -0.2487398E-04
   maximum displ.:     0.0349933 α      in ANC's #3, #2, #11, ...

........................................................................
.............................. CYCLE   26 ..............................
........................................................................

 iter      E             dE          RMSdq      gap      omega  full diag
   1    -70.1572194 -0.701572E+02  0.136E-02    1.97       0.0  T
   2    -70.1572195 -0.909478E-07  0.809E-03    1.97       1.8  T
   3    -70.1572193  0.226898E-06  0.222E-03    1.97       6.4  T
   4    -70.1572196 -0.269417E-06  0.481E-04    1.97      29.7  T
   5    -70.1572196 -0.416011E-08  0.257E-04    1.97      55.7  T
     SCC iter.                  ...        0 min,  0.060 sec
     gradient                   ...        0 min,  0.030 sec
 * total energy  :   -69.2101091 Eh     change       -0.2262129E-04 Eh
   gradient norm :     0.0026325 Eh/α   predicted    -0.1250029E-04 ( -44.74%)
   displ. norm   :     0.2749061 α      lambda       -0.8771093E-04
   maximum displ.:     0.1374344 α      in ANC's #3, #2, #11, ...

........................................................................
.............................. CYCLE   27 ..............................
........................................................................

 iter      E             dE          RMSdq      gap      omega  full diag
   1    -70.1564651 -0.701565E+02  0.528E-02    1.97       0.0  T
   2    -70.1564662 -0.110870E-05  0.315E-02    1.97       1.0  T
   3    -70.1564633  0.286400E-05  0.796E-03    1.97       1.8  T
   4    -70.1564667 -0.339254E-05  0.170E-03    1.97       8.4  T
   5    -70.1564667 -0.467612E-07  0.891E-04    1.97      16.0  T
   6    -70.1564668 -0.969317E-08  0.345E-04    1.97      41.4  T
     SCC iter.                  ...        0 min,  0.016 sec
     gradient                   ...        0 min,  0.058 sec
 * total energy  :   -69.2101765 Eh     change       -0.6742975E-04 Eh
   gradient norm :     0.0011976 Eh/α   predicted    -0.4717016E-04 ( -30.05%)
   displ. norm   :     0.4983980 α      lambda       -0.6561811E-04
   maximum displ.:     0.2566984 α      in ANC's #3, #2, #10, ...

........................................................................
.............................. CYCLE   28 ..............................
........................................................................

 iter      E             dE          RMSdq      gap      omega  full diag
   1    -70.1533678 -0.701534E+02  0.941E-02    1.96       0.0  T
   2    -70.1533706 -0.284243E-05  0.560E-02    1.96       1.0  T
   3    -70.1533660  0.457790E-05  0.107E-02    1.95       1.3  T
   4    -70.1533718 -0.572488E-05  0.286E-03    1.95       5.0  T
   5    -70.1533719 -0.116147E-06  0.147E-03    1.95       9.7  T
   6    -70.1533719 -0.310217E-07  0.549E-04    1.95      26.0  T
   7    -70.1533719 -0.753830E-08  0.243E-04    1.95      58.8  T
     SCC iter.                  ...        0 min,  0.018 sec
     gradient                   ...        0 min,  0.081 sec
 * total energy  :   -69.2102128 Eh     change       -0.3627940E-04 Eh
   gradient norm :     0.0052871 Eh/α   predicted    -0.3643682E-04 (   0.43%)
   displ. norm   :     0.0683799 α      lambda       -0.7210035E-04
   maximum displ.:     0.0300638 α      in ANC's #11, #9, #3, ...

........................................................................
.............................. CYCLE   29 ..............................
........................................................................

 iter      E             dE          RMSdq      gap      omega  full diag
   1    -70.1553370 -0.701553E+02  0.200E-02    1.96       0.0  T
   2    -70.1553375 -0.516239E-06  0.118E-02    1.96       1.2  T
   3    -70.1553369  0.647184E-06  0.432E-03    1.96       3.3  T
   4    -70.1553377 -0.823718E-06  0.902E-04    1.96      15.8  T
   5    -70.1553377 -0.248796E-07  0.452E-04    1.96      31.6  T
     SCC iter.                  ...        0 min,  0.014 sec
     gradient                   ...        0 min,  0.057 sec
 * total energy  :   -69.2102507 Eh     change       -0.3792582E-04 Eh
   gradient norm :     0.0028513 Eh/α   predicted    -0.3624080E-04 (  -4.44%)
   displ. norm   :     0.0978272 α      lambda       -0.2897279E-04
   maximum displ.:     0.0580782 α      in ANC's #3, #2, #1, ...

........................................................................
.............................. CYCLE   30 ..............................
........................................................................

 iter      E             dE          RMSdq      gap      omega  full diag
   1    -70.1560219 -0.701560E+02  0.186E-02    1.96       0.0  T
   2    -70.1560221 -0.140133E-06  0.110E-02    1.96       1.3  T
   3    -70.1560217  0.336377E-06  0.282E-03    1.96       5.1  T
   4    -70.1560221 -0.402651E-06  0.608E-04    1.96      23.5  T
   5    -70.1560221 -0.722576E-08  0.322E-04    1.96      44.3  T
     SCC iter.                  ...        0 min,  0.013 sec
     gradient                   ...        0 min,  0.081 sec
 * total energy  :   -69.2102763 Eh     change       -0.2563085E-04 Eh
   gradient norm :     0.0017344 Eh/α   predicted    -0.1462537E-04 ( -42.94%)
   displ. norm   :     0.3937189 α      lambda       -0.6287538E-04
   maximum displ.:     0.2294720 α      in ANC's #3, #2, #1, ...

........................................................................
.............................. CYCLE   31 ..............................
........................................................................

 iter      E             dE          RMSdq      gap      omega  full diag
   1    -70.1568395 -0.701568E+02  0.754E-02    1.96       0.0  T
   2    -70.1568416 -0.214887E-05  0.446E-02    1.96       1.0  T
   3    -70.1568363  0.534177E-05  0.112E-02    1.96       1.3  T
   4    -70.1568427 -0.638985E-05  0.242E-03    1.96       5.9  T
   5    -70.1568428 -0.109556E-06  0.125E-03    1.96      11.4  T
   6    -70.1568428 -0.175893E-07  0.364E-04    1.96      39.3  T
   7    -70.1568428 -0.240314E-08  0.158E-04    1.96      90.5  T
     SCC iter.                  ...        0 min,  0.018 sec
     gradient                   ...        0 min,  0.075 sec
 * total energy  :   -69.2103334 Eh     change       -0.5708755E-04 Eh
   gradient norm :     0.0025392 Eh/α   predicted    -0.3360896E-04 ( -41.13%)
   displ. norm   :     0.1595581 α      lambda       -0.2719318E-04
   maximum displ.:     0.0950114 α      in ANC's #3, #2, #1, ...

........................................................................
.............................. CYCLE   32 ..............................
........................................................................

 iter      E             dE          RMSdq      gap      omega  full diag
   1    -70.1568889 -0.701569E+02  0.309E-02    1.96       0.0  T
   2    -70.1568892 -0.265434E-06  0.182E-02    1.96       1.0  T
   3    -70.1568889  0.348072E-06  0.305E-03    1.96       4.7  T
   4    -70.1568893 -0.445359E-06  0.850E-04    1.96      16.8  T
   5    -70.1568893 -0.147127E-07  0.455E-04    1.96      31.4  T
     SCC iter.                  ...        0 min,  0.013 sec
     gradient                   ...        0 min,  0.063 sec
 * total energy  :   -69.2103572 Eh     change       -0.2382144E-04 Eh
   gradient norm :     0.0022667 Eh/α   predicted    -0.1394633E-04 ( -41.45%)
   displ. norm   :     0.3288095 α      lambda       -0.5415306E-04
   maximum displ.:     0.1922493 α      in ANC's #3, #2, #1, ...

........................................................................
.............................. CYCLE   33 ..............................
........................................................................

 iter      E             dE          RMSdq      gap      omega  full diag
   1    -70.1562963 -0.701563E+02  0.651E-02    1.96       0.0  T
   2    -70.1562972 -0.903034E-06  0.383E-02    1.96       1.0  T
   3    -70.1562969  0.311327E-06  0.405E-03    1.96       3.5  T
   4    -70.1562975 -0.617065E-06  0.148E-03    1.96       9.7  T
   5    -70.1562976 -0.195191E-07  0.844E-04    1.96      16.9  T
   6    -70.1562976 -0.159651E-07  0.313E-04    1.96      45.7  T
     SCC iter.                  ...        0 min,  0.016 sec
     gradient                   ...        0 min,  0.081 sec
 * total energy  :   -69.2103995 Eh     change       -0.4220558E-04 Eh
   gradient norm :     0.0015322 Eh/α   predicted    -0.3000453E-04 ( -28.91%)
   displ. norm   :     0.4853882 α      lambda       -0.4044640E-04
   maximum displ.:     0.2763365 α      in ANC's #3, #1, #2, ...

........................................................................
.............................. CYCLE   34 ..............................
........................................................................

 iter      E             dE          RMSdq      gap      omega  full diag
   1    -70.1549820 -0.701550E+02  0.975E-02    1.96       0.0  T
   2    -70.1549837 -0.173744E-05  0.573E-02    1.96       1.0  T
   3    -70.1549835  0.253956E-06  0.494E-03    1.96       2.9  T
   4    -70.1549843 -0.875726E-06  0.193E-03    1.96       7.4  T
   5    -70.1549844 -0.178872E-07  0.991E-04    1.96      14.4  T
   6    -70.1549844 -0.234594E-07  0.379E-04    1.96      37.7  T
     SCC iter.                  ...        0 min,  0.016 sec
     gradient                   ...        0 min,  0.030 sec
 * total energy  :   -69.2104311 Eh     change       -0.3165723E-04 Eh
   gradient norm :     0.0021285 Eh/α   predicted    -0.2234338E-04 ( -29.42%)
   displ. norm   :     0.0397320 α      lambda       -0.1639880E-04
   maximum displ.:     0.0182407 α      in ANC's #1, #4, #8, ...

........................................................................
.............................. CYCLE   35 ..............................
........................................................................

 iter      E             dE          RMSdq      gap      omega  full diag
   1    -70.1567047 -0.701567E+02  0.939E-03    1.96       0.0  T
   2    -70.1567047 -0.858645E-07  0.551E-03    1.96       2.6  T
   3    -70.1567047  0.484062E-07  0.127E-03    1.96      11.3  T
   4    -70.1567048 -0.658630E-07  0.324E-04    1.96      44.0  T
   5    -70.1567048 -0.273184E-08  0.170E-04    1.96      84.2  T
     SCC iter.                  ...        0 min,  0.035 sec
     gradient                   ...        0 min,  0.030 sec
 * total energy  :   -69.2104413 Eh     change       -0.1019533E-04 Eh
   gradient norm :     0.0018526 Eh/α   predicted    -0.8215749E-05 ( -19.42%)
   displ. norm   :     0.1341291 α      lambda       -0.2234594E-04
   maximum displ.:     0.0849911 α      in ANC's #1, #4, #2, ...

........................................................................
.............................. CYCLE   36 ..............................
........................................................................

 iter      E             dE          RMSdq      gap      omega  full diag
   1    -70.1578265 -0.701578E+02  0.264E-02    1.96       0.0  T
   2    -70.1578269 -0.442124E-06  0.155E-02    1.96       1.0  T
   3    -70.1578264  0.514142E-06  0.365E-03    1.96       3.9  T
   4    -70.1578271 -0.644076E-06  0.103E-03    1.96      13.9  T
   5    -70.1578271 -0.238671E-07  0.617E-04    1.96      23.2  T
   6    -70.1578271 -0.388223E-08  0.398E-04    1.96      35.9  T
     SCC iter.                  ...        0 min,  0.016 sec
     gradient                   ...        0 min,  0.030 sec
 * total energy  :   -69.2104502 Eh     change       -0.8936357E-05 Eh
   gradient norm :     0.0020620 Eh/α   predicted    -0.1126463E-04 (  26.05%)
   displ. norm   :     0.0257636 α      lambda       -0.1033388E-04
   maximum displ.:     0.0155947 α      in ANC's #1, #2, #9, ...

........................................................................
.............................. CYCLE   37 ..............................
........................................................................

 iter      E             dE          RMSdq      gap      omega  full diag
   1    -70.1573698 -0.701574E+02  0.664E-03    1.96       0.0  T
   2    -70.1573698 -0.361390E-07  0.393E-03    1.96       3.6  T
   3    -70.1573698  0.306154E-07  0.103E-03    1.96      13.9  T
   4    -70.1573698 -0.413765E-07  0.219E-04    1.96      65.3  T
   5    -70.1573698 -0.777490E-09  0.140E-04    1.96     101.7  T
     SCC iter.                  ...        0 min,  0.041 sec
     gradient                   ...        0 min,  0.030 sec
 * total energy  :   -69.2104579 Eh     change       -0.7683844E-05 Eh
   gradient norm :     0.0010816 Eh/α   predicted    -0.5171809E-05 ( -32.69%)
   displ. norm   :     0.0495395 α      lambda       -0.7819319E-05
   maximum displ.:     0.0373390 α      in ANC's #1, #2, #4, ...

........................................................................
.............................. CYCLE   38 ..............................
........................................................................

 iter      E             dE          RMSdq      gap      omega  full diag
   1    -70.1562827 -0.701563E+02  0.105E-02    1.96       0.0  T
   2    -70.1562828 -0.836998E-07  0.617E-03    1.96       2.3  T
   3    -70.1562828  0.646551E-07  0.153E-03    1.96       9.4  T
   4    -70.1562828 -0.881465E-07  0.313E-04    1.96      45.6  T
   5    -70.1562829 -0.142971E-08  0.187E-04    1.96      76.4  T
     SCC iter.                  ...        0 min,  0.059 sec
     gradient                   ...        0 min,  0.030 sec
 * total energy  :   -69.2104640 Eh     change       -0.6044532E-05 Eh
   gradient norm :     0.0011112 Eh/α   predicted    -0.3914677E-05 ( -35.24%)
   displ. norm   :     0.0259722 α      lambda       -0.3059632E-05
   maximum displ.:     0.0200625 α      in ANC's #1, #3, #8, ...

........................................................................
.............................. CYCLE   39 ..............................
........................................................................

 iter      E             dE          RMSdq      gap      omega  full diag
   1    -70.1563449 -0.701563E+02  0.423E-03    1.96       0.0  T
   2    -70.1563449 -0.990980E-08  0.252E-03    1.96       5.7  T
   3    -70.1563449  0.108260E-07  0.564E-04    1.96      25.3  T
   4    -70.1563449 -0.148354E-07  0.150E-04    1.96      95.3  T
     SCC iter.                  ...        0 min,  0.011 sec
     gradient                   ...        0 min,  0.063 sec
 * total energy  :   -69.2104681 Eh     change       -0.4158617E-05 Eh
   gradient norm :     0.0009030 Eh/α   predicted    -0.1531861E-05 ( -63.16%)
   displ. norm   :     0.0688435 α      lambda       -0.7091436E-05
   maximum displ.:     0.0440107 α      in ANC's #3, #1, #10, ...

   *** GEOMETRY OPTIMIZATION CONVERGED AFTER 39 ITERATIONS ***

------------------------------------------------------------------------
 total energy gain   :        -0.0137148 Eh       -8.6062 kcal/mol
 total RMSD          :         0.8028882 a0        0.4249 Å
 total power (kW/mol):        -0.9232877 (step)   -9.3294 (real)
------------------------------------------------------------------------

 ANCopt (total)                0 d,  0 h,  0 min,  3.860 sec
 optimizer setup                ...        0 min,  0.000 sec (  0.002%)
 model hessian                  ...        0 min,  0.090 sec (  2.331%)
 ANC generation                 ...        0 min,  0.004 sec (  0.107%)
 coordinate transformation      ...        0 min,  0.000 sec (  0.010%)
 single point calculation       ...        0 min,  3.754 sec ( 97.252%)
 optimization log               ...        0 min,  0.006 sec (  0.164%)
 hessian update                 ...        0 min,  0.001 sec (  0.016%)
 rational function              ...        0 min,  0.003 sec (  0.084%)

================
 final structure:
================
49
 xtb: 6.7.1 (edcfbbe)
C            1.16344845707886       -1.44358611472364       -4.18711058452821
C            0.54581586154920       -0.98963991464003       -2.86376925605226
N            1.59132684560796       -0.56290998655260       -1.95986961451773
C            1.63122847603016        0.61592830397861       -1.28841698529589
C            1.02310234076341        1.76907158302910       -1.77228063213053
C            1.05877903155422        2.93916033692111       -1.02107379306099
N            1.64084145640291        3.05552952355962        0.14732065055574
C            2.29030943335770        1.97819148402355        0.63178777376808
C            2.33738230085502        0.72606583062090       -0.04436019160629
C            3.03860075730011       -0.33083440838678        0.56613438658852
C            3.65911004082749       -0.17493901273092        1.77572191811030
C            3.60026621633636        1.06306704476086        2.43008348016048
Cl           4.39068476352983        1.23293395901571        3.95771241746337
C            2.93285439999418        2.12053113892440        1.87921146438357
C           -0.27328933096231       -2.12587964281284       -2.22725280479056
C           -0.80845149288261       -1.80768380843215       -0.82958135738918
C           -1.80615377280631       -0.64632999821682       -0.79817250346117
N           -2.28524479026158       -0.43127794936990        0.55633782017328
C           -3.42737944096172       -1.25458313607017        0.91413207979398
C           -3.40757747172685       -1.60210752182019        2.39941370428556
C           -2.44071551520975        0.97090180412953        0.89955641388056
C           -1.10550997021934        1.55756305655654        1.37040294072477
O           -1.17333150096478        2.96253403231292        1.31984494585477
H            1.83686447147296       -2.28223752255764       -4.02353237626509
H            1.72838400190403       -0.63063187698779       -4.63599438023692
H            0.38626876416611       -1.75362685165018       -4.88009327457707
H           -0.11575039663034       -0.14310351134234       -3.05464876661615
H            2.09227780700875       -1.33161728832195       -1.54160589018224
H            0.51574932245355        1.77392989656087       -2.72338612276714
H            0.56663879566605        3.83052066302402       -1.38824300514296
H            3.10625931244981       -1.29622972332823        0.08428978253370
H            4.19214202954802       -0.99384532006129        2.23266982348425
H            2.88289100215950        3.07978384753048        2.36831600895289
H           -1.10852558573061       -2.35837566192106       -2.89042699074149
H            0.35747924234476       -3.01718763764802       -2.16544897662092
H            0.01111632537926       -1.56401741419954       -0.15111339918596
H           -1.29522083112821       -2.70185213667670       -0.43647252673729
H           -1.30401589881000        0.26443714539208       -1.12795775259006
H           -2.63417060786448       -0.84636082313690       -1.49940258892628
H           -4.38126905412456       -0.76247065302632        0.65768481054411
H           -3.37049089909766       -2.18200502031067        0.33995832356094
H           -4.23444788895856       -2.26627535186337        2.63928310232886
H           -3.49354595137863       -0.70819410837541        3.01067268050581
H           -2.47171247061281       -2.09531842748669        2.64743222847813
H           -2.79498755351634        1.57274450493511        0.04815922444836
H           -3.17421506321123        1.07473525440500        1.69831169818141
H           -0.31101017166492        1.18035344349222        0.71909635350917
H           -0.88733486483757        1.21564489740194        2.39145768917298
H           -0.27527093217908        3.31969307208033        1.28882205196688

 Bond Distances (Angstroems)
 ---------------------------
C1-C2=1.5293         C1-H24=1.0879        C1-H25=1.0870        C1-H26=1.0864        C2-C1=1.5293         C2-N3=1.4465         
C2-C15=1.5385        C2-H27=1.0912        N3-C2=1.4465         N3-C4=1.3572         N3-H28=1.0084        C4-N3=1.3572         
C4-C5=1.3906         C4-C9=1.4347         C5-C4=1.3906         C5-C6=1.3909         C5-H29=1.0780        C6-C5=1.3909         
C6-N7=1.3105         C6-H30=1.0824        N7-C6=1.3105         N7-C8=1.3480         C8-N7=1.3480         C8-C9=1.4238         
C8-C14=1.4104        C9-C4=1.4347         C9-C8=1.4238         C9-C10=1.4076        C10-C9=1.4076        C10-C11=1.3684       
C10-H31=1.0811       C11-C10=1.3684       C11-C12=1.4015       C11-H32=1.0787       C12-C11=1.4015       C12-Cl13=1.7284      
C12-C14=1.3664       Cl13-C12=1.7284      C14-C8=1.4104        C14-C12=1.3664       C14-H33=1.0779       C15-C2=1.5385        
C15-C16=1.5301       C15-H34=1.0915       C15-H35=1.0937       C16-C15=1.5301       C16-C17=1.5314       C16-H36=1.0915       
C16-H37=1.0913       C17-C16=1.5314       C17-N18=1.4527       C17-H38=1.0911       C17-H39=1.1033       N18-C17=1.4527       
N18-C19=1.4527       N18-C21=1.4519       C19-N18=1.4527       C19-C20=1.5255       C19-H40=1.1036       C19-H41=1.0923       
C20-C19=1.5255       C20-H42=1.0874       C20-H43=1.0863       C20-H44=1.0866       C21-N18=1.4519       C21-C22=1.5325       
C21-H45=1.1012       C21-H46=1.0894       C22-C21=1.5325       C22-O23=1.4075       C22-H47=1.0944       C22-H48=1.0987       
O23-C22=1.4075       O23-H49=0.9670       H24-C1=1.0879        H25-C1=1.0870        H26-C1=1.0864        H27-C2=1.0912        
H28-N3=1.0084        H29-C5=1.0780        H30-C6=1.0824        H31-C10=1.0811       H32-C11=1.0787       H33-C14=1.0779       
H34-C15=1.0915       H35-C15=1.0937       H36-C16=1.0915       H37-C16=1.0913       H38-C17=1.0911       H39-C17=1.1033       
H40-C19=1.1036       H41-C19=1.0923       H42-C20=1.0874       H43-C20=1.0863       H44-C20=1.0866       H45-C21=1.1012       
H46-C21=1.0894       H47-C22=1.0944       H48-C22=1.0987       H49-O23=0.9670       
 C  H  Rav=1.0897 sigma=0.0071  Rmin=1.0779  Rmax=1.1036    24
 C  C  Rav=1.4521 sigma=0.0668  Rmin=1.3664  Rmax=1.5385    15
 N  H  Rav=1.0084 sigma=0.0000  Rmin=1.0084  Rmax=1.0084     1
 N  C  Rav=1.4028 sigma=0.0572  Rmin=1.3105  Rmax=1.4527     7
 O  H  Rav=0.9670 sigma=0.0000  Rmin=0.9670  Rmax=0.9670     1
 O  C  Rav=1.4075 sigma=0.0000  Rmin=1.4075  Rmax=1.4075     1
 Cl C  Rav=1.7284 sigma=0.0000  Rmin=1.7284  Rmax=1.7284     1

 selected bond angles (degree)
 --------------------
H24-C1-C2=110.41               H25-C1-C2=110.20               H25-C1-H24=108.48              H26-C1-C2=110.35               
H26-C1-H24=108.58              H26-C1-H25=108.77              N3-C2-C1=109.66                C15-C2-C1=110.72               
C15-C2-N3=110.13               H27-C2-C1=108.89               H27-C2-N3=108.58               H27-C2-C15=108.82              
C4-N3-C2=125.92                H28-N3-C2=113.17               H28-N3-C4=116.25               C5-C4-N3=122.36                
C9-C4-N3=120.67                C9-C4-C5=116.96                C6-C5-C4=119.90                H29-C5-C4=121.10               
H29-C5-C6=119.00               N7-C6-C5=124.58                H30-C6-C5=119.86               H30-C6-N7=115.55               
C8-N7-C6=117.61                C9-C8-N7=123.24                C14-C8-N7=117.17               C14-C8-C9=119.58               
C8-C9-C4=117.58                C10-C9-C4=124.31               C10-C9-C8=118.09               C11-C10-C9=121.58              
H31-C10-C9=120.55              H31-C10-C11=117.86             

 selected dihedral angles (degree)
 ---------------------------------
N3-C2-C1-H24= 60.75           N3-C2-C1-H25=300.94           N3-C2-C1-H26=180.80           C15-C2-C1-H24=299.03          
C15-C2-C1-H25=179.21          C15-C2-C1-H26= 59.07          H27-C2-C1-H24=179.43          H27-C2-C1-H25= 59.62          
H27-C2-C1-H26=299.47          C4-N3-C2-C1=128.69            C4-N3-C2-C15=250.76           C4-N3-C2-H27=  9.82           
H28-N3-C2-C1=283.38           H28-N3-C2-C15= 45.46          H28-N3-C2-H27=164.51          C5-C4-N3-C2=331.81            
C5-C4-N3-H28=177.79           C9-C4-N3-C2=153.07            C9-C4-N3-H28=359.06           C6-C5-C4-N3=177.92            
C6-C5-C4-C9=356.70            H29-C5-C4-N3=358.24           H29-C5-C4-C9=177.02           N7-C6-C5-C4=  0.17            
N7-C6-C5-H29=179.86           H30-C6-C5-C4=181.34           H30-C6-C5-H29=  1.02          C8-N7-C6-C5=  2.46            
C8-N7-C6-H30=181.34           C9-C8-N7-C6=358.15            C14-C8-N7-C6=178.94           C8-C9-C4-N3=182.55            
C8-C9-C4-C5=  3.74            C10-C9-C4-N3=  0.66           C10-C9-C4-C5=181.85           C4-C9-C8-N7=358.74            
C4-C9-C8-C14=177.93           C10-C9-C8-N7=180.50           C10-C9-C8-C14=359.70          C11-C10-C9-C4=182.06          
C11-C10-C9-C8=  0.16          H31-C10-C9-C4=  2.37          H31-C10-C9-C8=180.48          
           -------------------------------------------------
          |                Final Singlepoint                |
           -------------------------------------------------

          ...................................................
          :                      SETUP                      :
          :.................................................:
          :  # basis functions                 124          :
          :  # atomic orbitals                 123          :
          :  # shells                           73          :
          :  # electrons                       126          :
          :  max. iterations                   250          :
          :  Hamiltonian                  GFN2-xTB          :
          :  restarted?                      false          :
          :  GBSA solvation                  false          :
          :  PC potential                    false          :
          :  electronic temp.          300.0000000     K    :
          :  accuracy                    1.0000000          :
          :  -> integral cutoff          0.2500000E+02      :
          :  -> integral neglect         0.1000000E-07      :
          :  -> SCF convergence          0.1000000E-05 Eh   :
          :  -> wf. convergence          0.1000000E-03 e    :
          :  Broyden damping             0.4000000          :
          :  net charge                          0          :
          :  unpaired electrons                  0          :
          ...................................................

 iter      E             dE          RMSdq      gap      omega  full diag
   1    -70.1563449 -0.701563E+02  0.991E-05    1.96       0.0  T
   2    -70.1563449 -0.822666E-10  0.755E-05    1.96     189.2  T
   3    -70.1563449 -0.665068E-10  0.587E-05    1.96     243.3  T

   *** convergence criteria satisfied after 3 iterations ***

         #    Occupation            Energy/Eh            Energy/eV
      -------------------------------------------------------------
         1        2.0000           -1.0531207             -28.6569
       ...           ...                  ...                  ...
        57        2.0000           -0.4159120             -11.3175
        58        2.0000           -0.4149201             -11.2906
        59        2.0000           -0.3987401             -10.8503
        60        2.0000           -0.3953729             -10.7586
        61        2.0000           -0.3730326             -10.1507
        62        2.0000           -0.3682799             -10.0214
        63        2.0000           -0.3428590              -9.3297 (HOMO)
        64                         -0.2707525              -7.3675 (LUMO)
        65                         -0.2413656              -6.5679
        66                         -0.2050020              -5.5784
        67                         -0.1586540              -4.3172
        68                         -0.1349346              -3.6718
       ...                                ...                  ...
       123                          0.6755571              18.3828
      -------------------------------------------------------------
                  HL-Gap            0.0721065 Eh            1.9621 eV
             Fermi-level           -0.3068057 Eh           -8.3486 eV

 SCC (total)                   0 d,  0 h,  0 min,  0.049 sec
 SCC setup                      ...        0 min,  0.000 sec (  0.747%)
 Dispersion                     ...        0 min,  0.000 sec (  0.817%)
 classical contributions        ...        0 min,  0.000 sec (  0.380%)
 integral evaluation            ...        0 min,  0.009 sec ( 19.065%)
 iterations                     ...        0 min,  0.008 sec ( 16.997%)
 molecular gradient             ...        0 min,  0.030 sec ( 61.596%)
 printout                       ...        0 min,  0.000 sec (  0.384%)

         :::::::::::::::::::::::::::::::::::::::::::::::::::::
         ::                     SUMMARY                     ::
         :::::::::::::::::::::::::::::::::::::::::::::::::::::
         :: total energy             -69.210468128302 Eh    ::
         :: gradient norm              0.000903661054 Eh/a0 ::
         :: HOMO-LUMO gap              1.962118821834 eV    ::
         ::.................................................::
         :: SCC energy               -70.154625386292 Eh    ::
         :: -> isotropic ES            0.053793709601 Eh    ::
         :: -> anisotropic ES          0.009490142358 Eh    ::
         :: -> anisotropic XC          0.037286367389 Eh    ::
         :: -> dispersion             -0.054380260334 Eh    ::
         :: repulsion energy           0.944157257991 Eh    ::
         :: add. restraining           0.000000000000 Eh    ::
         :: total charge               0.000000000000 e     ::
         :::::::::::::::::::::::::::::::::::::::::::::::::::::

           -------------------------------------------------
          |                Property Printout                |
           -------------------------------------------------

    * Orbital Energies and Occupations

         #    Occupation            Energy/Eh            Energy/eV
      -------------------------------------------------------------
         1        2.0000           -1.0531207             -28.6569
       ...           ...                  ...                  ...
        51        2.0000           -0.4455276             -12.1234
        52        2.0000           -0.4419683             -12.0266
        53        2.0000           -0.4378903             -11.9156
        54        2.0000           -0.4348951             -11.8341
        55        2.0000           -0.4323410             -11.7646
        56        2.0000           -0.4281309             -11.6500
        57        2.0000           -0.4159120             -11.3175
        58        2.0000           -0.4149201             -11.2906
        59        2.0000           -0.3987401             -10.8503
        60        2.0000           -0.3953729             -10.7586
        61        2.0000           -0.3730326             -10.1507
        62        2.0000           -0.3682799             -10.0214
        63        2.0000           -0.3428590              -9.3297 (HOMO)
        64                         -0.2707525              -7.3675 (LUMO)
        65                         -0.2413656              -6.5679
        66                         -0.2050020              -5.5784
        67                         -0.1586540              -4.3172
        68                         -0.1349346              -3.6718
        69                         -0.0754393              -2.0528
        70                         -0.0087134              -0.2371
        71                          0.0010113               0.0275
        72                          0.0180038               0.4899
        73                          0.0228812               0.6226
        74                          0.0229810               0.6253
       ...                                ...                  ...
       123                          0.6755571              18.3828
      -------------------------------------------------------------
                  HL-Gap            0.0721065 Eh            1.9621 eV
             Fermi-level           -0.3068057 Eh           -8.3486 eV

     #   Z          covCN         q      C6AA      α(0)
     1   6 C        3.756    -0.118    22.815     6.811
     2   6 C        3.786     0.042    19.877     6.350
     3   7 N        2.694    -0.167    24.613     7.368
     4   6 C        2.901     0.085    26.099     8.377
     5   6 C        2.914    -0.079    29.970     8.977
     6   6 C        2.903     0.067    26.505     8.442
     7   7 N        1.843    -0.271    27.874     7.824
     8   6 C        2.977     0.092    25.940     8.354
     9   6 C        2.982    -0.028    28.681     8.785
    10   6 C        2.918    -0.035    28.878     8.812
    11   6 C        2.951    -0.045    29.109     8.849
    12   6 C        2.885     0.099    25.803     8.328
    13  17 Cl       0.969    -0.177   104.714    15.655
    14   6 C        2.962    -0.054    29.344     8.885
    15   6 C        3.804    -0.071    21.857     6.656
    16   6 C        3.802    -0.065    21.750     6.640
    17   6 C        3.752     0.009    20.492     6.456
    18   7 N        2.730    -0.189    25.105     7.442
    19   6 C        3.750     0.014    20.395     6.441
    20   6 C        3.752    -0.111    22.690     6.793
    21   6 C        3.752     0.004    20.568     6.468
    22   6 C        3.675     0.085    19.390     6.310
    23   8 O        1.655    -0.451    21.865     6.312
    24   1 H        0.925     0.043     2.408     2.427
    25   1 H        0.925     0.050     2.320     2.382
    26   1 H        0.925     0.047     2.358     2.401
    27   1 H        0.924     0.050     2.320     2.382
    28   1 H        0.860     0.165     1.306     1.790
    29   1 H        0.926     0.028     2.609     2.526
    30   1 H        0.925     0.039     2.461     2.453
    31   1 H        0.926     0.033     2.544     2.494
    32   1 H        0.926     0.054     2.270     2.356
    33   1 H        0.926     0.072     2.069     2.249
    34   1 H        0.924     0.042     2.422     2.434
    35   1 H        0.924     0.036     2.500     2.473
    36   1 H        0.924     0.039     2.459     2.452
    37   1 H        0.924     0.041     2.430     2.438
    38   1 H        0.924     0.034     2.527     2.486
    39   1 H        0.923     0.010     2.886     2.657
    40   1 H        0.923     0.010     2.895     2.661
    41   1 H        0.924     0.033     2.542     2.493
    42   1 H        0.925     0.038     2.472     2.459
    43   1 H        0.925     0.042     2.416     2.431
    44   1 H        0.925     0.046     2.373     2.409
    45   1 H        0.923     0.027     2.630     2.536
    46   1 H        0.925     0.047     2.362     2.404
    47   1 H        0.924     0.013     2.840     2.636
    48   1 H        0.923     0.020     2.730     2.584
    49   1 H        0.805     0.303     0.713     1.326

 Mol. C6AA /au·bohr⁶  :      25129.681819
 Mol. C8AA /au·bohr⁸  :     598259.900840
 Mol. α(0) /au        :        243.670756


Wiberg/Mayer (AO) data.
largest (>0.10) Wiberg bond orders for each atom

 ---------------------------------------------------------------------------
     #   Z sym  total        # sym  WBO       # sym  WBO       # sym  WBO
 ---------------------------------------------------------------------------
     1   6 C    3.992 --     2 C    0.999    24 H    0.986    25 H    0.985
                            26 H    0.985
     2   6 C    3.972 --     1 C    0.999     3 N    0.988    15 C    0.982
                            27 H    0.956
     3   7 N    3.410 --     4 C    1.223     2 C    0.988    28 H    0.931
     4   6 C    3.971 --     5 C    1.385     3 N    1.223     9 C    1.189
     5   6 C    3.979 --     4 C    1.385     6 C    1.378    29 H    0.963
     6   6 C    3.980 --     7 N    1.486     5 C    1.378    30 H    0.963
     7   7 N    3.044 --     6 C    1.486     8 C    1.279
     8   6 C    3.983 --     7 N    1.279    14 C    1.271     9 C    1.244
     9   6 C    3.987 --    10 C    1.305     8 C    1.244     4 C    1.189
    10   6 C    3.992 --    11 C    1.537     9 C    1.305    31 H    0.958
                            14 C    0.111
    11   6 C    3.987 --    10 C    1.537    12 C    1.302    32 H    0.968
    12   6 C    3.917 --    14 C    1.510    11 C    1.302    13 Cl   0.973
    13  17 Cl   1.106 --    12 C    0.973
    14   6 C    3.986 --    12 C    1.510     8 C    1.271    33 H    0.963
                            10 C    0.111
    15   6 C    3.991 --    16 C    1.007     2 C    0.982    35 H    0.975
                            34 H    0.974
    16   6 C    3.996 --    15 C    1.007    17 C    1.000    36 H    0.975
                            37 H    0.973
    17   6 C    3.988 --    18 N    1.005    16 C    1.000    38 H    0.968
                            39 H    0.967
    18   7 N    3.129 --    21 C    1.005    17 C    1.005    19 C    1.002
    19   6 C    3.987 --    20 C    1.014    18 N    1.002    41 H    0.972
[...]
     DOI: 10.1021/acsomega.9b02011
   
   for metadynamics refer to:
   * S. Grimme, J. Chem. Theory Comput., 2019, 155, 2847-2862
     DOI: 10.1021/acs.jctc.9b00143
   
   for SPH calculations refer to:
   * S. Spicher and S. Grimme, J. Chem. Theory Comput., 2021, 17, 1701-1714
     DOI: 10.1021/acs.jctc.0c01306
   
   for ONIOM refer to:
   * C. Plett, A. Katbashev, S. Ehlert, S. Grimme, M. Bursch,
     Phys. Chem. Chem. Phys., 2023, 25, 17860-17868. DOI: 10.1039/D3CP02178E
   
   for DIPRO refer to:
   * J. Kohn, N. Gildemeister, S. Grimme, D. Fazzi, A. Hansen,
     J. Chem. Phys., 2023, just accepted.
   
   for PTB refer to:
   * S. Grimme, M. Mueller, A. Hansen, J. Chem. Phys., 2023, 158, 124111.
     DOI: 10.1063/5.0137838
   
   with help from (in alphabetical order)
   P. Atkinson, C. Bannwarth, F. Bohle, G. Brandenburg, E. Caldeweyher
   M. Checinski, S. Dohm, S. Ehlert, S. Ehrlich, I. Gerasimov, C. Hölzer
   A. Katbashev, J. Kohn, J. Koopman, C. Lavigne, S. Lehtola, F. März, M. Müller,
   F. Musil, H. Neugebauer, J. Pisarek, C. Plett, P. Pracht, F. Pultar,
   J. Seibert, P. Shushkov, S. Spicher, M. Stahn, M. Steiner, T. Strunk,
   J. Stückrath, T. Rose, and J. Unsleber
   
 * started run on 2025/05/15 at 16:13:51.923     
   ID    Z sym.   atoms
    1    6 C      1, 2, 4-6, 8-12, 14-17, 19-22
    2    7 N      3, 7, 18
    3   17 Cl     13
    4    8 O      23
    5    1 H      24-49

           -------------------------------------------------
          |                Calculation Setup                |
           -------------------------------------------------

          program call               : xtb /rds/general/user/hgt20/home/callum/QDESCP/Hydroxychloroquine_rdkit_conf_13/Hydroxychloroquine_rdkit_conf_13.xyz --acc 1 --gfn 2 --chrg 0 --uhf 2 --etemp 300 --input /rds/general/user/hgt20/home/callum/QDESCP/Hydroxychloroquine_rdkit_conf_13/Hydroxychloroquine_rdkit_conf_13_xtb.inp -P 1
          hostname                   : login-c
          coordinate file            : /rds/general/user/hgt20/home/callum/QDESCP/Hydroxychloroquine_rdkit_conf_13/Hydroxychloroquine_rdkit_conf_13.xyz
          omp threads                :                     1


           -------------------------------------------------
          |                 G F N 2 - x T B                 |
           -------------------------------------------------

        Reference                      10.1021/acs.jctc.8b01176
      * Hamiltonian:
        H0-scaling (s, p, d)           1.850000    2.230000    2.230000
        zeta-weighting                 0.500000
      * Dispersion:
        s8                             2.700000
        a1                             0.520000
        a2                             5.000000
        s9                             5.000000
      * Repulsion:
        kExp                           1.500000    1.000000
        rExp                           1.000000
      * Coulomb:
        alpha                          2.000000
        third order                    shell-resolved
        anisotropic                    true
        a3                             3.000000
        a5                             4.000000
        cn-shift                       1.200000
        cn-exp                         4.000000
        max-rad                        5.000000


          ...................................................
          :                      SETUP                      :
          :.................................................:
          :  # basis functions                 124          :
          :  # atomic orbitals                 123          :
          :  # shells                           73          :
          :  # electrons                       126          :
          :  max. iterations                   250          :
          :  Hamiltonian                  GFN2-xTB          :
          :  restarted?                      false          :
          :  GBSA solvation                  false          :
          :  PC potential                    false          :
          :  electronic temp.          300.0000000     K    :
          :  accuracy                    1.0000000          :
          :  -> integral cutoff          0.2500000E+02      :
          :  -> integral neglect         0.1000000E-07      :
          :  -> SCF convergence          0.1000000E-05 Eh   :
          :  -> wf. convergence          0.1000000E-03 e    :
          :  Broyden damping             0.4000000          :
          :  net charge                          0          :
          :  unpaired electrons                  2          :
          ...................................................

 iter      E             dE          RMSdq      gap      omega  full diag
   1    -69.8764715 -0.698765E+02  0.345E+00    0.51       0.0  T
   2    -69.9384889 -0.620174E-01  0.235E+00    0.92       1.0  T
   3    -69.8184281  0.120061E+00  0.190E+00    0.68       1.0  T
   4    -70.0109735 -0.192545E+00  0.134E+00    0.71       1.0  T
   5    -69.9816658  0.293077E-01  0.101E+00    0.74       1.0  T
   6    -70.0116005 -0.299347E-01  0.895E-01    0.73       1.0  T
   7    -70.0306285 -0.190280E-01  0.686E-01    0.72       1.0  T
   8    -70.0385813 -0.795275E-02  0.558E-01    0.72       1.0  T
   9    -70.0404168 -0.183555E-02  0.505E-01    0.73       1.0  T
  10    -69.9537788  0.866380E-01  0.969E-01    0.73       1.0  T
  11    -70.0421548 -0.883760E-01  0.437E-01    0.72       1.0  T
  12    -70.0465193 -0.436453E-02  0.273E-01    0.73       1.0  T
  13    -70.0467083 -0.188976E-03  0.233E-01    0.73       1.0  T
  14    -70.0517685 -0.506024E-02  0.338E-02    0.73       1.0  T
  15    -70.0443099  0.745861E-02  0.271E-01    0.73       1.0  T
  16    -70.0510612 -0.675126E-02  0.894E-02    0.73       1.0  T
  17    -70.0518249 -0.763704E-03  0.315E-02    0.73       1.0  T
  18    -70.0517764  0.485271E-04  0.316E-02    0.73       1.0  T
  19    -70.0518158 -0.394648E-04  0.236E-02    0.73       1.0  T
  20    -70.0518733 -0.574399E-04  0.143E-03    0.73      10.0  T
  21    -70.0518729  0.390587E-06  0.253E-03    0.73       5.6  T
  22    -70.0518734 -0.532080E-06  0.735E-04    0.73      19.4  T
  23    -70.0518733  0.783202E-07  0.116E-03    0.73      12.3  T
  24    -70.0518734 -0.742249E-07  0.684E-04    0.73      20.9  T

   *** convergence criteria satisfied after 24 iterations ***

         #    Occupation            Energy/Eh            Energy/eV
      -------------------------------------------------------------
         1        2.0000           -1.0387336             -28.2654
       ...           ...                  ...                  ...
        58        2.0000           -0.4013956             -10.9225
        59        2.0000           -0.4002494             -10.8913
        60        2.0000           -0.3822522             -10.4016
        61        1.8885           -0.3687287             -10.0336
        62        1.7884           -0.3680059             -10.0140
        63        1.3231           -0.3660539              -9.9608
        64        1.0000           -0.2538252              -6.9069 (HOMO)
        65        0.0000           -0.2269470              -6.1755 (LUMO)
        66                         -0.1890616              -5.1446
        67                         -0.1433117              -3.8997
        68                         -0.1183099              -3.2194
        69                         -0.0605603              -1.6479
       ...                                ...                  ...
       123                          0.6918733              18.8268
      -------------------------------------------------------------
                  HL-Gap            0.0268782 Eh            0.7314 eV
             Fermi-level           -0.3035713 Eh           -8.2606 eV

 transition dipole moment (au) for excitation:          63          64
     X       Y       Z   
   0.0679   1.4888   0.9418  total (au/Debye):    1.763   4.481
 dE (eV)             :    3.054
 oscillator strength :  0.32887E+00

 SCC (total)                   0 d,  0 h,  0 min,  0.174 sec
 SCC setup                      ...        0 min,  0.000 sec (  0.259%)
 Dispersion                     ...        0 min,  0.001 sec (  0.343%)
 classical contributions        ...        0 min,  0.000 sec (  0.109%)
 integral evaluation            ...        0 min,  0.010 sec (  5.551%)
 iterations                     ...        0 min,  0.093 sec ( 53.440%)
 molecular gradient             ...        0 min,  0.062 sec ( 35.376%)
 printout                       ...        0 min,  0.009 sec (  4.918%)

         :::::::::::::::::::::::::::::::::::::::::::::::::::::
         ::                     SUMMARY                     ::
         :::::::::::::::::::::::::::::::::::::::::::::::::::::
         :: total energy             -69.105996613855 Eh    ::
         :: gradient norm              0.105863185663 Eh/a0 ::
         :: HOMO-LUMO gap              0.731393269375 eV    ::
         ::.................................................::
         :: SCC energy               -70.050153871846 Eh    ::
         :: -> isotropic ES            0.050422715330 Eh    ::
         :: -> anisotropic ES          0.009762087819 Eh    ::
         :: -> anisotropic XC          0.032831879205 Eh    ::
         :: -> dispersion             -0.054197311926 Eh    ::
         :: repulsion energy           0.944157257991 Eh    ::
         :: add. restraining           0.000000000000 Eh    ::
         :: total charge               0.000000000002 e     ::
         :::::::::::::::::::::::::::::::::::::::::::::::::::::

           -------------------------------------------------
          |                Property Printout                |
           -------------------------------------------------

    * Orbital Energies and Occupations

         #    Occupation            Energy/Eh            Energy/eV
      -------------------------------------------------------------
         1        2.0000           -1.0387336             -28.2654
       ...           ...                  ...                  ...
        52        2.0000           -0.4450738             -12.1111
        53        2.0000           -0.4413545             -12.0099
        54        2.0000           -0.4338899             -11.8067
        55        2.0000           -0.4257571             -11.5854
        56        2.0000           -0.4226267             -11.5003
        57        2.0000           -0.4036303             -10.9833
        58        2.0000           -0.4013956             -10.9225
        59        2.0000           -0.4002494             -10.8913
        60        2.0000           -0.3822522             -10.4016
        61        1.8885           -0.3687287             -10.0336
        62        1.7884           -0.3680059             -10.0140
        63        1.3231           -0.3660539              -9.9608
        64        1.0000           -0.2538252              -6.9069 (HOMO)
        65        0.0000           -0.2269470              -6.1755 (LUMO)
        66                         -0.1890616              -5.1446
        67                         -0.1433117              -3.8997
        68                         -0.1183099              -3.2194
        69                         -0.0605603              -1.6479
        70                         -0.0175096              -0.4765
        71                         -0.0045368              -0.1235
        72                          0.0335414               0.9127
        73                          0.0351557               0.9566
        74                          0.0383278               1.0430
        75                          0.0384070               1.0451
       ...                                ...                  ...
       123                          0.6918733              18.8268
      -------------------------------------------------------------
                  HL-Gap            0.0268782 Eh            0.7314 eV
             Fermi-level           -0.3035713 Eh           -8.2606 eV

     #   Z          covCN         q      C6AA      α(0)
     1   6 C        3.756    -0.118    22.807     6.809
     2   6 C        3.786     0.042    19.891     6.353
     3   7 N        2.694    -0.151    24.263     7.316
     4   6 C        2.901     0.042    27.059     8.529
     5   6 C        2.914    -0.060    29.499     8.906
     6   6 C        2.903     0.037    27.166     8.546
     7   7 N        1.843    -0.241    27.153     7.723
     8   6 C        2.977     0.088    26.032     8.369
     9   6 C        2.982    -0.026    28.634     8.778
    10   6 C        2.918    -0.064    29.589     8.920
    11   6 C        2.951    -0.048    29.180     8.860
    12   6 C        2.885     0.084    26.123     8.379
    13  17 Cl       0.969    -0.195   105.287    15.698
    14   6 C        2.962    -0.070    29.733     8.944
    15   6 C        3.804    -0.071    21.851     6.655
    16   6 C        3.802    -0.066    21.757     6.641
    17   6 C        3.752     0.002    20.610     6.474
    18   7 N        2.730    -0.147    24.168     7.301
    19   6 C        3.750     0.008    20.501     6.457
    20   6 C        3.752    -0.113    22.728     6.798
    21   6 C        3.752    -0.002    20.679     6.485
    22   6 C        3.675     0.083    19.412     6.313
    23   8 O        1.655    -0.448    21.798     6.303
    24   1 H        0.925     0.045     2.386     2.415
    25   1 H        0.925     0.053     2.287     2.365
    26   1 H        0.925     0.047     2.356     2.400
    27   1 H        0.924     0.050     2.316     2.380
    28   1 H        0.860     0.168     1.287     1.777
    29   1 H        0.926     0.025     2.652     2.547
    30   1 H        0.925     0.030     2.581     2.512
    31   1 H        0.926     0.015     2.807     2.620
    32   1 H        0.926     0.040     2.442     2.444
    33   1 H        0.926     0.055     2.255     2.348
    34   1 H        0.924     0.043     2.413     2.429
    35   1 H        0.924     0.040     2.443     2.444
    36   1 H        0.924     0.047     2.355     2.400
    37   1 H        0.924     0.043     2.411     2.428
    38   1 H        0.924     0.046     2.375     2.410
    39   1 H        0.923     0.023     2.694     2.567
    40   1 H        0.923     0.024     2.679     2.560
    41   1 H        0.924     0.041     2.429     2.437
    42   1 H        0.925     0.044     2.394     2.420
    43   1 H        0.925     0.047     2.362     2.403
    44   1 H        0.925     0.051     2.312     2.378
    45   1 H        0.923     0.042     2.424     2.435
    46   1 H        0.925     0.054     2.270     2.356
    47   1 H        0.924     0.024     2.680     2.560
    48   1 H        0.923     0.027     2.634     2.538
    49   1 H        0.805     0.308     0.699     1.313

 Mol. C6AA /au·bohr⁶  :      25078.061288
 Mol. C8AA /au·bohr⁸  :     598015.473733
 Mol. α(0) /au        :        243.444980


Wiberg/Mayer (AO) data.
largest (>0.10) Wiberg bond orders for each atom

 ---------------------------------------------------------------------------
     #   Z sym  total        # sym  WBO       # sym  WBO       # sym  WBO
 ---------------------------------------------------------------------------
     1   6 C    3.986 --     2 C    0.994    24 H    0.985    25 H    0.985
                            26 H    0.984
     2   6 C    3.970 --     3 N    0.996     1 C    0.994    15 C    0.976
                            27 H    0.956
     3   7 N    3.327 --     4 C    1.198     2 C    0.996    28 H    0.929
     4   6 C    3.870 --     5 C    1.230     3 N    1.198     9 C    1.187
     5   6 C    3.864 --     6 C    1.460     4 C    1.230    29 H    0.962
     6   6 C    3.951 --     5 C    1.460     7 N    1.327    30 H    0.959
     7   7 N    2.871 --     6 C    1.327     8 C    1.272
     8   6 C    3.963 --    14 C    1.273     7 N    1.272     9 C    1.229
     9   6 C    3.956 --    10 C    1.310     8 C    1.229     4 C    1.187
    10   6 C    3.901 --    11 C    1.351     9 C    1.310    31 H    0.956
    11   6 C    3.945 --    12 C    1.413    10 C    1.351    32 H    0.969
    12   6 C    3.886 --    11 C    1.413    14 C    1.335    13 Cl   0.959
    13  17 Cl   1.080 --    12 C    0.959
    14   6 C    3.858 --    12 C    1.335     8 C    1.273    33 H    0.965
    15   6 C    3.984 --    16 C    1.007     2 C    0.976    35 H    0.975
                            34 H    0.973
    16   6 C    3.989 --    15 C    1.007    17 C    0.998    36 H    0.974
                            37 H    0.973
    17   6 C    3.978 --    18 N    1.003    16 C    0.998    38 H    0.967
                            39 H    0.962
    18   7 N    3.103 --    21 C    1.005    17 C    1.003    19 C    1.001
    19   6 C    3.978 --    20 C    1.012    18 N    1.001    41 H    0.972
                            40 H    0.962
    20   6 C    3.989 --    19 C    1.012    44 H    0.987    42 H    0.985
                            43 H    0.984
    21   6 C    3.974 --    18 N    1.005    22 C    0.989    46 H    0.970
                            45 H    0.959
    22   6 C    3.954 --    23 O    1.006    21 C    0.989    48 H    0.969
                            47 H    0.965
    23   8 O    1.945 --    22 C    1.006    49 H    0.878
    24   1 H    0.998 --     1 C    0.985
    25   1 H    0.997 --     1 C    0.985
    26   1 H    0.997 --     1 C    0.984
    27   1 H    0.997 --     2 C    0.956
    28   1 H    0.971 --     3 N    0.929
    29   1 H    0.996 --     5 C    0.962
    30   1 H    0.991 --     6 C    0.959
    31   1 H    0.996 --    10 C    0.956
    32   1 H    0.998 --    11 C    0.969
    33   1 H    0.995 --    14 C    0.965
    34   1 H    0.996 --    15 C    0.973
    35   1 H    0.998 --    15 C    0.975
    36   1 H    0.998 --    16 C    0.974
    37   1 H    0.998 --    16 C    0.973
    38   1 H    0.998 --    17 C    0.967
    39   1 H    0.989 --    17 C    0.962
    40   1 H    0.987 --    19 C    0.962
    41   1 H    0.998 --    19 C    0.972
    42   1 H    0.998 --    20 C    0.985
    43   1 H    0.998 --    20 C    0.984
    44   1 H    0.997 --    20 C    0.987
    45   1 H    0.985 --    21 C    0.959
    46   1 H    0.996 --    21 C    0.970
    47   1 H    0.999 --    22 C    0.965
    48   1 H    0.998 --    22 C    0.969
    49   1 H    0.905 --    23 O    0.878
 ---------------------------------------------------------------------------

Topologies differ in total number of bonds
Writing topology from bond orders to xtbtopo.mol

molecular dipole:
                 x           y           z       tot (Debye)
 q only:       -1.648      -1.972      -1.914
   full:       -1.555      -2.292      -2.079       8.802
molecular quadrupole (traceless):
                xx          xy          yy          xz          yz          zz
 q only:       -5.949      -3.497       2.687     -16.727      -2.246       3.261
  q+dip:       -3.767      -5.394       0.292     -10.894      -2.692       3.475
   full:       -2.309      -3.680      -1.300     -12.740      -3.109       3.609


           -------------------------------------------------
          | TOTAL ENERGY              -69.105996613855 Eh   |
          | GRADIENT NORM               0.105863185663 Eh/α |
          | HOMO-LUMO GAP               0.731393269375 eV   |
           -------------------------------------------------

------------------------------------------------------------------------
 * finished run on 2025/05/15 at 16:13:52.113     
------------------------------------------------------------------------
 total:
 * wall-time:     0 d,  0 h,  0 min,  0.190 sec
 *  cpu-time:     0 d,  0 h,  0 min,  0.129 sec
 * ratio c/w:     0.680 speedup
 SCF:
 * wall-time:     0 d,  0 h,  0 min,  0.175 sec
 *  cpu-time:     0 d,  0 h,  0 min,  0.115 sec
 * ratio c/w:     0.659 speedup


