----- Optimization -----
      -----------------------------------------------------------      
     |                   =====================                   |     
     |                           x T B                           |     
     |                   =====================                   |     
     |                         S. Grimme                         |     
     |          Mulliken Center for Theoretical Chemistry        |     
     |                    University of Bonn                     |     
      -----------------------------------------------------------      

   * xtb version 6.7.1 (edcfbbe) compiled by 'conda@3ef47c1a292c' on 2024-11-25

   xtb is free software: you can redistribute it and/or modify it under
   the terms of the GNU Lesser General Public License as published by
   the Free Software Foundation, either version 3 of the License, or
   (at your option) any later version.
   
   xtb is distributed in the hope that it will be useful,
   but WITHOUT ANY WARRANTY; without even the implied warranty of
   MERCHANTABILITY or FITNESS FOR A PARTICULAR PURPOSE.  See the
   GNU Lesser General Public License for more details.
   
   Cite this work as:
   * C. Bannwarth, E. Caldeweyher, S. Ehlert, A. Hansen, P. Pracht,
     J. Seibert, S. Spicher, S. Grimme, WIREs Comput. Mol. Sci., 2020, 11,
     e01493. DOI: 10.1002/wcms.1493
   
   for GFN2-xTB:
   * C. Bannwarth, S. Ehlert and S. Grimme., J. Chem. Theory Comput., 2019,
     15, 1652-1671. DOI: 10.1021/acs.jctc.8b01176
   for GFN1-xTB:
   * S. Grimme, C. Bannwarth, P. Shushkov, J. Chem. Theory Comput., 2017,
     13, 1989-2009. DOI: 10.1021/acs.jctc.7b00118
   for GFN0-xTB:
   * P. Pracht, E. Caldeweyher, S. Ehlert, S. Grimme, ChemRxiv, 2019, preprint.
     DOI: 10.26434/chemrxiv.8326202.v1
   for GFN-FF:
   * S. Spicher and S. Grimme, Angew. Chem. Int. Ed., 2020, 59, 15665-15673.
     DOI: 10.1002/anie.202004239
   
   for ALPB and GBSA implicit solvation:
   * S. Ehlert, M. Stahn, S. Spicher, S. Grimme, J. Chem. Theory Comput.,
     2021, 17, 4250-4261. DOI: 10.1021/acs.jctc.1c00471
   
   for ddCOSMO and CPCM-X implicit solvation:
   * M. Stahn, S. Ehlert, S. Grimme, J. Phys. Chem. A,
     2023, XX, XXXX-XXXX. DOI: 10.1021/acs.jpca.3c04382
   
   for DFT-D4:
   * E. Caldeweyher, C. Bannwarth and S. Grimme, J. Chem. Phys., 2017,
     147, 034112. DOI: 10.1063/1.4993215
   * E. Caldeweyher, S. Ehlert, A. Hansen, H. Neugebauer, S. Spicher,
     C. Bannwarth and S. Grimme, J. Chem. Phys., 2019, 150, 154122.
     DOI: 10.1063/1.5090222
   * E. Caldeweyher, J.-M. Mewes, S. Ehlert and S. Grimme, Phys. Chem. Chem. Phys.
     2020, 22, 8499-8512. DOI: 10.1039/D0CP00502A
   
   for sTDA-xTB:
   * S. Grimme and C. Bannwarth, J. Chem. Phys., 2016, 145, 054103.
     DOI: 10.1063/1.4959605
   
   in the mass-spec context:
   * V. Asgeirsson, C. Bauer and S. Grimme, Chem. Sci., 2017, 8, 4879.
     DOI: 10.1039/c7sc00601b
   * J. Koopman and S. Grimme, ACS Omega 2019, 4, 12, 15120-15133.
     DOI: 10.1021/acsomega.9b02011
   
   for metadynamics refer to:
   * S. Grimme, J. Chem. Theory Comput., 2019, 155, 2847-2862
     DOI: 10.1021/acs.jctc.9b00143
   
   for SPH calculations refer to:
   * S. Spicher and S. Grimme, J. Chem. Theory Comput., 2021, 17, 1701-1714
     DOI: 10.1021/acs.jctc.0c01306
   
   for ONIOM refer to:
   * C. Plett, A. Katbashev, S. Ehlert, S. Grimme, M. Bursch,
     Phys. Chem. Chem. Phys., 2023, 25, 17860-17868. DOI: 10.1039/D3CP02178E
   
   for DIPRO refer to:
   * J. Kohn, N. Gildemeister, S. Grimme, D. Fazzi, A. Hansen,
     J. Chem. Phys., 2023, just accepted.
   
   for PTB refer to:
   * S. Grimme, M. Mueller, A. Hansen, J. Chem. Phys., 2023, 158, 124111.
     DOI: 10.1063/5.0137838
   
   with help from (in alphabetical order)
   P. Atkinson, C. Bannwarth, F. Bohle, G. Brandenburg, E. Caldeweyher
   M. Checinski, S. Dohm, S. Ehlert, S. Ehrlich, I. Gerasimov, C. Hölzer
   A. Katbashev, J. Kohn, J. Koopman, C. Lavigne, S. Lehtola, F. März, M. Müller,
   F. Musil, H. Neugebauer, J. Pisarek, C. Plett, P. Pracht, F. Pultar,
   J. Seibert, P. Shushkov, S. Spicher, M. Stahn, M. Steiner, T. Strunk,
   J. Stückrath, T. Rose, and J. Unsleber
   
 * started run on 2025/05/15 at 16:30:16.837     
   ID    Z sym.   atoms
    1    6 C      1-9, 12-15
    2    8 O      10, 11
    3    1 H      16-33

           -------------------------------------------------
          |                Calculation Setup                |
           -------------------------------------------------

          program call               : xtb /rds/general/user/hgt20/home/callum/QDESCP/Ibuprofen_rdkit_conf_4/Ibuprofen_rdkit_conf_4.xyz --opt normal --acc 1 --gfn 2 --chrg 0 --uhf 0 -P 1
          hostname                   : login-c
          coordinate file            : /rds/general/user/hgt20/home/callum/QDESCP/Ibuprofen_rdkit_conf_4/Ibuprofen_rdkit_conf_4.xyz
          omp threads                :                     1


           -------------------------------------------------
          |                 G F N 2 - x T B                 |
           -------------------------------------------------

        Reference                      10.1021/acs.jctc.8b01176
      * Hamiltonian:
        H0-scaling (s, p, d)           1.850000    2.230000    2.230000
        zeta-weighting                 0.500000
      * Dispersion:
        s8                             2.700000
        a1                             0.520000
        a2                             5.000000
        s9                             5.000000
      * Repulsion:
        kExp                           1.500000    1.000000
        rExp                           1.000000
      * Coulomb:
        alpha                          2.000000
        third order                    shell-resolved
        anisotropic                    true
        a3                             3.000000
        a5                             4.000000
        cn-shift                       1.200000
        cn-exp                         4.000000
        max-rad                        5.000000


          ...................................................
          :                      SETUP                      :
          :.................................................:
          :  # basis functions                  78          :
          :  # atomic orbitals                  78          :
          :  # shells                           48          :
          :  # electrons                        82          :
          :  max. iterations                   250          :
          :  Hamiltonian                  GFN2-xTB          :
          :  restarted?                      false          :
          :  GBSA solvation                  false          :
          :  PC potential                    false          :
          :  electronic temp.          300.0000000     K    :
          :  accuracy                    1.0000000          :
          :  -> integral cutoff          0.2500000E+02      :
          :  -> integral neglect         0.1000000E-07      :
          :  -> SCF convergence          0.1000000E-05 Eh   :
          :  -> wf. convergence          0.1000000E-03 e    :
          :  Broyden damping             0.4000000          :
          :  net charge                          0          :
          :  unpaired electrons                  0          :
          ...................................................

 iter      E             dE          RMSdq      gap      omega  full diag
   1    -45.7119736 -0.457120E+02  0.356E+00    4.37       0.0  T
   2    -45.7811607 -0.691871E-01  0.196E+00    4.09       1.0  T
   3    -45.7835798 -0.241907E-02  0.102E+00    4.23       1.0  T
   4    -45.7889000 -0.532025E-02  0.188E-01    3.85       1.0  T
   5    -45.7892971 -0.397013E-03  0.707E-02    3.87       1.0  T
   6    -45.7893136 -0.165371E-04  0.403E-02    3.89       1.0  T
   7    -45.7893397 -0.260917E-04  0.125E-02    3.90       1.4  T
   8    -45.7893420 -0.236777E-05  0.446E-03    3.90       3.9  T
   9    -45.7893423 -0.221459E-06  0.208E-03    3.90       8.4  T
  10    -45.7893423 -0.329097E-07  0.792E-04    3.90      22.0  T
  11    -45.7893423 -0.561187E-08  0.357E-04    3.90      48.8  T

   *** convergence criteria satisfied after 11 iterations ***

         #    Occupation            Energy/Eh            Energy/eV
      -------------------------------------------------------------
         1        2.0000           -0.7440500             -20.2466
       ...           ...                  ...                  ...
        35        2.0000           -0.4363261             -11.8730
        36        2.0000           -0.4287210             -11.6661
        37        2.0000           -0.4250829             -11.5671
        38        2.0000           -0.4181381             -11.3781
        39        2.0000           -0.4149995             -11.2927
        40        2.0000           -0.4012604             -10.9189
        41        2.0000           -0.3885678             -10.5735 (HOMO)
        42                         -0.2453151              -6.6754 (LUMO)
        43                         -0.2248855              -6.1194
        44                         -0.2222040              -6.0465
        45                         -0.1030893              -2.8052
        46                          0.0432885               1.1779
       ...                                ...                  ...
        78                          0.6187830              16.8379
      -------------------------------------------------------------
                  HL-Gap            0.1432527 Eh            3.8981 eV
             Fermi-level           -0.3169414 Eh           -8.6244 eV

 SCC (total)                   0 d,  0 h,  0 min,  0.060 sec
 SCC setup                      ...        0 min,  0.000 sec (  0.450%)
 Dispersion                     ...        0 min,  0.000 sec (  0.505%)
 classical contributions        ...        0 min,  0.000 sec (  0.154%)
 integral evaluation            ...        0 min,  0.005 sec (  8.205%)
 iterations                     ...        0 min,  0.042 sec ( 69.582%)
 molecular gradient             ...        0 min,  0.012 sec ( 20.895%)
 printout                       ...        0 min,  0.000 sec (  0.192%)

         :::::::::::::::::::::::::::::::::::::::::::::::::::::
         ::                     SUMMARY                     ::
         :::::::::::::::::::::::::::::::::::::::::::::::::::::
         :: total energy             -45.166084832907 Eh    ::
         :: gradient norm              0.053247643618 Eh/a0 ::
         :: HOMO-LUMO gap              3.898104466657 eV    ::
         ::.................................................::
         :: SCC energy               -45.789218762131 Eh    ::
         :: -> isotropic ES            0.052352829021 Eh    ::
         :: -> anisotropic ES          0.007578178950 Eh    ::
         :: -> anisotropic XC          0.019802406991 Eh    ::
         :: -> dispersion             -0.028854861343 Eh    ::
         :: repulsion energy           0.623133929225 Eh    ::
         :: add. restraining           0.000000000000 Eh    ::
         :: total charge              -0.000000000000 e     ::
         :::::::::::::::::::::::::::::::::::::::::::::::::::::

      ----------------------------------------------------------- 
     |                   =====================                   |
     |                        A N C O P T                        |
     |                   =====================                   |
     |               Approximate Normal Coordinate               |
     |                Rational Function Optimizer                |
      ----------------------------------------------------------- 
      ----------------------------------------------------------- 
     |                   =====================                   |
     |                        A N C O P T                        |
     |                   =====================                   |
     |               Approximate Normal Coordinate               |
     |                Rational Function Optimizer                |
      ----------------------------------------------------------- 

          ...................................................
          :                      SETUP                      :
          :.................................................:
          :   optimization level            normal          :
          :   max. optcycles                   200          :
          :   ANC micro-cycles                  20          :
          :   degrees of freedom                93          :
          :.................................................:
          :   RF solver                   davidson          :
          :   write xtbopt.log                true          :
          :   linear?                        false          :
          :   energy convergence         0.5000000E-05 Eh   :
          :   grad. convergence          0.1000000E-02 Eh/α :
          :   maxmium RF displ.          1.0000000          :
          :   Hlow (freq-cutoff)         0.1000000E-01      :
          :   Hmax (freq-cutoff)         5.0000000          :
          :   S6 in model hess.         20.0000000          :
          ...................................................

generating ANC from exact Hessian ...
Using Lindh-Hessian (1995)
 Shifting diagonal of input Hessian by    9.6172044778896938E-003
 Lowest  eigenvalues of input Hessian
    0.000000    0.000000    0.000000    0.000000    0.000000    0.000000
    0.010000    0.010356    0.010777    0.011434    0.012010    0.014558
    0.014999    0.016813    0.018018    0.018259    0.018457    0.019353
 Highest eigenvalues
    1.556802    1.688314    1.822925    1.895368    1.934922    2.250123


........................................................................
.............................. CYCLE    1 ..............................
........................................................................

 iter      E             dE          RMSdq      gap      omega  full diag
   1    -45.7893423 -0.457893E+02  0.143E-04    3.90       0.0  T
   2    -45.7893423 -0.117261E-09  0.953E-05    3.90     182.6  T
   3    -45.7893423 -0.970246E-10  0.603E-05    3.90     288.7  T
     SCC iter.                  ...        0 min,  0.004 sec
     gradient                   ...        0 min,  0.012 sec
 * total energy  :   -45.1660848 Eh     change       -0.6643859E-09 Eh
   gradient norm :     0.0532533 Eh/α   predicted     0.0000000E+00 (-100.00%)
   displ. norm   :     0.2349627 α      lambda       -0.6213228E-02
   maximum displ.:     0.0670094 α      in ANC's #4, #19, #22, ...

........................................................................
.............................. CYCLE    2 ..............................
........................................................................

 iter      E             dE          RMSdq      gap      omega  full diag
   1    -45.8235638 -0.458236E+02  0.153E-01    4.10       0.0  T
   2    -45.8236207 -0.569347E-04  0.895E-02    4.06       1.0  T
   3    -45.8236169  0.387079E-05  0.296E-02    4.07       1.0  T
   4    -45.8236252 -0.830134E-05  0.466E-03    4.06       3.7  T
   5    -45.8236256 -0.389545E-06  0.219E-03    4.07       7.9  T
   6    -45.8236256 -0.363387E-07  0.119E-03    4.07      14.6  T
   7    -45.8236256 -0.104608E-07  0.329E-04    4.07      52.9  T
   8    -45.8236256 -0.182081E-08  0.148E-04    4.07     117.6  T
     SCC iter.                  ...        0 min,  0.044 sec
     gradient                   ...        0 min,  0.012 sec
 * total energy  :   -45.1700724 Eh     change       -0.3987550E-02 Eh
   gradient norm :     0.0160163 Eh/α   predicted    -0.3278823E-02 ( -17.77%)
   displ. norm   :     0.2291844 α      lambda       -0.1583517E-02
   maximum displ.:     0.1393297 α      in ANC's #4, #6, #17, ...

........................................................................
.............................. CYCLE    3 ..............................
........................................................................

 iter      E             dE          RMSdq      gap      omega  full diag
   1    -45.8383328 -0.458383E+02  0.948E-02    4.13       0.0  T
   2    -45.8383465 -0.136751E-04  0.553E-02    4.11       1.0  T
   3    -45.8383435  0.298922E-05  0.164E-02    4.12       1.1  T
   4    -45.8383478 -0.433999E-05  0.347E-03    4.11       5.0  T
   5    -45.8383482 -0.321125E-06  0.155E-03    4.11      11.2  T
   6    -45.8383482 -0.376803E-07  0.817E-04    4.11      21.3  T
   7    -45.8383482 -0.346225E-08  0.245E-04    4.11      71.1  T
     SCC iter.                  ...        0 min,  0.008 sec
     gradient                   ...        0 min,  0.012 sec
 * total energy  :   -45.1710482 Eh     change       -0.9758025E-03 Eh
   gradient norm :     0.0076862 Eh/α   predicted    -0.8333476E-03 ( -14.60%)
   displ. norm   :     0.2101835 α      lambda       -0.5834188E-03
   maximum displ.:     0.1468080 α      in ANC's #4, #6, #7, ...

........................................................................
.............................. CYCLE    4 ..............................
........................................................................

 iter      E             dE          RMSdq      gap      omega  full diag
   1    -45.8401621 -0.458402E+02  0.762E-02    4.11       0.0  T
   2    -45.8401639 -0.175797E-05  0.447E-02    4.11       1.0  T
   3    -45.8401630  0.844113E-06  0.727E-03    4.11       2.4  T
   4    -45.8401645 -0.145112E-05  0.194E-03    4.11       9.0  T
   5    -45.8401645 -0.118915E-07  0.111E-03    4.11      15.7  T
   6    -45.8401645 -0.129079E-07  0.400E-04    4.11      43.6  T
   7    -45.8401645 -0.152624E-08  0.135E-04    4.11     129.0  T
     SCC iter.                  ...        0 min,  0.008 sec
     gradient                   ...        0 min,  0.047 sec
 * total energy  :   -45.1714427 Eh     change       -0.3945590E-03 Eh
   gradient norm :     0.0051834 Eh/α   predicted    -0.3046251E-03 ( -22.79%)
   displ. norm   :     0.2114291 α      lambda       -0.3231101E-03
   maximum displ.:     0.1625484 α      in ANC's #4, #13, #6, ...

........................................................................
.............................. CYCLE    5 ..............................
........................................................................

 iter      E             dE          RMSdq      gap      omega  full diag
   1    -45.8375835 -0.458376E+02  0.801E-02    4.08       0.0  T
   2    -45.8375855 -0.197082E-05  0.473E-02    4.09       1.0  T
   3    -45.8375846  0.828649E-06  0.656E-03    4.09       2.7  T
   4    -45.8375859 -0.128887E-05  0.211E-03    4.09       8.3  T
   5    -45.8375860 -0.771673E-07  0.112E-03    4.09      15.6  T
   6    -45.8375860 -0.652556E-08  0.479E-04    4.09      36.3  T
   7    -45.8375860 -0.289663E-08  0.136E-04    4.09     128.2  T
     SCC iter.                  ...        0 min,  0.008 sec
     gradient                   ...        0 min,  0.012 sec
 * total energy  :   -45.1716547 Eh     change       -0.2119250E-03 Eh
   gradient norm :     0.0049454 Eh/α   predicted    -0.1687821E-03 ( -20.36%)
   displ. norm   :     0.1286205 α      lambda       -0.1302957E-03
   maximum displ.:     0.1023744 α      in ANC's #4, #13, #1, ...

........................................................................
.............................. CYCLE    6 ..............................
........................................................................

 iter      E             dE          RMSdq      gap      omega  full diag
   1    -45.8363807 -0.458364E+02  0.442E-02    4.09       0.0  T
   2    -45.8363811 -0.424738E-06  0.260E-02    4.09       1.0  T
   3    -45.8363809  0.154892E-06  0.345E-03    4.09       5.1  T
   4    -45.8363813 -0.309984E-06  0.931E-04    4.09      18.7  T
   5    -45.8363813 -0.872120E-10  0.505E-04    4.09      34.5  T
     SCC iter.                  ...        0 min,  0.006 sec
     gradient                   ...        0 min,  0.012 sec
 * total energy  :   -45.1717510 Eh     change       -0.9634254E-04 Eh
   gradient norm :     0.0031574 Eh/α   predicted    -0.6622658E-04 ( -31.26%)
   displ. norm   :     0.1193970 α      lambda       -0.8743575E-04
   maximum displ.:     0.0922206 α      in ANC's #4, #13, #1, ...

........................................................................
.............................. CYCLE    7 ..............................
........................................................................

 iter      E             dE          RMSdq      gap      omega  full diag
   1    -45.8363167 -0.458363E+02  0.390E-02    4.09       0.0  T
   2    -45.8363169 -0.217048E-06  0.230E-02    4.09       1.0  T
   3    -45.8363169 -0.231097E-07  0.174E-03    4.09      10.0  T
   4    -45.8363170 -0.578371E-07  0.759E-04    4.09      22.9  T
   5    -45.8363170 -0.199496E-08  0.361E-04    4.09      48.2  T
     SCC iter.                  ...        0 min,  0.045 sec
     gradient                   ...        0 min,  0.013 sec
 * total energy  :   -45.1718157 Eh     change       -0.6468708E-04 Eh
   gradient norm :     0.0023190 Eh/α   predicted    -0.4434276E-04 ( -31.45%)
   displ. norm   :     0.1062825 α      lambda       -0.4985301E-04
   maximum displ.:     0.0786016 α      in ANC's #4, #1, #13, ...

........................................................................
.............................. CYCLE    8 ..............................
........................................................................

 iter      E             dE          RMSdq      gap      omega  full diag
   1    -45.8370227 -0.458370E+02  0.328E-02    4.09       0.0  T
   2    -45.8370228 -0.109052E-06  0.193E-02    4.09       1.0  T
   3    -45.8370228 -0.162687E-07  0.123E-03    4.09      14.1  T
   4    -45.8370228 -0.284757E-07  0.616E-04    4.09      28.2  T
   5    -45.8370228 -0.243936E-08  0.289E-04    4.09      60.3  T
     SCC iter.                  ...        0 min,  0.006 sec
     gradient                   ...        0 min,  0.013 sec
 * total energy  :   -45.1718516 Eh     change       -0.3590188E-04 Eh
   gradient norm :     0.0017816 Eh/α   predicted    -0.2521213E-04 ( -29.77%)
   displ. norm   :     0.1257348 α      lambda       -0.2461428E-04
   maximum displ.:     0.0859200 α      in ANC's #4, #1, #11, ...

........................................................................
.............................. CYCLE    9 ..............................
........................................................................

 iter      E             dE          RMSdq      gap      omega  full diag
   1    -45.8379436 -0.458379E+02  0.364E-02    4.09       0.0  T
   2    -45.8379437 -0.139945E-06  0.214E-02    4.09       1.0  T
   3    -45.8379437  0.268277E-07  0.171E-03    4.09      10.2  T
   4    -45.8379438 -0.736780E-07  0.640E-04    4.09      27.2  T
   5    -45.8379438 -0.301290E-08  0.325E-04    4.09      53.6  T
     SCC iter.                  ...        0 min,  0.006 sec
     gradient                   ...        0 min,  0.058 sec
 * total energy  :   -45.1718724 Eh     change       -0.2079222E-04 Eh
   gradient norm :     0.0012528 Eh/α   predicted    -0.1239542E-04 ( -40.38%)
   displ. norm   :     0.0376907 α      lambda       -0.6476470E-05
   maximum displ.:     0.0277768 α      in ANC's #1, #5, #6, ...

........................................................................
.............................. CYCLE   10 ..............................
........................................................................

 iter      E             dE          RMSdq      gap      omega  full diag
   1    -45.8381063 -0.458381E+02  0.109E-02    4.09       0.0  T
   2    -45.8381063 -0.284497E-07  0.641E-03    4.09       2.7  T
   3    -45.8381063  0.122733E-07  0.701E-04    4.09      24.8  T
   4    -45.8381063 -0.165876E-07  0.266E-04    4.09      65.6  T
     SCC iter.                  ...        0 min,  0.005 sec
     gradient                   ...        0 min,  0.013 sec
 * total energy  :   -45.1718800 Eh     change       -0.7618277E-05 Eh
   gradient norm :     0.0011334 Eh/α   predicted    -0.3241213E-05 ( -57.45%)
   displ. norm   :     0.0503352 α      lambda       -0.7033494E-05
   maximum displ.:     0.0383888 α      in ANC's #1, #5, #2, ...

........................................................................
.............................. CYCLE   11 ..............................
........................................................................

 iter      E             dE          RMSdq      gap      omega  full diag
   1    -45.8377776 -0.458378E+02  0.165E-02    4.09       0.0  T
   2    -45.8377777 -0.559114E-07  0.968E-03    4.09       1.8  T
   3    -45.8377776  0.320602E-07  0.114E-03    4.09      15.3  T
   4    -45.8377777 -0.477749E-07  0.394E-04    4.09      44.2  T
   5    -45.8377777 -0.289732E-08  0.196E-04    4.09      88.7  T
     SCC iter.                  ...        0 min,  0.006 sec
     gradient                   ...        0 min,  0.013 sec
 * total energy  :   -45.1718876 Eh     change       -0.7543855E-05 Eh
   gradient norm :     0.0006782 Eh/α   predicted    -0.3522000E-05 ( -53.31%)
   displ. norm   :     0.0502389 α      lambda       -0.4706825E-05
   maximum displ.:     0.0380179 α      in ANC's #1, #5, #2, ...

........................................................................
.............................. CYCLE   12 ..............................
........................................................................

 iter      E             dE          RMSdq      gap      omega  full diag
   1    -45.8377813 -0.458378E+02  0.184E-02    4.09       0.0  T
   2    -45.8377814 -0.475680E-07  0.109E-02    4.09       1.6  T
   3    -45.8377813  0.524637E-07  0.142E-03    4.09      12.3  T
   4    -45.8377814 -0.771330E-07  0.389E-04    4.09      44.8  T
   5    -45.8377814 -0.575859E-09  0.202E-04    4.09      86.0  T
     SCC iter.                  ...        0 min,  0.045 sec
     gradient                   ...        0 min,  0.013 sec
 * total energy  :   -45.1718929 Eh     change       -0.5352239E-05 Eh
   gradient norm :     0.0007177 Eh/α   predicted    -0.2360045E-05 ( -55.91%)
   displ. norm   :     0.0475144 α      lambda       -0.4166592E-05
   maximum displ.:     0.0370381 α      in ANC's #1, #5, #2, ...

........................................................................
.............................. CYCLE   13 ..............................
........................................................................

 iter      E             dE          RMSdq      gap      omega  full diag
   1    -45.8376638 -0.458377E+02  0.147E-02    4.09       0.0  T
   2    -45.8376638 -0.636837E-07  0.864E-03    4.09       2.0  T
   3    -45.8376638  0.461422E-07  0.130E-03    4.09      13.4  T
   4    -45.8376638 -0.586855E-07  0.345E-04    4.09      50.5  T
   5    -45.8376638 -0.272810E-08  0.151E-04    4.09     115.2  T
     SCC iter.                  ...        0 min,  0.006 sec
     gradient                   ...        0 min,  0.013 sec
 * total energy  :   -45.1718983 Eh     change       -0.5393537E-05 Eh
   gradient norm :     0.0005866 Eh/α   predicted    -0.2087795E-05 ( -61.29%)
   displ. norm   :     0.0657010 α      lambda       -0.5242967E-05
   maximum displ.:     0.0488536 α      in ANC's #1, #5, #2, ...

........................................................................
.............................. CYCLE   14 ..............................
........................................................................

 iter      E             dE          RMSdq      gap      omega  full diag
   1    -45.8376676 -0.458377E+02  0.191E-02    4.10       0.0  T
   2    -45.8376677 -0.324724E-07  0.112E-02    4.10       1.6  T
   3    -45.8376676  0.716244E-07  0.153E-03    4.10      11.4  T
   4    -45.8376677 -0.919936E-07  0.279E-04    4.10      62.5  T
   5    -45.8376677 -0.105778E-09  0.126E-04    4.10     137.7  T
     SCC iter.                  ...        0 min,  0.006 sec
     gradient                   ...        0 min,  0.052 sec
 * total energy  :   -45.1719047 Eh     change       -0.6423587E-05 Eh
   gradient norm :     0.0004971 Eh/α   predicted    -0.2628104E-05 ( -59.09%)
   displ. norm   :     0.0685718 α      lambda       -0.3893294E-05
   maximum displ.:     0.0509063 α      in ANC's #1, #5, #2, ...

........................................................................
.............................. CYCLE   15 ..............................
........................................................................

 iter      E             dE          RMSdq      gap      omega  full diag
   1    -45.8377267 -0.458377E+02  0.189E-02    4.10       0.0  T
   2    -45.8377268 -0.319544E-07  0.111E-02    4.10       1.6  T
   3    -45.8377267  0.624128E-07  0.146E-03    4.10      11.9  T
   4    -45.8377268 -0.800868E-07  0.264E-04    4.10      65.9  T
   5    -45.8377268 -0.181018E-09  0.142E-04    4.10     122.7  T
     SCC iter.                  ...        0 min,  0.006 sec
     gradient                   ...        0 min,  0.012 sec
 * total energy  :   -45.1719091 Eh     change       -0.4374744E-05 Eh
   gradient norm :     0.0005245 Eh/α   predicted    -0.1952503E-05 ( -55.37%)
   displ. norm   :     0.0459415 α      lambda       -0.1754672E-05
   maximum displ.:     0.0345319 α      in ANC's #1, #5, #2, ...

   *** GEOMETRY OPTIMIZATION CONVERGED AFTER 15 ITERATIONS ***

------------------------------------------------------------------------
 total energy gain   :        -0.0058243 Eh       -3.6548 kcal/mol
 total RMSD          :         0.2185111 a0        0.1156 Å
 total power (kW/mol):        -1.0194407 (step)  -25.4328 (real)
------------------------------------------------------------------------

 ANCopt (total)                0 d,  0 h,  0 min,  0.601 sec
 optimizer setup                ...        0 min,  0.000 sec (  0.015%)
 model hessian                  ...        0 min,  0.011 sec (  1.818%)
 ANC generation                 ...        0 min,  0.001 sec (  0.162%)
 coordinate transformation      ...        0 min,  0.000 sec (  0.021%)
 single point calculation       ...        0 min,  0.584 sec ( 97.068%)
 optimization log               ...        0 min,  0.004 sec (  0.620%)
 hessian update                 ...        0 min,  0.000 sec (  0.030%)
 rational function              ...        0 min,  0.001 sec (  0.160%)

================
 final structure:
================
33
 xtb: 6.7.1 (edcfbbe)
C            3.00379293490034       -0.60477562534322        1.39331781191569
C            3.09601661120851       -0.64600147760004       -0.12903906839080
C            2.35214025616835        0.54705204726636       -0.75362226178060
C            0.87937201069101        0.50133039300073       -0.46927269995515
C            0.30342660769975        1.32316727438223        0.48976369290247
C           -1.05258388089233        1.26057010412529        0.75775932947450
C           -1.86522490113319        0.36634831056997        0.07668952162842
C           -3.34820775322236        0.28934517154428        0.37483770078419
C           -4.06884546997548        0.55931999306935       -0.92862985268541
O           -4.30838032340055        1.86698055211942       -1.09475875795095
O           -4.37166953520506       -0.26162614959597       -1.75168738891947
C           -3.73729827517203       -1.07578416251039        0.94179010426931
C           -1.29438302520128       -0.45764752297318       -0.88602128192634
C            0.05918274095343       -0.38888238715077       -1.15328582841424
C            4.55589594341355       -0.64488820025922       -0.57492226307163
H            3.50951119356524       -1.46411642274286        1.82796125276064
H            3.47320402106900        0.29873313612808        1.77758023809781
H            1.96491984197509       -0.61793123574916        1.71463836868490
H            2.62142095952326       -1.56870287242553       -0.48091487051349
H            2.51063318771926        0.52908579559745       -1.83477320699101
H            2.77792476024010        1.47376105657362       -0.36342273103522
H            0.92080034232947        2.02522062010764        1.03192129954835
H           -1.48093208463553        1.91375653896134        1.50465751847310
H           -3.61071808350176        1.08528213828563        1.07680144144899
H           -4.72480882322305        2.02961254631957       -1.95607303823867
H           -3.11863530739450       -1.30958334430893        1.80463748362752
H           -4.78163202287431       -1.07505131910384        1.24547760305494
H           -3.59995770021172       -1.84636310224231        0.18845611473391
H           -1.91781769585855       -1.14476962013420       -1.43836330508453
H            0.48635937294179       -1.03112558641173       -1.91024506255086
H            5.08544960253710       -1.49341353700292       -0.14753540284089
H            4.62956188071612       -0.70623180255887       -1.65859767163779
H            5.05158261424944        0.26732869006153       -0.24872478941720

 Bond Distances (Angstroems)
 ---------------------------
C1-C2=1.5257         C1-H16=1.0877        C1-H17=1.0883        C1-H18=1.0875        C2-C1=1.5257         C2-C3=1.5385         
C2-C15=1.5265        C2-H19=1.0956        C3-C2=1.5385         C3-C4=1.5007         C3-H20=1.0929        C3-H21=1.0919        
C4-C3=1.5007         C4-C5=1.3881         C4-C14=1.3903        C5-C4=1.3881         C5-C6=1.3837         C5-H22=1.0807        
C6-C5=1.3837         C6-C7=1.3870         C6-H23=1.0807        C7-C6=1.3870         C7-C8=1.5146         C7-C13=1.3898        
C8-C7=1.5146         C8-C9=1.5137         C8-C12=1.5285        C8-H24=1.0932        C9-C8=1.5137         C9-O10=1.3398        
C9-O11=1.2013        O10-C9=1.3398        O10-H25=0.9704       O11-C9=1.2013        C12-C8=1.5285        C12-H26=1.0872       
C12-H27=1.0876       C12-H28=1.0864       C13-C7=1.3898        C13-C14=1.3814       C13-H29=1.0798       C14-C4=1.3903        
C14-C13=1.3814       C14-H30=1.0807       C15-C2=1.5265        C15-H31=1.0877       C15-H32=1.0879       C15-H33=1.0882       
H16-C1=1.0877        H17-C1=1.0883        H18-C1=1.0875        H19-C2=1.0956        H20-C3=1.0929        H21-C3=1.0919        
H22-C5=1.0807        H23-C6=1.0807        H24-C8=1.0932        H25-O10=0.9704       H26-C12=1.0872       H27-C12=1.0876       
H28-C12=1.0864       H29-C13=1.0798       H30-C14=1.0807       H31-C15=1.0877       H32-C15=1.0879       H33-C15=1.0882       
 C  H  Rav=1.0873 sigma=0.0045  Rmin=1.0798  Rmax=1.0956    17
 C  C  Rav=1.4591 sigma=0.0676  Rmin=1.3814  Rmax=1.5385    13
 O  H  Rav=0.9704 sigma=0.0000  Rmin=0.9704  Rmax=0.9704     1
 O  C  Rav=1.2705 sigma=0.0692  Rmin=1.2013  Rmax=1.3398     2

 selected bond angles (degree)
 --------------------
H16-C1-C2=110.44               H17-C1-C2=110.41               H17-C1-H16=108.32              H18-C1-C2=110.62               
H18-C1-H16=108.45              H18-C1-H17=108.53              C3-C2-C1=110.79                C15-C2-C1=110.44               
C15-C2-C3=110.08               H19-C2-C1=108.48               H19-C2-C3=108.26               H19-C2-C15=108.73              
C4-C3-C2=111.96                H20-C3-C2=108.59               H20-C3-C4=109.23               H21-C3-C2=108.94               
H21-C3-C4=109.93               H21-C3-H20=108.11              C5-C4-C3=121.34                C14-C4-C3=120.35               
C14-C4-C5=118.31               C6-C5-C4=120.91                H22-C5-C4=119.62               H22-C5-C6=119.48               
C7-C6-C5=120.55                H23-C6-C5=119.67               H23-C6-C7=119.79               C8-C7-C6=120.65                
C13-C7-C6=118.80               C13-C7-C8=120.55               C9-C8-C7=106.71                C12-C8-C7=111.57               
C12-C8-C9=110.95               H24-C8-C7=108.93               H24-C8-C9=107.98               H24-C8-C12=110.54              
O10-C9-C8=111.47               O11-C9-C8=126.02               O11-C9-O10=122.48              H25-O10-C9=110.51              

 selected dihedral angles (degree)
 ---------------------------------
C3-C2-C1-H16=178.55           C3-C2-C1-H17=298.32           C3-C2-C1-H18= 58.47           C15-C2-C1-H16=300.78          
C15-C2-C1-H17= 60.55          C15-C2-C1-H18=180.70          H19-C2-C1-H16= 59.85          H19-C2-C1-H17=179.62          
H19-C2-C1-H18=299.77          C4-C3-C2-C1=296.01            C4-C3-C2-C15=173.57           C4-C3-C2-H19= 54.85           
H20-C3-C2-C1=175.34           H20-C3-C2-C15= 52.89          H20-C3-C2-H19=294.17          H21-C3-C2-C1= 57.81           
H21-C3-C2-C15=295.36          H21-C3-C2-H19=176.64          C5-C4-C3-C2=103.49            C5-C4-C3-H20=223.79           
C5-C4-C3-H21=342.26           C14-C4-C3-C2=284.51           C14-C4-C3-H20= 44.82          C14-C4-C3-H21=163.28          
C6-C5-C4-C3=180.90            C6-C5-C4-C14=359.90           H22-C5-C4-C3=  1.19           H22-C5-C4-C14=180.19          
C7-C6-C5-C4=  0.39            C7-C6-C5-H22=180.10           H23-C6-C5-C4=180.35           H23-C6-C5-H22=  0.06          
C8-C7-C6-C5=179.58            C8-C7-C6-H23=359.63           C13-C7-C6-C5=359.52           C13-C7-C6-H23=179.57          
C9-C8-C7-C6=122.29            C9-C8-C7-C13=302.35           C12-C8-C7-C6=243.63           C12-C8-C7-C13= 63.69          
H24-C8-C7-C6=  5.94           H24-C8-C7-C13=186.01          O10-C9-C8-C7=270.27           O10-C9-C8-C12=148.54          
O10-C9-C8-H24= 27.25          O11-C9-C8-C7= 88.34           O11-C9-C8-C12=326.61          O11-C9-C8-H24=205.32          
H25-O10-C9-C8=176.79          H25-O10-C9-O11=358.64         
           -------------------------------------------------
          |                Final Singlepoint                |
           -------------------------------------------------

          ...................................................
          :                      SETUP                      :
          :.................................................:
          :  # basis functions                  78          :
          :  # atomic orbitals                  78          :
          :  # shells                           48          :
          :  # electrons                        82          :
          :  max. iterations                   250          :
          :  Hamiltonian                  GFN2-xTB          :
          :  restarted?                      false          :
          :  GBSA solvation                  false          :
          :  PC potential                    false          :
          :  electronic temp.          300.0000000     K    :
          :  accuracy                    1.0000000          :
          :  -> integral cutoff          0.2500000E+02      :
          :  -> integral neglect         0.1000000E-07      :
          :  -> SCF convergence          0.1000000E-05 Eh   :
          :  -> wf. convergence          0.1000000E-03 e    :
          :  Broyden damping             0.4000000          :
          :  net charge                          0          :
          :  unpaired electrons                  0          :
          ...................................................

 iter      E             dE          RMSdq      gap      omega  full diag
   1    -45.8377268 -0.458377E+02  0.384E-05    4.10       0.0  T
   2    -45.8377268 -0.641620E-11  0.235E-05    4.10     739.7  T
   3    -45.8377268 -0.107292E-11  0.149E-05    4.10    1165.8  T

   *** convergence criteria satisfied after 3 iterations ***

         #    Occupation            Energy/Eh            Energy/eV
      -------------------------------------------------------------
         1        2.0000           -0.7443389             -20.2545
       ...           ...                  ...                  ...
        35        2.0000           -0.4358474             -11.8600
        36        2.0000           -0.4277474             -11.6396
        37        2.0000           -0.4246854             -11.5563
        38        2.0000           -0.4172512             -11.3540
        39        2.0000           -0.4116658             -11.2020
        40        2.0000           -0.4022141             -10.9448
        41        2.0000           -0.3879546             -10.5568 (HOMO)
        42                         -0.2373773              -6.4594 (LUMO)
        43                         -0.2203968              -5.9973
        44                         -0.2151868              -5.8555
        45                         -0.0942152              -2.5637
        46                          0.0482354               1.3126
       ...                                ...                  ...
        78                          0.6584568              17.9175
      -------------------------------------------------------------
                  HL-Gap            0.1505773 Eh            4.0974 eV
             Fermi-level           -0.3126660 Eh           -8.5081 eV

 SCC (total)                   0 d,  0 h,  0 min,  0.021 sec
 SCC setup                      ...        0 min,  0.000 sec (  1.008%)
 Dispersion                     ...        0 min,  0.000 sec (  0.945%)
 classical contributions        ...        0 min,  0.000 sec (  0.406%)
 integral evaluation            ...        0 min,  0.004 sec ( 19.954%)
 iterations                     ...        0 min,  0.004 sec ( 17.214%)
 molecular gradient             ...        0 min,  0.013 sec ( 59.914%)
 printout                       ...        0 min,  0.000 sec (  0.526%)

         :::::::::::::::::::::::::::::::::::::::::::::::::::::
         ::                     SUMMARY                     ::
         :::::::::::::::::::::::::::::::::::::::::::::::::::::
         :: total energy             -45.171909099714 Eh    ::
         :: gradient norm              0.000525746147 Eh/a0 ::
         :: HOMO-LUMO gap              4.097417089636 eV    ::
         ::.................................................::
         :: SCC energy               -45.837594874406 Eh    ::
         :: -> isotropic ES            0.052085757030 Eh    ::
         :: -> anisotropic ES          0.006522139428 Eh    ::
         :: -> anisotropic XC          0.018468044739 Eh    ::
         :: -> dispersion             -0.029464417658 Eh    ::
         :: repulsion energy           0.665685774692 Eh    ::
         :: add. restraining           0.000000000000 Eh    ::
         :: total charge              -0.000000000000 e     ::
         :::::::::::::::::::::::::::::::::::::::::::::::::::::

           -------------------------------------------------
          |                Property Printout                |
           -------------------------------------------------

    * Orbital Energies and Occupations

         #    Occupation            Energy/Eh            Energy/eV
      -------------------------------------------------------------
         1        2.0000           -0.7443389             -20.2545
       ...           ...                  ...                  ...
        29        2.0000           -0.4668430             -12.7034
        30        2.0000           -0.4630327             -12.5998
        31        2.0000           -0.4579528             -12.4615
        32        2.0000           -0.4553203             -12.3899
        33        2.0000           -0.4485807             -12.2065
        34        2.0000           -0.4416480             -12.0179
        35        2.0000           -0.4358474             -11.8600
        36        2.0000           -0.4277474             -11.6396
        37        2.0000           -0.4246854             -11.5563
        38        2.0000           -0.4172512             -11.3540
        39        2.0000           -0.4116658             -11.2020
        40        2.0000           -0.4022141             -10.9448
        41        2.0000           -0.3879546             -10.5568 (HOMO)
        42                         -0.2373773              -6.4594 (LUMO)
        43                         -0.2203968              -5.9973
        44                         -0.2151868              -5.8555
        45                         -0.0942152              -2.5637
        46                          0.0482354               1.3126
        47                          0.0806795               2.1954
        48                          0.0878675               2.3910
        49                          0.0979743               2.6660
        50                          0.1075251               2.9259
        51                          0.1250571               3.4030
        52                          0.1323740               3.6021
       ...                                ...                  ...
        78                          0.6584568              17.9175
      -------------------------------------------------------------
                  HL-Gap            0.1505773 Eh            4.0974 eV
             Fermi-level           -0.3126660 Eh           -8.5081 eV

     #   Z          covCN         q      C6AA      α(0)
     1   6 C        3.756    -0.106    22.574     6.774
     2   6 C        3.851    -0.006    20.645     6.463
     3   6 C        3.812    -0.068    21.800     6.646
     4   6 C        2.969     0.014    27.704     8.634
     5   6 C        2.925    -0.039    28.961     8.825
     6   6 C        2.922    -0.039    28.963     8.826
     7   6 C        2.981     0.009    27.803     8.649
     8   6 C        3.858    -0.042    21.293     6.563
     9   6 C        2.700     0.363    20.842     7.472
    10   8 O        1.660    -0.381    20.487     6.110
    11   8 O        0.856    -0.409    21.867     6.269
    12   6 C        3.756    -0.103    22.527     6.767
    13   6 C        2.922    -0.038    28.954     8.824
    14   6 C        2.925    -0.038    28.948     8.823
    15   6 C        3.756    -0.106    22.587     6.776
    16   1 H        0.925     0.034     2.535     2.490
    17   1 H        0.925     0.035     2.512     2.479
    18   1 H        0.925     0.035     2.518     2.482
    19   1 H        0.924     0.029     2.596     2.520
    20   1 H        0.924     0.039     2.464     2.455
    21   1 H        0.924     0.038     2.474     2.460
    22   1 H        0.926     0.033     2.545     2.495
    23   1 H        0.926     0.031     2.568     2.506
    24   1 H        0.924     0.058     2.220     2.330
    25   1 H        0.804     0.327     0.644     1.261
    26   1 H        0.925     0.045     2.382     2.413
    27   1 H        0.925     0.043     2.409     2.427
    28   1 H        0.925     0.060     2.198     2.318
    29   1 H        0.926     0.045     2.388     2.417
    30   1 H        0.926     0.033     2.543     2.494
    31   1 H        0.925     0.036     2.504     2.475
    32   1 H        0.925     0.033     2.548     2.496
    33   1 H        0.925     0.036     2.508     2.476

 Mol. C6AA /au·bohr⁶  :      10236.368672
 Mol. C8AA /au·bohr⁸  :     234130.729682
 Mol. α(0) /au        :        155.414882


Wiberg/Mayer (AO) data.
largest (>0.10) Wiberg bond orders for each atom

 ---------------------------------------------------------------------------
     #   Z sym  total        # sym  WBO       # sym  WBO       # sym  WBO
 ---------------------------------------------------------------------------
     1   6 C    3.997 --     2 C    1.010    17 H    0.987    16 H    0.986
                            18 H    0.985
     2   6 C    3.995 --     1 C    1.010    15 C    1.008     3 C    0.977
                            19 H    0.969
     3   6 C    3.996 --     4 C    1.015     2 C    0.977    21 H    0.974
                            20 H    0.968
     4   6 C    3.986 --     5 C    1.413    14 C    1.403     3 C    1.015
                             7 C    0.105
     5   6 C    3.990 --     6 C    1.442     4 C    1.413    22 H    0.968
                            13 C    0.108
     6   6 C    3.991 --     5 C    1.442     7 C    1.415    23 H    0.968
                            14 C    0.108
     7   6 C    3.985 --     6 C    1.415    13 C    1.403     8 C    0.967
                             4 C    0.105
     8   6 C    3.992 --    12 C    0.992     7 C    0.967    24 H    0.961
                             9 C    0.954
     9   6 C    3.907 --    11 O    1.766    10 O    1.127     8 C    0.954
    10   8 O    2.194 --     9 C    1.127    25 H    0.867    11 O    0.170
    11   8 O    2.041 --     9 C    1.766    10 O    0.170
    12   6 C    3.992 --     8 C    0.992    26 H    0.986    27 H    0.986
                            28 H    0.983
    13   6 C    3.991 --    14 C    1.457     7 C    1.403    29 H    0.967
                             5 C    0.108
    14   6 C    3.992 --    13 C    1.457     4 C    1.403    30 H    0.969
                             6 C    0.108
    15   6 C    3.996 --     2 C    1.008    33 H    0.987    32 H    0.987
                            31 H    0.986
    16   1 H    0.999 --     1 C    0.986
    17   1 H    0.999 --     1 C    0.987
    18   1 H    0.999 --     1 C    0.985
    19   1 H    0.999 --     2 C    0.969
    20   1 H    0.998 --     3 C    0.968
    21   1 H    0.998 --     3 C    0.974
    22   1 H    0.998 --     5 C    0.968
    23   1 H    0.999 --     6 C    0.968
    24   1 H    0.996 --     8 C    0.961
    25   1 H    0.893 --    10 O    0.867
    26   1 H    0.998 --    12 C    0.986
    27   1 H    0.997 --    12 C    0.986
    28   1 H    0.996 --    12 C    0.983
    29   1 H    0.998 --    13 C    0.967
    30   1 H    0.999 --    14 C    0.969
    31   1 H    0.998 --    15 C    0.986
    32   1 H    0.999 --    15 C    0.987
    33   1 H    0.999 --    15 C    0.987
 ---------------------------------------------------------------------------

Topologies differ in total number of bonds
Writing topology from bond orders to xtbtopo.mol

molecular dipole:
                 x           y           z       tot (Debye)
 q only:        0.514       0.368       0.402
   full:        0.419       0.503       0.322       1.854
molecular quadrupole (traceless):
                xx          xy          yy          xz          yz          zz
 q only:       -1.284      -5.848       1.456      -4.986      -3.948      -0.172
  q+dip:        0.580      -7.022      -0.205      -4.252      -1.744      -0.375
   full:        0.241      -7.553      -0.062      -4.355      -4.213      -0.180

           -------------------------------------------------
          |                Geometry Summary                 |
           -------------------------------------------------

      molecular mass/u    :      206.2813100
   center of mass at/Å    :       -0.6903852       0.1715627      -0.2604593
  moments of inertia/u·Å² :        0.3273114E+03   0.2020752E+04   0.2042371E+04
rotational constants/cm⁻¹ :        0.5150335E-01   0.8342255E-02   0.8253951E-02

 * 30 selected distances

     #   Z          #   Z                                           value/Å
     1   6 C        2   6 C                                       1.5257050
     2   6 C        3   6 C                                       1.5384516 (max)
     4   6 C        5   6 C                                       1.3881211
     5   6 C        6   6 C                                       1.3836563
     6   6 C        7   6 C                                       1.3870380
     9   6 C       10   8 O                                       1.3397583
     9   6 C       11   8 O                                       1.2012822
     8   6 C       12   6 C                                       1.5285303
     7   6 C       13   6 C                                       1.3898353
     4   6 C       14   6 C                                       1.3903466
    13   6 C       14   6 C                                       1.3814122
     2   6 C       15   6 C                                       1.5264538
     1   6 C       16   1 H                                       1.0877190
     1   6 C       17   1 H                                       1.0882705
     1   6 C       18   1 H                                       1.0875098
     2   6 C       19   1 H                                       1.0956440
     3   6 C       20   1 H                                       1.0928542
     3   6 C       21   1 H                                       1.0919423
     5   6 C       22   1 H                                       1.0807240
     6   6 C       23   1 H                                       1.0807367
     8   6 C       24   1 H                                       1.0932432
    10   8 O       25   1 H                                       0.9704248 (min)
    12   6 C       26   1 H                                       1.0871576
    12   6 C       27   1 H                                       1.0875936
    12   6 C       28   1 H                                       1.0863548
    13   6 C       29   1 H                                       1.0797636
    14   6 C       30   1 H                                       1.0807144
    15   6 C       31   1 H                                       1.0876958
    15   6 C       32   1 H                                       1.0879073
    15   6 C       33   1 H                                       1.0882325

 * 4 distinct bonds (by element types)

   Z      Z             #   av. dist./Å        max./Å        min./Å
   1 H    6 C          17     1.0872978     1.0956440     1.0797636
   6 C    6 C          10     1.4439550     1.5384516     1.3814122
   1 H    8 O           1     0.9704248     0.9704248     0.9704248
   6 C    8 O           2     1.2705202     1.3397583     1.2012822


optimized geometry written to: xtbopt.xyz


           -------------------------------------------------
          | TOTAL ENERGY              -45.171909099714 Eh   |
          | GRADIENT NORM               0.000525746147 Eh/α |
          | HOMO-LUMO GAP               4.097417089636 eV   |
           -------------------------------------------------

------------------------------------------------------------------------
 * finished run on 2025/05/15 at 16:30:17.579     
------------------------------------------------------------------------
 total:
 * wall-time:     0 d,  0 h,  0 min,  0.742 sec
 *  cpu-time:     0 d,  0 h,  0 min,  0.429 sec
 * ratio c/w:     0.578 speedup
 SCF:
 * wall-time:     0 d,  0 h,  0 min,  0.060 sec
 *  cpu-time:     0 d,  0 h,  0 min,  0.032 sec
 * ratio c/w:     0.529 speedup
 ANC optimizer:
 * wall-time:     0 d,  0 h,  0 min,  0.627 sec
 *  cpu-time:     0 d,  0 h,  0 min,  0.387 sec
 * ratio c/w:     0.618 speedup



----- Single-point -----
      -----------------------------------------------------------      
     |                   =====================                   |     
     |                           x T B                           |     
     |                   =====================                   |     
     |                         S. Grimme                         |     
     |          Mulliken Center for Theoretical Chemistry        |     
     |                    University of Bonn                     |     
      -----------------------------------------------------------      

   * xtb version 6.7.1 (edcfbbe) compiled by 'conda@3ef47c1a292c' on 2024-11-25

   xtb is free software: you can redistribute it and/or modify it under
   the terms of the GNU Lesser General Public License as published by
   the Free Software Foundation, either version 3 of the License, or
   (at your option) any later version.
   
   xtb is distributed in the hope that it will be useful,
   but WITHOUT ANY WARRANTY; without even the implied warranty of
   MERCHANTABILITY or FITNESS FOR A PARTICULAR PURPOSE.  See the
   GNU Lesser General Public License for more details.
   
   Cite this work as:
   * C. Bannwarth, E. Caldeweyher, S. Ehlert, A. Hansen, P. Pracht,
     J. Seibert, S. Spicher, S. Grimme, WIREs Comput. Mol. Sci., 2020, 11,
     e01493. DOI: 10.1002/wcms.1493
   
   for GFN2-xTB:
   * C. Bannwarth, S. Ehlert and S. Grimme., J. Chem. Theory Comput., 2019,
     15, 1652-1671. DOI: 10.1021/acs.jctc.8b01176
   for GFN1-xTB:
   * S. Grimme, C. Bannwarth, P. Shushkov, J. Chem. Theory Comput., 2017,
     13, 1989-2009. DOI: 10.1021/acs.jctc.7b00118
   for GFN0-xTB:
   * P. Pracht, E. Caldeweyher, S. Ehlert, S. Grimme, ChemRxiv, 2019, preprint.
     DOI: 10.26434/chemrxiv.8326202.v1
   for GFN-FF:
   * S. Spicher and S. Grimme, Angew. Chem. Int. Ed., 2020, 59, 15665-15673.
     DOI: 10.1002/anie.202004239
   
   for ALPB and GBSA implicit solvation:
   * S. Ehlert, M. Stahn, S. Spicher, S. Grimme, J. Chem. Theory Comput.,
     2021, 17, 4250-4261. DOI: 10.1021/acs.jctc.1c00471
   
   for ddCOSMO and CPCM-X implicit solvation:
   * M. Stahn, S. Ehlert, S. Grimme, J. Phys. Chem. A,
     2023, XX, XXXX-XXXX. DOI: 10.1021/acs.jpca.3c04382
   
   for DFT-D4:
   * E. Caldeweyher, C. Bannwarth and S. Grimme, J. Chem. Phys., 2017,
     147, 034112. DOI: 10.1063/1.4993215
   * E. Caldeweyher, S. Ehlert, A. Hansen, H. Neugebauer, S. Spicher,
     C. Bannwarth and S. Grimme, J. Chem. Phys., 2019, 150, 154122.
     DOI: 10.1063/1.5090222
   * E. Caldeweyher, J.-M. Mewes, S. Ehlert and S. Grimme, Phys. Chem. Chem. Phys.
     2020, 22, 8499-8512. DOI: 10.1039/D0CP00502A
   
   for sTDA-xTB:
   * S. Grimme and C. Bannwarth, J. Chem. Phys., 2016, 145, 054103.
     DOI: 10.1063/1.4959605
   
   in the mass-spec context:
   * V. Asgeirsson, C. Bauer and S. Grimme, Chem. Sci., 2017, 8, 4879.
     DOI: 10.1039/c7sc00601b
   * J. Koopman and S. Grimme, ACS Omega 2019, 4, 12, 15120-15133.
     DOI: 10.1021/acsomega.9b02011
   
   for metadynamics refer to:
   * S. Grimme, J. Chem. Theory Comput., 2019, 155, 2847-2862
     DOI: 10.1021/acs.jctc.9b00143
   
   for SPH calculations refer to:
   * S. Spicher and S. Grimme, J. Chem. Theory Comput., 2021, 17, 1701-1714
     DOI: 10.1021/acs.jctc.0c01306
   
   for ONIOM refer to:
   * C. Plett, A. Katbashev, S. Ehlert, S. Grimme, M. Bursch,
     Phys. Chem. Chem. Phys., 2023, 25, 17860-17868. DOI: 10.1039/D3CP02178E
   
   for DIPRO refer to:
   * J. Kohn, N. Gildemeister, S. Grimme, D. Fazzi, A. Hansen,
     J. Chem. Phys., 2023, just accepted.
   
   for PTB refer to:
   * S. Grimme, M. Mueller, A. Hansen, J. Chem. Phys., 2023, 158, 124111.
     DOI: 10.1063/5.0137838
   
   with help from (in alphabetical order)
   P. Atkinson, C. Bannwarth, F. Bohle, G. Brandenburg, E. Caldeweyher
   M. Checinski, S. Dohm, S. Ehlert, S. Ehrlich, I. Gerasimov, C. Hölzer
   A. Katbashev, J. Kohn, J. Koopman, C. Lavigne, S. Lehtola, F. März, M. Müller,
   F. Musil, H. Neugebauer, J. Pisarek, C. Plett, P. Pracht, F. Pultar,
   J. Seibert, P. Shushkov, S. Spicher, M. Stahn, M. Steiner, T. Strunk,
   J. Stückrath, T. Rose, and J. Unsleber
   
 * started run on 2025/05/15 at 16:30:17.592     
   ID    Z sym.   atoms
    1    6 C      1-9, 12-15
    2    8 O      10, 11
    3    1 H      16-33

           -------------------------------------------------
          |                Calculation Setup                |
           -------------------------------------------------

          program call               : xtb /rds/general/user/hgt20/home/callum/QDESCP/Ibuprofen_rdkit_conf_4/Ibuprofen_rdkit_conf_4.xyz --acc 1 --gfn 2 --chrg 0 --uhf 0 --etemp 300 --input /rds/general/user/hgt20/home/callum/QDESCP/Ibuprofen_rdkit_conf_4/Ibuprofen_rdkit_conf_4_xtb.inp -P 1
          hostname                   : login-c
          coordinate file            : /rds/general/user/hgt20/home/callum/QDESCP/Ibuprofen_rdkit_conf_4/Ibuprofen_rdkit_conf_4.xyz
          omp threads                :                     1


           -------------------------------------------------
          |                 G F N 2 - x T B                 |
           -------------------------------------------------

        Reference                      10.1021/acs.jctc.8b01176
      * Hamiltonian:
        H0-scaling (s, p, d)           1.850000    2.230000    2.230000
        zeta-weighting                 0.500000
      * Dispersion:
        s8                             2.700000
        a1                             0.520000
        a2                             5.000000
        s9                             5.000000
      * Repulsion:
        kExp                           1.500000    1.000000
        rExp                           1.000000
      * Coulomb:
        alpha                          2.000000
        third order                    shell-resolved
        anisotropic                    true
        a3                             3.000000
        a5                             4.000000
        cn-shift                       1.200000
        cn-exp                         4.000000
        max-rad                        5.000000

q/qsh data taken from xtbrestart
CAMM data taken from xtbrestart

          ...................................................
          :                      SETUP                      :
          :.................................................:
          :  # basis functions                  78          :
          :  # atomic orbitals                  78          :
          :  # shells                           48          :
          :  # electrons                        82          :
          :  max. iterations                   250          :
          :  Hamiltonian                  GFN2-xTB          :
          :  restarted?                       true          :
          :  GBSA solvation                  false          :
          :  PC potential                    false          :
          :  electronic temp.          300.0000000     K    :
          :  accuracy                    1.0000000          :
          :  -> integral cutoff          0.2500000E+02      :
          :  -> integral neglect         0.1000000E-07      :
          :  -> SCF convergence          0.1000000E-05 Eh   :
          :  -> wf. convergence          0.1000000E-03 e    :
          :  Broyden damping             0.4000000          :
          :  net charge                          0          :
          :  unpaired electrons                  0          :
          ...................................................

 iter      E             dE          RMSdq      gap      omega  full diag
   1    -45.8377268 -0.458377E+02  0.387E-06    4.10       0.0  T
   2    -45.8377268 -0.923706E-13  0.233E-06    4.10    7469.9  T
   3    -45.8377268 -0.156319E-12  0.152E-06    4.10   11486.4  T

   *** convergence criteria satisfied after 3 iterations ***

         #    Occupation            Energy/Eh            Energy/eV
      -------------------------------------------------------------
         1        2.0000           -0.7443387             -20.2545
       ...           ...                  ...                  ...
        35        2.0000           -0.4358474             -11.8600
        36        2.0000           -0.4277474             -11.6396
        37        2.0000           -0.4246854             -11.5563
        38        2.0000           -0.4172512             -11.3540
        39        2.0000           -0.4116657             -11.2020
        40        2.0000           -0.4022141             -10.9448
        41        2.0000           -0.3879546             -10.5568 (HOMO)
        42                         -0.2373772              -6.4594 (LUMO)
        43                         -0.2203968              -5.9973
        44                         -0.2151868              -5.8555
        45                         -0.0942152              -2.5637
        46                          0.0482355               1.3126
       ...                                ...                  ...
        78                          0.6584568              17.9175
      -------------------------------------------------------------
                  HL-Gap            0.1505774 Eh            4.0974 eV
             Fermi-level           -0.3126659 Eh           -8.5081 eV

 SCC (total)                   0 d,  0 h,  0 min,  0.024 sec
 SCC setup                      ...        0 min,  0.000 sec (  1.095%)
 Dispersion                     ...        0 min,  0.000 sec (  1.330%)
 classical contributions        ...        0 min,  0.000 sec (  0.408%)
 integral evaluation            ...        0 min,  0.004 sec ( 18.751%)
 iterations                     ...        0 min,  0.005 sec ( 19.644%)
 molecular gradient             ...        0 min,  0.014 sec ( 58.101%)
 printout                       ...        0 min,  0.000 sec (  0.639%)

         :::::::::::::::::::::::::::::::::::::::::::::::::::::
         ::                     SUMMARY                     ::
         :::::::::::::::::::::::::::::::::::::::::::::::::::::
         :: total energy             -45.171909099716 Eh    ::
         :: gradient norm              0.000525720531 Eh/a0 ::
         :: HOMO-LUMO gap              4.097420262902 eV    ::
         ::.................................................::
         :: SCC energy               -45.837594874408 Eh    ::
         :: -> isotropic ES            0.052085799802 Eh    ::
         :: -> anisotropic ES          0.006522153861 Eh    ::
         :: -> anisotropic XC          0.018468047243 Eh    ::
         :: -> dispersion             -0.029464417970 Eh    ::
         :: repulsion energy           0.665685774692 Eh    ::
         :: add. restraining           0.000000000000 Eh    ::
         :: total charge               0.000000000000 e     ::
         :::::::::::::::::::::::::::::::::::::::::::::::::::::

           -------------------------------------------------
          |                Property Printout                |
           -------------------------------------------------

    * Orbital Energies and Occupations

         #    Occupation            Energy/Eh            Energy/eV
      -------------------------------------------------------------
         1        2.0000           -0.7443387             -20.2545
       ...           ...                  ...                  ...
        29        2.0000           -0.4668430             -12.7034
        30        2.0000           -0.4630328             -12.5998
        31        2.0000           -0.4579528             -12.4615
        32        2.0000           -0.4553203             -12.3899
        33        2.0000           -0.4485807             -12.2065
        34        2.0000           -0.4416480             -12.0179
        35        2.0000           -0.4358474             -11.8600
        36        2.0000           -0.4277474             -11.6396
        37        2.0000           -0.4246854             -11.5563
        38        2.0000           -0.4172512             -11.3540
        39        2.0000           -0.4116657             -11.2020
        40        2.0000           -0.4022141             -10.9448
        41        2.0000           -0.3879546             -10.5568 (HOMO)
        42                         -0.2373772              -6.4594 (LUMO)
        43                         -0.2203968              -5.9973
        44                         -0.2151868              -5.8555
        45                         -0.0942152              -2.5637
        46                          0.0482355               1.3126
        47                          0.0806795               2.1954
        48                          0.0878676               2.3910
        49                          0.0979743               2.6660
        50                          0.1075251               2.9259
        51                          0.1250571               3.4030
        52                          0.1323740               3.6021
       ...                                ...                  ...
        78                          0.6584568              17.9175
      -------------------------------------------------------------
                  HL-Gap            0.1505774 Eh            4.0974 eV
             Fermi-level           -0.3126659 Eh           -8.5081 eV

     #   Z          covCN         q      C6AA      α(0)
     1   6 C        3.756    -0.106    22.574     6.774
     2   6 C        3.851    -0.006    20.645     6.463
     3   6 C        3.812    -0.068    21.800     6.646
     4   6 C        2.969     0.014    27.704     8.634
     5   6 C        2.925    -0.039    28.961     8.825
     6   6 C        2.922    -0.039    28.963     8.826
     7   6 C        2.981     0.009    27.803     8.649
     8   6 C        3.858    -0.042    21.293     6.563
     9   6 C        2.700     0.363    20.842     7.472
    10   8 O        1.660    -0.381    20.487     6.110
    11   8 O        0.856    -0.409    21.866     6.269
    12   6 C        3.756    -0.103    22.527     6.767
    13   6 C        2.922    -0.038    28.954     8.824
    14   6 C        2.925    -0.038    28.948     8.823
    15   6 C        3.756    -0.106    22.587     6.776
    16   1 H        0.925     0.034     2.535     2.490
    17   1 H        0.925     0.035     2.512     2.479
    18   1 H        0.925     0.035     2.518     2.482
    19   1 H        0.924     0.029     2.596     2.520
    20   1 H        0.924     0.039     2.464     2.455
    21   1 H        0.924     0.038     2.474     2.460
    22   1 H        0.926     0.033     2.545     2.495
    23   1 H        0.926     0.031     2.568     2.506
    24   1 H        0.924     0.058     2.220     2.330
    25   1 H        0.804     0.327     0.644     1.261
    26   1 H        0.925     0.045     2.382     2.413
    27   1 H        0.925     0.043     2.409     2.427
    28   1 H        0.925     0.060     2.198     2.318
    29   1 H        0.926     0.045     2.388     2.417
    30   1 H        0.926     0.033     2.543     2.494
    31   1 H        0.925     0.036     2.504     2.475
    32   1 H        0.925     0.033     2.548     2.496
    33   1 H        0.925     0.036     2.508     2.476

 Mol. C6AA /au·bohr⁶  :      10236.368848
 Mol. C8AA /au·bohr⁸  :     234130.729994
 Mol. α(0) /au        :        155.414883


Wiberg/Mayer (AO) data.
largest (>0.10) Wiberg bond orders for each atom

 ---------------------------------------------------------------------------
     #   Z sym  total        # sym  WBO       # sym  WBO       # sym  WBO
 ---------------------------------------------------------------------------
     1   6 C    3.997 --     2 C    1.010    17 H    0.987    16 H    0.986
                            18 H    0.985
     2   6 C    3.995 --     1 C    1.010    15 C    1.008     3 C    0.977
                            19 H    0.969
     3   6 C    3.996 --     4 C    1.015     2 C    0.977    21 H    0.974
                            20 H    0.968
     4   6 C    3.986 --     5 C    1.413    14 C    1.403     3 C    1.015
                             7 C    0.105
     5   6 C    3.990 --     6 C    1.442     4 C    1.413    22 H    0.968
                            13 C    0.108
     6   6 C    3.991 --     5 C    1.442     7 C    1.415    23 H    0.968
                            14 C    0.108
     7   6 C    3.985 --     6 C    1.415    13 C    1.403     8 C    0.967
                             4 C    0.105
     8   6 C    3.992 --    12 C    0.992     7 C    0.967    24 H    0.961
                             9 C    0.954
     9   6 C    3.907 --    11 O    1.766    10 O    1.127     8 C    0.954
    10   8 O    2.194 --     9 C    1.127    25 H    0.867    11 O    0.170
    11   8 O    2.041 --     9 C    1.766    10 O    0.170
    12   6 C    3.992 --     8 C    0.992    26 H    0.986    27 H    0.986
                            28 H    0.983
    13   6 C    3.991 --    14 C    1.457     7 C    1.403    29 H    0.967
                             5 C    0.108
    14   6 C    3.992 --    13 C    1.457     4 C    1.403    30 H    0.969
                             6 C    0.108
    15   6 C    3.996 --     2 C    1.008    33 H    0.987    32 H    0.987
                            31 H    0.986
    16   1 H    0.999 --     1 C    0.986
    17   1 H    0.999 --     1 C    0.987
    18   1 H    0.999 --     1 C    0.985
    19   1 H    0.999 --     2 C    0.969
    20   1 H    0.998 --     3 C    0.968
    21   1 H    0.998 --     3 C    0.974
    22   1 H    0.998 --     5 C    0.968
    23   1 H    0.999 --     6 C    0.968
    24   1 H    0.996 --     8 C    0.961
    25   1 H    0.893 --    10 O    0.867
    26   1 H    0.998 --    12 C    0.986
    27   1 H    0.997 --    12 C    0.986
    28   1 H    0.996 --    12 C    0.983
    29   1 H    0.998 --    13 C    0.967
    30   1 H    0.999 --    14 C    0.969
    31   1 H    0.998 --    15 C    0.986
    32   1 H    0.999 --    15 C    0.987
    33   1 H    0.999 --    15 C    0.987
 ---------------------------------------------------------------------------

Topologies differ in total number of bonds
Writing topology from bond orders to xtbtopo.mol

molecular dipole:
                 x           y           z       tot (Debye)
 q only:        0.514       0.368       0.402
   full:        0.419       0.503       0.322       1.854
molecular quadrupole (traceless):
                xx          xy          yy          xz          yz          zz
 q only:       -1.284      -5.848       1.456      -4.986      -3.948      -0.172
  q+dip:        0.580      -7.022      -0.205      -4.252      -1.744      -0.375
   full:        0.241      -7.553      -0.062      -4.355      -4.213      -0.180


           -------------------------------------------------
          | TOTAL ENERGY              -45.171909099716 Eh   |
          | GRADIENT NORM               0.000525720531 Eh/α |
          | HOMO-LUMO GAP               4.097420262902 eV   |
           -------------------------------------------------

------------------------------------------------------------------------
 * finished run on 2025/05/15 at 16:30:17.626     
------------------------------------------------------------------------
 total:
 * wall-time:     0 d,  0 h,  0 min,  0.034 sec
 *  cpu-time:     0 d,  0 h,  0 min,  0.033 sec
 * ratio c/w:     0.969 speedup
 SCF:
 * wall-time:     0 d,  0 h,  0 min,  0.024 sec
 *  cpu-time:     0 d,  0 h,  0 min,  0.024 sec
 * ratio c/w:     0.994 speedup



----- FOD -----
      -----------------------------------------------------------      
     |                   =====================                   |     
     |                           x T B                           |     
     |                   =====================                   |     
     |                         S. Grimme                         |     
     |          Mulliken Center for Theoretical Chemistry        |     
     |                    University of Bonn                     |     
      -----------------------------------------------------------      

   * xtb version 6.7.1 (edcfbbe) compiled by 'conda@3ef47c1a292c' on 2024-11-25

   xtb is free software: you can redistribute it and/or modify it under
   the terms of the GNU Lesser General Public License as published by
   the Free Software Foundation, either version 3 of the License, or
   (at your option) any later version.
   
   xtb is distributed in the hope that it will be useful,
   but WITHOUT ANY WARRANTY; without even the implied warranty of
   MERCHANTABILITY or FITNESS FOR A PARTICULAR PURPOSE.  See the
   GNU Lesser General Public License for more details.
   
   Cite this work as:
   * C. Bannwarth, E. Caldeweyher, S. Ehlert, A. Hansen, P. Pracht,
     J. Seibert, S. Spicher, S. Grimme, WIREs Comput. Mol. Sci., 2020, 11,
     e01493. DOI: 10.1002/wcms.1493
   
   for GFN2-xTB:
   * C. Bannwarth, S. Ehlert and S. Grimme., J. Chem. Theory Comput., 2019,
     15, 1652-1671. DOI: 10.1021/acs.jctc.8b01176
   for GFN1-xTB:
   * S. Grimme, C. Bannwarth, P. Shushkov, J. Chem. Theory Comput., 2017,
     13, 1989-2009. DOI: 10.1021/acs.jctc.7b00118
   for GFN0-xTB:
   * P. Pracht, E. Caldeweyher, S. Ehlert, S. Grimme, ChemRxiv, 2019, preprint.
     DOI: 10.26434/chemrxiv.8326202.v1
   for GFN-FF:
   * S. Spicher and S. Grimme, Angew. Chem. Int. Ed., 2020, 59, 15665-15673.
     DOI: 10.1002/anie.202004239
   
   for ALPB and GBSA implicit solvation:
   * S. Ehlert, M. Stahn, S. Spicher, S. Grimme, J. Chem. Theory Comput.,
     2021, 17, 4250-4261. DOI: 10.1021/acs.jctc.1c00471
   
   for ddCOSMO and CPCM-X implicit solvation:
   * M. Stahn, S. Ehlert, S. Grimme, J. Phys. Chem. A,
     2023, XX, XXXX-XXXX. DOI: 10.1021/acs.jpca.3c04382
   
   for DFT-D4:
   * E. Caldeweyher, C. Bannwarth and S. Grimme, J. Chem. Phys., 2017,
     147, 034112. DOI: 10.1063/1.4993215
   * E. Caldeweyher, S. Ehlert, A. Hansen, H. Neugebauer, S. Spicher,
     C. Bannwarth and S. Grimme, J. Chem. Phys., 2019, 150, 154122.
     DOI: 10.1063/1.5090222
   * E. Caldeweyher, J.-M. Mewes, S. Ehlert and S. Grimme, Phys. Chem. Chem. Phys.
     2020, 22, 8499-8512. DOI: 10.1039/D0CP00502A
   
   for sTDA-xTB:
   * S. Grimme and C. Bannwarth, J. Chem. Phys., 2016, 145, 054103.
     DOI: 10.1063/1.4959605
   
   in the mass-spec context:
   * V. Asgeirsson, C. Bauer and S. Grimme, Chem. Sci., 2017, 8, 4879.
     DOI: 10.1039/c7sc00601b
   * J. Koopman and S. Grimme, ACS Omega 2019, 4, 12, 15120-15133.
     DOI: 10.1021/acsomega.9b02011
   
   for metadynamics refer to:
   * S. Grimme, J. Chem. Theory Comput., 2019, 155, 2847-2862
     DOI: 10.1021/acs.jctc.9b00143
   
   for SPH calculations refer to:
   * S. Spicher and S. Grimme, J. Chem. Theory Comput., 2021, 17, 1701-1714
     DOI: 10.1021/acs.jctc.0c01306
   
   for ONIOM refer to:
   * C. Plett, A. Katbashev, S. Ehlert, S. Grimme, M. Bursch,
     Phys. Chem. Chem. Phys., 2023, 25, 17860-17868. DOI: 10.1039/D3CP02178E
   
   for DIPRO refer to:
   * J. Kohn, N. Gildemeister, S. Grimme, D. Fazzi, A. Hansen,
     J. Chem. Phys., 2023, just accepted.
   
   for PTB refer to:
   * S. Grimme, M. Mueller, A. Hansen, J. Chem. Phys., 2023, 158, 124111.
     DOI: 10.1063/5.0137838
   
   with help from (in alphabetical order)
   P. Atkinson, C. Bannwarth, F. Bohle, G. Brandenburg, E. Caldeweyher
   M. Checinski, S. Dohm, S. Ehlert, S. Ehrlich, I. Gerasimov, C. Hölzer
   A. Katbashev, J. Kohn, J. Koopman, C. Lavigne, S. Lehtola, F. März, M. Müller,
   F. Musil, H. Neugebauer, J. Pisarek, C. Plett, P. Pracht, F. Pultar,
   J. Seibert, P. Shushkov, S. Spicher, M. Stahn, M. Steiner, T. Strunk,
   J. Stückrath, T. Rose, and J. Unsleber
   
 * started run on 2025/05/15 at 16:30:18.235     
   ID    Z sym.   atoms
    1    6 C      1-9, 12-15
    2    8 O      10, 11
    3    1 H      16-33

           -------------------------------------------------
          |                Calculation Setup                |
           -------------------------------------------------

          program call               : xtb /rds/general/user/hgt20/home/callum/QDESCP/Ibuprofen_rdkit_conf_4/Ibuprofen_rdkit_conf_4.xyz --fod --gfn 2 --chrg 0 --acc 1 --uhf 0 --etemp 300 -P 1
          hostname                   : login-c
          coordinate file            : /rds/general/user/hgt20/home/callum/QDESCP/Ibuprofen_rdkit_conf_4/Ibuprofen_rdkit_conf_4.xyz
          omp threads                :                     1


           -------------------------------------------------
          |                 G F N 2 - x T B                 |
           -------------------------------------------------

        Reference                      10.1021/acs.jctc.8b01176
      * Hamiltonian:
[...]
   the terms of the GNU Lesser General Public License as published by
   the Free Software Foundation, either version 3 of the License, or
   (at your option) any later version.
   
   xtb is distributed in the hope that it will be useful,
   but WITHOUT ANY WARRANTY; without even the implied warranty of
   MERCHANTABILITY or FITNESS FOR A PARTICULAR PURPOSE.  See the
   GNU Lesser General Public License for more details.
   
   Cite this work as:
   * C. Bannwarth, E. Caldeweyher, S. Ehlert, A. Hansen, P. Pracht,
     J. Seibert, S. Spicher, S. Grimme, WIREs Comput. Mol. Sci., 2020, 11,
     e01493. DOI: 10.1002/wcms.1493
   
   for GFN2-xTB:
   * C. Bannwarth, S. Ehlert and S. Grimme., J. Chem. Theory Comput., 2019,
     15, 1652-1671. DOI: 10.1021/acs.jctc.8b01176
   for GFN1-xTB:
   * S. Grimme, C. Bannwarth, P. Shushkov, J. Chem. Theory Comput., 2017,
     13, 1989-2009. DOI: 10.1021/acs.jctc.7b00118
   for GFN0-xTB:
   * P. Pracht, E. Caldeweyher, S. Ehlert, S. Grimme, ChemRxiv, 2019, preprint.
     DOI: 10.26434/chemrxiv.8326202.v1
   for GFN-FF:
   * S. Spicher and S. Grimme, Angew. Chem. Int. Ed., 2020, 59, 15665-15673.
     DOI: 10.1002/anie.202004239
   
   for ALPB and GBSA implicit solvation:
   * S. Ehlert, M. Stahn, S. Spicher, S. Grimme, J. Chem. Theory Comput.,
     2021, 17, 4250-4261. DOI: 10.1021/acs.jctc.1c00471
   
   for ddCOSMO and CPCM-X implicit solvation:
   * M. Stahn, S. Ehlert, S. Grimme, J. Phys. Chem. A,
     2023, XX, XXXX-XXXX. DOI: 10.1021/acs.jpca.3c04382
   
   for DFT-D4:
   * E. Caldeweyher, C. Bannwarth and S. Grimme, J. Chem. Phys., 2017,
     147, 034112. DOI: 10.1063/1.4993215
   * E. Caldeweyher, S. Ehlert, A. Hansen, H. Neugebauer, S. Spicher,
     C. Bannwarth and S. Grimme, J. Chem. Phys., 2019, 150, 154122.
     DOI: 10.1063/1.5090222
   * E. Caldeweyher, J.-M. Mewes, S. Ehlert and S. Grimme, Phys. Chem. Chem. Phys.
     2020, 22, 8499-8512. DOI: 10.1039/D0CP00502A
   
   for sTDA-xTB:
   * S. Grimme and C. Bannwarth, J. Chem. Phys., 2016, 145, 054103.
     DOI: 10.1063/1.4959605
   
   in the mass-spec context:
   * V. Asgeirsson, C. Bauer and S. Grimme, Chem. Sci., 2017, 8, 4879.
     DOI: 10.1039/c7sc00601b
   * J. Koopman and S. Grimme, ACS Omega 2019, 4, 12, 15120-15133.
     DOI: 10.1021/acsomega.9b02011
   
   for metadynamics refer to:
   * S. Grimme, J. Chem. Theory Comput., 2019, 155, 2847-2862
     DOI: 10.1021/acs.jctc.9b00143
   
   for SPH calculations refer to:
   * S. Spicher and S. Grimme, J. Chem. Theory Comput., 2021, 17, 1701-1714
     DOI: 10.1021/acs.jctc.0c01306
   
   for ONIOM refer to:
   * C. Plett, A. Katbashev, S. Ehlert, S. Grimme, M. Bursch,
     Phys. Chem. Chem. Phys., 2023, 25, 17860-17868. DOI: 10.1039/D3CP02178E
   
   for DIPRO refer to:
   * J. Kohn, N. Gildemeister, S. Grimme, D. Fazzi, A. Hansen,
     J. Chem. Phys., 2023, just accepted.
   
   for PTB refer to:
   * S. Grimme, M. Mueller, A. Hansen, J. Chem. Phys., 2023, 158, 124111.
     DOI: 10.1063/5.0137838
   
   with help from (in alphabetical order)
   P. Atkinson, C. Bannwarth, F. Bohle, G. Brandenburg, E. Caldeweyher
   M. Checinski, S. Dohm, S. Ehlert, S. Ehrlich, I. Gerasimov, C. Hölzer
   A. Katbashev, J. Kohn, J. Koopman, C. Lavigne, S. Lehtola, F. März, M. Müller,
   F. Musil, H. Neugebauer, J. Pisarek, C. Plett, P. Pracht, F. Pultar,
   J. Seibert, P. Shushkov, S. Spicher, M. Stahn, M. Steiner, T. Strunk,
   J. Stückrath, T. Rose, and J. Unsleber
   
 * started run on 2025/05/15 at 16:30:18.997     
   ID    Z sym.   atoms
    1    6 C      1-9, 12-15
    2    8 O      10, 11
    3    1 H      16-33

           -------------------------------------------------
          |                Calculation Setup                |
           -------------------------------------------------

          program call               : xtb /rds/general/user/hgt20/home/callum/QDESCP/Ibuprofen_rdkit_conf_4/Ibuprofen_rdkit_conf_4.xyz --acc 1 --gfn 2 --chrg 0 --uhf 2 --etemp 300 --input /rds/general/user/hgt20/home/callum/QDESCP/Ibuprofen_rdkit_conf_4/Ibuprofen_rdkit_conf_4_xtb.inp -P 1
          hostname                   : login-c
          coordinate file            : /rds/general/user/hgt20/home/callum/QDESCP/Ibuprofen_rdkit_conf_4/Ibuprofen_rdkit_conf_4.xyz
          omp threads                :                     1


           -------------------------------------------------
          |                 G F N 2 - x T B                 |
           -------------------------------------------------

        Reference                      10.1021/acs.jctc.8b01176
      * Hamiltonian:
        H0-scaling (s, p, d)           1.850000    2.230000    2.230000
        zeta-weighting                 0.500000
      * Dispersion:
        s8                             2.700000
        a1                             0.520000
        a2                             5.000000
        s9                             5.000000
      * Repulsion:
        kExp                           1.500000    1.000000
        rExp                           1.000000
      * Coulomb:
        alpha                          2.000000
        third order                    shell-resolved
        anisotropic                    true
        a3                             3.000000
        a5                             4.000000
        cn-shift                       1.200000
        cn-exp                         4.000000
        max-rad                        5.000000


          ...................................................
          :                      SETUP                      :
          :.................................................:
          :  # basis functions                  78          :
          :  # atomic orbitals                  78          :
          :  # shells                           48          :
          :  # electrons                        82          :
          :  max. iterations                   250          :
          :  Hamiltonian                  GFN2-xTB          :
          :  restarted?                      false          :
          :  GBSA solvation                  false          :
          :  PC potential                    false          :
          :  electronic temp.          300.0000000     K    :
          :  accuracy                    1.0000000          :
          :  -> integral cutoff          0.2500000E+02      :
          :  -> integral neglect         0.1000000E-07      :
          :  -> SCF convergence          0.1000000E-05 Eh   :
          :  -> wf. convergence          0.1000000E-03 e    :
          :  Broyden damping             0.4000000          :
          :  net charge                          0          :
          :  unpaired electrons                  2          :
          ...................................................

 iter      E             dE          RMSdq      gap      omega  full diag
   1    -45.5845457 -0.455845E+02  0.337E+00    0.04       0.0  T
   2    -45.4480178  0.136528E+00  0.312E+00    0.57       1.0  T
   3    -45.3864697  0.615481E-01  0.217E+00    0.23       1.0  T
   4    -45.4828194 -0.963498E-01  0.226E+00    0.94       1.0  T
   5    -45.6433204 -0.160501E+00  0.145E+00    0.44       1.0  T
   6    -45.6389056  0.441487E-02  0.975E-01    0.41       1.0  T
   7    -45.6715424 -0.326368E-01  0.729E-01    0.23       1.0  T
   8    -45.6716362 -0.938802E-04  0.532E-01    0.18       1.0  T
   9    -45.6780086 -0.637237E-02  0.288E-01    0.20       1.0  T
  10    -45.6774854  0.523163E-03  0.180E-01    0.16       1.0  T
  11    -45.6791348 -0.164938E-02  0.417E-02    0.17       1.0  T
  12    -45.6791740 -0.391366E-04  0.213E-02    0.17       1.0  T
  13    -45.6791823 -0.832781E-05  0.821E-03    0.16       2.1  T
  14    -45.6791846 -0.226602E-05  0.412E-03    0.16       4.2  T
  15    -45.6791847 -0.165013E-06  0.323E-03    0.16       5.4  T
  16    -45.6791853 -0.559530E-06  0.104E-03    0.16      16.8  T
  17    -45.6791853 -0.425127E-07  0.163E-04    0.16     106.8  T
  18    -45.6791853 -0.107341E-08  0.602E-05    0.16     289.1  T

   *** convergence criteria satisfied after 18 iterations ***

         #    Occupation            Energy/Eh            Energy/eV
      -------------------------------------------------------------
         1        2.0000           -0.7284254             -19.8215
       ...           ...                  ...                  ...
        36        2.0000           -0.4340009             -11.8098
        37        2.0000           -0.4251644             -11.5693
        38        2.0000           -0.4195866             -11.4175
        39        2.0000           -0.4074231             -11.0865
        40        1.9996           -0.4036425             -10.9837
        41        1.0004           -0.3888446             -10.5810
        42        0.9600           -0.2282130              -6.2100 (HOMO)
        43        0.0400           -0.2221758              -6.0457 (LUMO)
        44                         -0.2073111              -5.6412
        45                         -0.0954329              -2.5969
        46                          0.0575504               1.5660
        47                          0.0742396               2.0202
       ...                                ...                  ...
        78                          0.6695960              18.2206
      -------------------------------------------------------------
                  HL-Gap            0.0060372 Eh            0.1643 eV
             Fermi-level           -0.3107146 Eh           -8.4550 eV

 transition dipole moment (au) for excitation:          41          42
     X       Y       Z   
   1.5098   0.1985  -0.0093  total (au/Debye):    1.523   3.871
 dE (eV)             :    4.371
 oscillator strength :  0.35122E+00

 SCC (total)                   0 d,  0 h,  0 min,  0.088 sec
 SCC setup                      ...        0 min,  0.000 sec (  0.259%)
 Dispersion                     ...        0 min,  0.000 sec (  0.308%)
 classical contributions        ...        0 min,  0.000 sec (  0.102%)
 integral evaluation            ...        0 min,  0.004 sec (  5.027%)
 iterations                     ...        0 min,  0.022 sec ( 24.463%)
 molecular gradient             ...        0 min,  0.058 sec ( 65.384%)
 printout                       ...        0 min,  0.004 sec (  4.448%)

         :::::::::::::::::::::::::::::::::::::::::::::::::::::
         ::                     SUMMARY                     ::
         :::::::::::::::::::::::::::::::::::::::::::::::::::::
         :: total energy             -45.013367626072 Eh    ::
         :: gradient norm              0.153750510499 Eh/a0 ::
         :: HOMO-LUMO gap              0.164280861322 eV    ::
         ::.................................................::
         :: SCC energy               -45.679053400764 Eh    ::
         :: -> isotropic ES            0.052800283367 Eh    ::
         :: -> anisotropic ES          0.005218496612 Eh    ::
         :: -> anisotropic XC          0.017305955121 Eh    ::
         :: -> dispersion             -0.029388690295 Eh    ::
         :: repulsion energy           0.665685774692 Eh    ::
         :: add. restraining           0.000000000000 Eh    ::
         :: total charge               0.000000000222 e     ::
         :::::::::::::::::::::::::::::::::::::::::::::::::::::

           -------------------------------------------------
          |                Property Printout                |
           -------------------------------------------------

    * Orbital Energies and Occupations

         #    Occupation            Energy/Eh            Energy/eV
      -------------------------------------------------------------
         1        2.0000           -0.7284254             -19.8215
       ...           ...                  ...                  ...
        30        2.0000           -0.4624342             -12.5835
        31        2.0000           -0.4596707             -12.5083
        32        2.0000           -0.4580536             -12.4643
        33        2.0000           -0.4511116             -12.2754
        34        2.0000           -0.4447560             -12.1024
        35        2.0000           -0.4414535             -12.0126
        36        2.0000           -0.4340009             -11.8098
        37        2.0000           -0.4251644             -11.5693
        38        2.0000           -0.4195866             -11.4175
        39        2.0000           -0.4074231             -11.0865
        40        1.9996           -0.4036425             -10.9837
        41        1.0004           -0.3888446             -10.5810
        42        0.9600           -0.2282130              -6.2100 (HOMO)
        43        0.0400           -0.2221758              -6.0457 (LUMO)
        44                         -0.2073111              -5.6412
        45                         -0.0954329              -2.5969
        46                          0.0575504               1.5660
        47                          0.0742396               2.0202
        48                          0.0873730               2.3775
        49                          0.0909253               2.4742
        50                          0.0997009               2.7130
        51                          0.1237503               3.3674
        52                          0.1276351               3.4731
        53                          0.1386558               3.7730
       ...                                ...                  ...
        78                          0.6695960              18.2206
      -------------------------------------------------------------
                  HL-Gap            0.0060372 Eh            0.1643 eV
             Fermi-level           -0.3107146 Eh           -8.4550 eV

     #   Z          covCN         q      C6AA      α(0)
     1   6 C        3.756    -0.106    22.585     6.776
     2   6 C        3.851    -0.001    20.567     6.450
     3   6 C        3.812    -0.065    21.735     6.636
     4   6 C        2.969     0.012    27.754     8.641
     5   6 C        2.925    -0.035    28.860     8.810
     6   6 C        2.922    -0.044    29.098     8.846
     7   6 C        2.981     0.012    27.739     8.639
     8   6 C        3.858    -0.029    21.057     6.526
     9   6 C        2.700     0.331    21.377     7.567
    10   8 O        1.660    -0.397    20.794     6.156
    11   8 O        0.856    -0.419    22.071     6.299
    12   6 C        3.756    -0.104    22.534     6.768
    13   6 C        2.922    -0.035    28.861     8.810
    14   6 C        2.925    -0.043    29.060     8.840
    15   6 C        3.756    -0.108    22.617     6.781
    16   1 H        0.925     0.038     2.476     2.461
    17   1 H        0.925     0.038     2.470     2.458
    18   1 H        0.925     0.038     2.473     2.459
    19   1 H        0.924     0.034     2.524     2.484
    20   1 H        0.924     0.050     2.324     2.384
    21   1 H        0.924     0.042     2.423     2.434
    22   1 H        0.926     0.033     2.549     2.497
    23   1 H        0.926     0.030     2.593     2.518
    24   1 H        0.924     0.059     2.211     2.325
    25   1 H        0.804     0.323     0.657     1.273
    26   1 H        0.925     0.046     2.371     2.408
    27   1 H        0.925     0.046     2.367     2.406
    28   1 H        0.925     0.061     2.190     2.314
    29   1 H        0.926     0.048     2.341     2.393
    30   1 H        0.926     0.030     2.582     2.513
    31   1 H        0.925     0.041     2.439     2.442
    32   1 H        0.925     0.036     2.505     2.475
    33   1 H        0.925     0.039     2.469     2.457

 Mol. C6AA /au·bohr⁶  :      10215.056101
 Mol. C8AA /au·bohr⁸  :     233877.175671
 Mol. α(0) /au        :        155.247962


Wiberg/Mayer (AO) data.
largest (>0.10) Wiberg bond orders for each atom

 ---------------------------------------------------------------------------
     #   Z sym  total        # sym  WBO       # sym  WBO       # sym  WBO
 ---------------------------------------------------------------------------
     1   6 C    3.994 --     2 C    1.008    17 H    0.986    18 H    0.984
                            16 H    0.984
     2   6 C    3.973 --     1 C    1.008    15 C    1.008    19 H    0.968
                             3 C    0.941
     3   6 C    3.986 --     4 C    1.047    21 H    0.973    20 H    0.951
                             2 C    0.941
     4   6 C    3.715 --     5 C    1.217    14 C    1.150     3 C    1.047
     5   6 C    3.940 --     6 C    1.587     4 C    1.217    22 H    0.967
     6   6 C    3.933 --     5 C    1.587     7 C    1.143    23 H    0.968
     7   6 C    3.798 --    13 C    1.194     6 C    1.143     8 C    1.028
                             9 C    0.119    11 O    0.109
     8   6 C    3.980 --     7 C    1.028    12 C    0.973    24 H    0.960
                             9 C    0.884
     9   6 C    3.878 --    11 O    1.630    10 O    1.076     8 C    0.884
                             7 C    0.119
    10   8 O    2.130 --     9 C    1.076    25 H    0.871    11 O    0.124
    11   8 O    1.986 --     9 C    1.630    10 O    0.124     7 C    0.109
    12   6 C    3.986 --    27 H    0.985    28 H    0.983    26 H    0.982
                             8 C    0.973
    13   6 C    3.953 --    14 C    1.608     7 C    1.194    29 H    0.965
    14   6 C    3.947 --    13 C    1.608     4 C    1.150    30 H    0.969
    15   6 C    3.992 --     2 C    1.008    33 H    0.986    32 H    0.986
                            31 H    0.982
    16   1 H    0.996 --     1 C    0.984
    17   1 H    0.998 --     1 C    0.986
    18   1 H    0.999 --     1 C    0.984
    19   1 H    0.999 --     2 C    0.968
    20   1 H    0.989 --     3 C    0.951
    21   1 H    0.997 --     3 C    0.973
    22   1 H    0.998 --     5 C    0.967
    23   1 H    0.999 --     6 C    0.968
    24   1 H    0.996 --     8 C    0.960
    25   1 H    0.894 --    10 O    0.871
    26   1 H    0.997 --    12 C    0.982
    27   1 H    0.997 --    12 C    0.985
    28   1 H    0.996 --    12 C    0.983
    29   1 H    0.997 --    13 C    0.965
    30   1 H    0.999 --    14 C    0.969
    31   1 H    0.995 --    15 C    0.982
    32   1 H    0.998 --    15 C    0.986
    33   1 H    0.998 --    15 C    0.986
 ---------------------------------------------------------------------------

Topologies differ in total number of bonds
Writing topology from bond orders to xtbtopo.mol

molecular dipole:
                 x           y           z       tot (Debye)
 q only:        1.156       0.226       0.533
   full:        1.111       0.375       0.443       3.185
molecular quadrupole (traceless):
                xx          xy          yy          xz          yz          zz
 q only:       -2.407      -4.723       1.969      -6.993      -3.767       0.438
  q+dip:       -0.321      -5.931       0.098      -6.619      -2.238       0.223
   full:       -1.272      -6.471       0.630      -6.392      -4.431       0.642


           -------------------------------------------------
          | TOTAL ENERGY              -45.013367626072 Eh   |
          | GRADIENT NORM               0.153750510499 Eh/α |
          | HOMO-LUMO GAP               0.164280861322 eV   |
           -------------------------------------------------

------------------------------------------------------------------------
 * finished run on 2025/05/15 at 16:30:19.096     
------------------------------------------------------------------------
 total:
 * wall-time:     0 d,  0 h,  0 min,  0.098 sec
 *  cpu-time:     0 d,  0 h,  0 min,  0.052 sec
 * ratio c/w:     0.525 speedup
 SCF:
 * wall-time:     0 d,  0 h,  0 min,  0.088 sec
 *  cpu-time:     0 d,  0 h,  0 min,  0.043 sec
 * ratio c/w:     0.485 speedup


