33
 energy: -45.171909099714 gnorm: 0.000525746147 xtb: 6.7.1 (edcfbbe)
C            3.00379293490034       -0.60477562534322        1.39331781191569
C            3.09601661120851       -0.64600147760004       -0.12903906839080
C            2.35214025616835        0.54705204726636       -0.75362226178060
C            0.87937201069101        0.50133039300073       -0.46927269995515
C            0.30342660769975        1.32316727438223        0.48976369290247
C           -1.05258388089233        1.26057010412529        0.75775932947450
C           -1.86522490113319        0.36634831056997        0.07668952162842
C           -3.34820775322236        0.28934517154428        0.37483770078419
C           -4.06884546997548        0.55931999306935       -0.92862985268541
O           -4.30838032340055        1.86698055211942       -1.09475875795095
O           -4.37166953520506       -0.26162614959597       -1.75168738891947
C           -3.73729827517203       -1.07578416251039        0.94179010426931
C           -1.29438302520128       -0.45764752297318       -0.88602128192634
C            0.05918274095343       -0.38888238715077       -1.15328582841424
C            4.55589594341355       -0.64488820025922       -0.57492226307163
H            3.50951119356524       -1.46411642274286        1.82796125276064
H            3.47320402106900        0.29873313612808        1.77758023809781
H            1.96491984197509       -0.61793123574916        1.71463836868490
H            2.62142095952326       -1.56870287242553       -0.48091487051349
H            2.51063318771926        0.52908579559745       -1.83477320699101
H            2.77792476024010        1.47376105657362       -0.36342273103522
H            0.92080034232947        2.02522062010764        1.03192129954835
H           -1.48093208463553        1.91375653896134        1.50465751847310
H           -3.61071808350176        1.08528213828563        1.07680144144899
H           -4.72480882322305        2.02961254631957       -1.95607303823867
H           -3.11863530739450       -1.30958334430893        1.80463748362752
H           -4.78163202287431       -1.07505131910384        1.24547760305494
H           -3.59995770021172       -1.84636310224231        0.18845611473391
H           -1.91781769585855       -1.14476962013420       -1.43836330508453
H            0.48635937294179       -1.03112558641173       -1.91024506255086
H            5.08544960253710       -1.49341353700292       -0.14753540284089
H            4.62956188071612       -0.70623180255887       -1.65859767163779
H            5.05158261424944        0.26732869006153       -0.24872478941720
