57
 energy: -87.645311415109 gnorm: 0.000234222450 xtb: 6.7.1 (edcfbbe)
O           -2.66736790685996        0.19831865887059       -1.93767650014621
C           -3.13873309311243        0.45872393505812       -0.84295632333991
C           -2.39846699932426        0.59784199582511        0.39030365251855
C           -0.92126147857672        0.39184588135674        0.29704449133230
C           -0.59278671330124       -1.11829911901203        0.37953638960058
N            0.80649682897718       -1.46387060273776        0.36574225179990
C            1.50358716695458       -1.08817557857458       -0.84812045505861
C            2.82012410383240       -1.85475956896893       -0.91927145301943
C            3.70445314377040       -1.52643433652163        0.29554511485017
C            2.89399328918078       -1.74768815036449        1.57615977850741
C            1.55076636436930       -1.02381417251152        1.53061539554063
C            4.25695387987551       -0.14725813950092        0.16700428190866
N            3.64636693192782        0.93532330320364        0.54122581742318
O            4.42613685521153        2.02581793216754        0.24926821588544
C            5.55634982963211        1.59393137963836       -0.33193639140235
C            5.52374242709611        0.18937344106979       -0.42376786405989
C            6.58982295405765       -0.50350580563470       -0.99322220578417
C            7.66015632981701        0.22616205642888       -1.45490332811248
C            7.65914753478193        1.61979090705992       -1.34711152073387
F            8.73276369257126        2.28465771739518       -1.81388360944190
C            6.62784732387922        2.34599260792073       -0.79262229544819
C           -3.06541381508847        0.84887536110817        1.55652821405393
N           -4.41657698100266        1.00140272493609        1.60069421384496
C           -5.08489542576661        0.90578902865346        0.50100746717558
N           -4.51831376048439        0.65535129885668       -0.70116770539733
C           -5.39006562937480        0.49779244000673       -1.84431451546520
C           -6.48594790046987       -0.50776913280055       -1.49797518949807
C           -7.26144153384570       -0.07548045165451       -0.24121367764599
C           -6.56727156269895        1.08427707730030        0.48938438895167
C           -2.38043588270071        0.98725214640596        2.88036718641203
H           -0.58245106874010        0.76509667206199       -0.67059015734762
H           -0.40381584263195        0.92665749604030        1.09243868944847
H           -1.02568339439976       -1.53026358540949        1.29667345919840
H           -1.06656186496208       -1.61564160973910       -0.47136113784084
H            0.87785368552466       -1.34917168853321       -1.70425250770449
H            1.71165949211889       -0.00627193510312       -0.88340945826424
H            2.60502214473703       -2.92395628382289       -0.90852895355831
H            3.34509110391746       -1.61343049815988       -1.84589902282582
H            4.56197418359346       -2.20976921183250        0.29790308145303
H            3.46303719419763       -1.40545866876356        2.44195608420755
H            2.71256541126129       -2.81897349867489        1.67996837280846
H            1.73728689728172        0.06010969374431        1.52098274330658
H            0.97547342868688       -1.27815701741829        2.42471649678502
H            6.57460587805254       -1.57914397957708       -1.07022259879339
H            8.51394877723791       -0.25464947345808       -1.90498117587255
H            6.65704146785586        3.41974212958842       -0.72449628144554
H           -5.82382168690981        1.46690594198686       -2.11218627777724
H           -4.76885148052535        0.14723261186314       -2.67234477309398
H           -6.01254030365466       -1.47622734132364       -1.32731685652495
H           -7.15608947215483       -0.61188362330585       -2.35089300965776
H           -8.27265025400112        0.23653415456620       -0.50450104597738
H           -7.34720946789154       -0.92044945175337        0.44244191395423
H           -6.79120979925867        2.02355537899545       -0.02442162910803
H           -6.91972351796265        1.16729461680438        1.51604283742330
H           -3.13092526329371        1.14096540741255        3.65002503621696
H           -1.70165602983607        1.83871523638790        2.87011682418034
H           -1.80220019157290        0.09547369244440        3.11195552155959
