62
 energy: -94.882957767131 gnorm: 0.000807606409 xtb: 6.7.1 (edcfbbe)
C           -6.93582843079367        2.80797889253288       -2.01835816090290
C           -5.58658711032073        3.44884801605890       -1.87896213615474
C           -4.51028837279138        2.56743145357355       -1.32450072732315
C           -3.29202371772338        2.46842299528665       -1.93195995952224
C           -2.94622407828511        3.17889310636765       -3.20141302959074
C           -2.30767477391824        1.61514667883294       -1.34511035267527
C           -1.02154967129198        1.39702383204405       -1.85513048270152
N           -0.13158619764183        0.62300905150659       -1.28315517005564
C           -0.50177500836235        0.01563402382475       -0.14450653868966
N            0.36132058582188       -0.78604122957768        0.51120996407290
C            1.67148774302938       -1.14426638331609        0.23034430621221
N            2.20299554052562       -1.94581391418987        1.15013560678973
C            3.44236222426308       -2.35852158935646        1.00557081956576
C            4.27592409150717       -2.00717701437969       -0.06966584838414
C            3.69048667272942       -1.16836979072605       -1.03172360966739
C            2.38906331941920       -0.73283114046398       -0.88915632302987
N            5.54553685479899       -2.53634062283339       -0.18813285926291
C            6.38536424825755       -2.68710893705410        0.98358573944742
C            7.19290179132897       -1.40442948327515        1.22165268370330
N            8.00649351085465       -1.14604892758623        0.04775384688677
C            7.17749917254954       -0.95499752880006       -1.12928744944828
C            6.36923751186870       -2.23969628003209       -1.34129552766352
N           -1.69633916879855        0.13554705844246        0.43338415261078
C           -2.59678767799264        0.92204712224307       -0.14156464448394
N           -3.81239159989472        1.05296690967353        0.45030093973133
C           -4.12088155982642        0.34841305057128        1.69064545792777
C           -3.23836234933477        0.77212698785534        2.87400331837164
C           -3.21119510828149       -0.47163598089475        3.75538714731006
C           -3.07888435085167       -1.60489563973095        2.74173305082819
C           -3.99458833892526       -1.18631399465674        1.58803051237840
C           -4.81992969212967        1.85770982083510       -0.08586496802815
O           -5.88874452912863        1.94863552352179        0.49476769389122
O           -5.36907900632565        4.59240771171595       -2.20645348001014
H           -7.60403293075292        3.46692782820944       -2.56571373597924
H           -6.84882468685381        1.84797498788993       -2.52192134918986
H           -7.32943291457654        2.62597430234718       -1.02013845853478
H           -2.09378240683745        3.83547720470701       -3.03365925693906
H           -2.67432910430514        2.45789873070902       -3.97193083969823
H           -3.77248587378666        3.78441267960556       -3.55563978936184
H           -0.69325982813071        1.87321675562278       -2.76886098708533
H            0.00458738952599       -1.19499213789419        1.36662500131396
H            3.78144142494301       -3.02222092953666        1.78847658366165
H            4.24671207475229       -0.83930137405584       -1.89525760885582
H            1.93063736700302       -0.08418889559115       -1.61501101559312
H            5.78967287759159       -2.91645797063722        1.86369628920591
H            7.07772401417661       -3.51334544864788        0.79846456328160
H            6.48702808130627       -0.58063858936542        1.43690219491391
H            7.85137249898203       -1.53379183465570        2.08263151095631
H            8.60383836159451       -0.33974717667878        0.19868098055105
H            6.48428450841089       -0.10156953895687       -1.02058433943967
H            7.82570903899540       -0.77285487455310       -1.98874414669304
H            5.75808777865962       -2.18320276421915       -2.24084393319376
H            7.07204483356284       -3.07090598534786       -1.45570099201580
H           -5.15918716707285        0.61617651520674        1.90320767638124
H           -2.23232171498414        0.99620368929375        2.52283749905071
H           -3.63919843226968        1.64769741402861        3.38260568693147
H           -4.15192068868735       -0.56356804084872        4.30069897990168
H           -2.39401317459928       -0.45419399405601        4.47468030240031
H           -3.35552503848701       -2.57301252008328        3.15628241611806
H           -2.04917524328740       -1.65750946349652        2.38999890478065
H           -4.97943030089635       -1.64152003774865        1.69337170979254
H           -3.58607326831332       -1.48669230926190        0.62548218120537
