42
 energy: -71.304017041829 gnorm: 0.000354317572 xtb: 6.7.1 (edcfbbe)
O           -5.70872855021770        2.47782556885633        0.70080067435684
C           -5.22901160999590        1.37973169200822        0.63907070811228
O           -6.00624790090460        0.26824212093488        0.74717358919634
C           -3.81101798791893        1.04318883111503        0.43121493050806
C           -3.48483573158858       -0.18469042092178       -0.05396788995143
N           -2.22740902681476       -0.60063321402163       -0.30366957974347
C           -1.16660710308177        0.27630084251320       -0.13187764843567
C            0.13138806132112       -0.09120460440977       -0.46890581823426
C            1.22850443354515        0.76255267190740       -0.30345403518676
N            2.47705165726764        0.34421501982778       -0.68252044232817
C            3.58411947474243        1.24147660070119       -0.94470959333249
C            4.56773607203838        1.26252288606049        0.23546883241922
N            5.04801377621835       -0.07024379069526        0.55448469659184
C            3.93795583631576       -0.97465318456995        0.76849192015912
C            2.94193666776489       -1.00016457250724       -0.41030441252700
C            0.93417431154848        2.04216530293119        0.21628550433069
F            1.92865645789126        2.93557058878533        0.45799548848822
C           -0.33967133379915        2.42793181642781        0.53470566689119
C           -1.42123462300014        1.56120948055847        0.37342616137479
C           -2.76948809551359        2.02969675263832        0.73558587532735
O           -2.96432676130619        3.11737225729587        1.24329396535899
C           -2.01304060879121       -1.92230601194951       -0.81413406751577
C           -2.75395325049740       -3.07355205916587       -0.20377333479587
C           -1.28273998462925       -2.92928991637172        0.02930999483192
H           -6.92473313695089        0.54739908020529        0.88248791560207
H           -4.26512137579397       -0.89769148165645       -0.27812418208750
H            0.30277998404492       -1.06130995866150       -0.90242057350406
H            3.22365409337878        2.23966495744623       -1.17766934436267
H            4.10396982489430        0.85545168810714       -1.83319722015059
H            4.06621080861009        1.65895129360122        1.12183280866463
H            5.42103905811107        1.90155317778552        0.00500612980430
H            5.63018879869708       -0.41410238401126       -0.20482284057218
H            4.32832418633133       -1.97873419248586        0.94648355754247
H            3.41062144870270       -0.64036789228142        1.66766485259954
H            3.44042593654729       -1.39021833568706       -1.30730431187249
H            2.10889191916656       -1.65333924023956       -0.15896555631275
H           -0.52509894693577        3.41111158362065        0.93902131418333
H           -1.84076638853501       -1.94428395784007       -1.88691921171618
H           -3.41186531171818       -2.87311562432882        0.62728939387645
H           -3.10430912279177       -3.85445544106954       -0.86048206237209
H           -0.96000564592627       -2.61694755521528        1.01054100663866
H           -0.60543031042499       -3.61263037523632       -0.45991286185573
