98
 energy: -148.200221217615 gnorm: 0.000354010352 xtb: 6.7.1 (edcfbbe)
O           -4.70764663542952       -2.80707135796066       -0.12081800355697
C           -5.08612221236662       -1.78256836412050       -0.63438488054575
N           -4.43740041006464       -1.07962122168648       -1.58011019672342
C           -3.01866199186203       -1.25745015386441       -1.80620702555158
C           -2.68552907971232       -1.19737390142588       -3.30720764005284
C           -3.02828342365624        0.12237557181484       -3.93578494169773
C           -4.31707445910187        0.36539002127249       -4.39848826403719
C           -4.65073072324806        1.58921355701282       -4.95151306677446
C           -3.69807931238697        2.58891978150318       -5.05281646275246
C           -2.41029560777442        2.35510997037431       -4.60146951673995
C           -2.07428043947938        1.13072205544814       -4.04714628149102
C           -2.23509952894506       -0.21034615941321       -0.97309630290486
C           -2.17495172173798       -0.59230595364558        0.51128437708037
C           -1.23784969824602       -1.77048721084294        0.80295871754508
N            0.07818070138139       -1.48661912147957        0.28064979143820
C            0.55501792358328       -1.93490239768004       -0.89537606756590
C            1.81479915113867       -1.18503068583134       -1.36877767685764
N            1.93901511282129        0.09184841396176       -0.69898505195093
C            1.33059958203119        1.18716881598473       -1.23587009355825
N            1.43446346292603        2.33569844610268       -0.49597096651404
C            0.92194661501633        3.56822632530820       -1.04394446045067
C            1.91923119451854        2.36086203100967        0.86831792138118
C            3.41802712943647        2.37641690537937        0.95601667676985
C            4.20517819799273        3.47650460482510        1.08682435434403
S            5.86680075953420        3.03909498651391        1.12760118411454
C            5.38311769430442        1.36619888257935        0.95947826215627
C            6.39082549490533        0.27049890533964        0.93097682008667
C            7.38651996824720        0.49033252323838       -0.20888193727055
C            7.11576514003379        0.19737102406559        2.27709505045088
N            4.10883865949200        1.20273909270014        0.88416989876365
O            0.69865377230442        1.14455897895878       -2.27947890637466
C            3.06148948177082       -2.06621680450389       -1.20167077284492
C            3.32685520183455       -2.39790053249553        0.26580161418090
C            4.27459539879835       -1.39951632070204       -1.84616951241607
O            0.07295787463453       -2.84912896738640       -1.53024045047390
C           -1.14464385544266       -2.05941890843865        2.31578849460520
C           -0.50609908329593       -0.92520907350822        3.06383069143243
C           -1.28480479009407        0.05262141362211        3.67189205760292
C           -0.69118451499350        1.12923701696547        4.30801279306829
C            0.68829900829178        1.24560312867857        4.34529627247769
C            1.47352608747555        0.26644767350546        3.75999430501952
C            0.87925889696689       -0.81265423932890        3.12834074394120
O           -2.84991263539211        1.06325797284865       -1.04102000051428
O           -6.28489559063943       -1.19361681880706       -0.34652168192393
C           -6.94430829351077       -1.71073231659106        0.80604276391866
C           -6.27911990002224       -1.19221303625067        2.03770658994724
C           -5.16692225389779       -1.68738970882581        2.65281476399263
N           -4.69334058681186       -0.95002465390569        3.68268039345670
C           -5.40649380035561        0.09798307762636        3.87869458030984
S           -6.74782342980187        0.29203446063154        2.79843626265496
H           -4.80047208616410       -0.15979730148031       -1.79045343271383
H           -2.76298302459259       -2.25763388265618       -1.44825876479394
H           -1.61956749920854       -1.40332243386702       -3.41100200578000
H           -3.24049580044949       -1.99566524825825       -3.80300161786032
H           -5.06127551407838       -0.41547941180907       -4.33201005096853
H           -5.65576662330042        1.76198542573074       -5.30840706042435
H           -3.95726855945419        3.54326711476279       -5.48724715995194
H           -1.65914481052795        3.12706900184025       -4.68431759515396
H           -1.06522107856671        0.95951708993439       -3.70137581593520
H           -1.21586036851125       -0.14589192886694       -1.37343861227149
H           -1.83351474740847        0.29012416838533        1.05790932381644
H           -3.17808505466773       -0.83270156688585        0.86267893380246
H           -1.59605257280391       -2.66995112250476        0.29422552625317
H            0.52878973151705       -0.66545656842609        0.66257553519068
H            1.65829926418907       -0.99588453403212       -2.43979969657090
H            2.70217955836150        0.21547518908671       -0.04545123845851
H            0.08548413055255        3.94165504331598       -0.44725456062134
H            0.57198277535118        3.36037249717863       -2.05291299418720
H            1.70784572050880        4.32683026598076       -1.08050942094891
H            1.54313946682901        1.49025152696179        1.41811699135870
H            1.52440956979610        3.26033541979401        1.34565979951147
H            3.91092189957793        4.50293623200333        1.16742353678391
H            5.85007363636043       -0.66599100714799        0.76451387190634
H            6.87222589410842        0.54145159997368       -1.16587449229008
H            7.93462000864254        1.41820939836475       -0.05820006406926
H            8.09778516634880       -0.33070392148910       -0.24323595353565
H            7.82827424062230       -0.62326998798926        2.27014535508023
H            6.40711085038281        0.03398668866641        3.08590038881272
H            7.65419166084733        1.12367323457254        2.46721625591701
H            2.84691374598764       -2.99981209361018       -1.73142405085646
H            4.17968845894420       -3.06905278438164        0.34424964426943
H            3.54503157809450       -1.50124678746639        0.84295501841633
H            2.46306559146358       -2.89580116081032        0.69952617093360
H            4.47901514507425       -0.44050138745098       -1.37566026996655
H            4.09779460392270       -1.23048500345197       -2.90565562781960
H            5.15391519236838       -2.03098727640346       -1.74129332559202
H           -2.15060062822225       -2.23384248072637        2.69516380071724
H           -0.55612405853706       -2.96865344291962        2.45163845155981
H           -2.36060592009543       -0.04327426629883        3.65812257321937
H           -1.30765383434269        1.88113338673899        4.77872537662566
H            1.15075316178015        2.08844808685484        4.83807978256423
H            2.55140831199190        0.34159295654970        3.79768703234141
H            1.49822773136910       -1.58292464414244        2.69130017276396
H           -2.65089210156458        1.44587674297947       -1.90616439853718
H           -7.97800334356143       -1.37084597303803        0.73248474166982
H           -6.89601660256662       -2.80558577925202        0.79231042547293
H           -4.66858147849641       -2.59685477866509        2.36992979004971
H           -5.21056991903427        0.82028797578674        4.64605449120173
