39
 energy: -51.132887303973 gnorm: 0.000282461467 xtb: 6.7.1 (edcfbbe)
C            1.66318558129803        1.98824059027644       -0.97243426655220
C            2.38376235888095        0.98281735893806       -0.12245190257854
C            3.68549605465505        1.21158172928520        0.29201960075797
C            4.34996284004000        0.28042809339162        1.06997646145755
C            3.70293983783804       -0.87668310961376        1.45770019036160
C            2.39232766438022       -1.13419951987047        1.07526037609742
C            1.69739943318095       -2.36604641304895        1.55985524919501
C            1.74441975971270       -0.20314922268711        0.25910314612415
N            0.41917108887568       -0.39694962340633       -0.17779496317640
C           -0.10980397187193       -1.44894614189065       -0.83254970539455
C           -1.55401035872156       -1.18422887100783       -1.28322401482352
N           -2.11787406023464        0.02115901924470       -0.69995837272711
C           -2.76032860901518        0.92139883656081       -1.64897881679835
C           -2.61589312118746        2.37930124287083       -1.21998122288133
C           -2.96953568122885       -0.26746648709843        0.44540927167476
C           -2.18906785507237       -0.83144595536940        1.62591144303807
O            0.45636937613056       -2.48759381711587       -1.10180027806774
H            0.85207389878049        2.45536310779304       -0.41075831598816
H            2.34509945046477        2.77125165776530       -1.29384191056899
H            1.23718939405567        1.51323185044834       -1.85533207012820
H            4.18471868025541        2.12273362509762       -0.00475872526734
H            5.36826891017887        0.46225853209300        1.37972093223559
H            4.21688229608327       -1.59520561318730        2.07959593533762
H            1.49886079102336       -3.03771804083537        0.72548480806496
H            0.73940010137823       -2.10926829463483        2.01127489287160
H            2.30676258574415       -2.88488998387366        2.29537992335408
H           -0.20753465896549        0.40465786962569       -0.15519955605109
H           -2.14960916081782       -2.07945067009648       -1.05927897009356
H           -1.51173394405932       -1.10373845734740       -2.37383174142355
H           -2.27509841012547        0.80476150560849       -2.62073906183354
H           -3.82759699494641        0.67774466322071       -1.77642922283657
H           -3.07956627697465        2.55818025277511       -0.25353434089429
H           -1.56460001117351        2.64745562043518       -1.15302251159039
H           -3.09256291462208        3.02528957921928       -1.95268302467411
H           -3.44456002674118        0.66599302527579        0.75397919484910
H           -3.77138395318425       -0.97505834980894        0.16778468545034
H           -2.86888491326790       -1.01484805262542        2.45470548478657
H           -1.70711443256067       -1.76947876343249        1.36367960238033
H           -1.42723074818763       -0.12758277296751        1.95154179631690
