----- Optimization -----
      -----------------------------------------------------------      
     |                   =====================                   |     
     |                           x T B                           |     
     |                   =====================                   |     
     |                         S. Grimme                         |     
     |          Mulliken Center for Theoretical Chemistry        |     
     |                    University of Bonn                     |     
      -----------------------------------------------------------      

   * xtb version 6.7.1 (edcfbbe) compiled by 'conda@3ef47c1a292c' on 2024-11-25

   xtb is free software: you can redistribute it and/or modify it under
   the terms of the GNU Lesser General Public License as published by
   the Free Software Foundation, either version 3 of the License, or
   (at your option) any later version.
   
   xtb is distributed in the hope that it will be useful,
   but WITHOUT ANY WARRANTY; without even the implied warranty of
   MERCHANTABILITY or FITNESS FOR A PARTICULAR PURPOSE.  See the
   GNU Lesser General Public License for more details.
   
   Cite this work as:
   * C. Bannwarth, E. Caldeweyher, S. Ehlert, A. Hansen, P. Pracht,
     J. Seibert, S. Spicher, S. Grimme, WIREs Comput. Mol. Sci., 2020, 11,
     e01493. DOI: 10.1002/wcms.1493
   
   for GFN2-xTB:
   * C. Bannwarth, S. Ehlert and S. Grimme., J. Chem. Theory Comput., 2019,
     15, 1652-1671. DOI: 10.1021/acs.jctc.8b01176
   for GFN1-xTB:
   * S. Grimme, C. Bannwarth, P. Shushkov, J. Chem. Theory Comput., 2017,
     13, 1989-2009. DOI: 10.1021/acs.jctc.7b00118
   for GFN0-xTB:
   * P. Pracht, E. Caldeweyher, S. Ehlert, S. Grimme, ChemRxiv, 2019, preprint.
     DOI: 10.26434/chemrxiv.8326202.v1
   for GFN-FF:
   * S. Spicher and S. Grimme, Angew. Chem. Int. Ed., 2020, 59, 15665-15673.
     DOI: 10.1002/anie.202004239
   
   for ALPB and GBSA implicit solvation:
   * S. Ehlert, M. Stahn, S. Spicher, S. Grimme, J. Chem. Theory Comput.,
     2021, 17, 4250-4261. DOI: 10.1021/acs.jctc.1c00471
   
   for ddCOSMO and CPCM-X implicit solvation:
   * M. Stahn, S. Ehlert, S. Grimme, J. Phys. Chem. A,
     2023, XX, XXXX-XXXX. DOI: 10.1021/acs.jpca.3c04382
   
   for DFT-D4:
   * E. Caldeweyher, C. Bannwarth and S. Grimme, J. Chem. Phys., 2017,
     147, 034112. DOI: 10.1063/1.4993215
   * E. Caldeweyher, S. Ehlert, A. Hansen, H. Neugebauer, S. Spicher,
     C. Bannwarth and S. Grimme, J. Chem. Phys., 2019, 150, 154122.
     DOI: 10.1063/1.5090222
   * E. Caldeweyher, J.-M. Mewes, S. Ehlert and S. Grimme, Phys. Chem. Chem. Phys.
     2020, 22, 8499-8512. DOI: 10.1039/D0CP00502A
   
   for sTDA-xTB:
   * S. Grimme and C. Bannwarth, J. Chem. Phys., 2016, 145, 054103.
     DOI: 10.1063/1.4959605
   
   in the mass-spec context:
   * V. Asgeirsson, C. Bauer and S. Grimme, Chem. Sci., 2017, 8, 4879.
     DOI: 10.1039/c7sc00601b
   * J. Koopman and S. Grimme, ACS Omega 2019, 4, 12, 15120-15133.
     DOI: 10.1021/acsomega.9b02011
   
   for metadynamics refer to:
   * S. Grimme, J. Chem. Theory Comput., 2019, 155, 2847-2862
     DOI: 10.1021/acs.jctc.9b00143
   
   for SPH calculations refer to:
   * S. Spicher and S. Grimme, J. Chem. Theory Comput., 2021, 17, 1701-1714
     DOI: 10.1021/acs.jctc.0c01306
   
   for ONIOM refer to:
   * C. Plett, A. Katbashev, S. Ehlert, S. Grimme, M. Bursch,
     Phys. Chem. Chem. Phys., 2023, 25, 17860-17868. DOI: 10.1039/D3CP02178E
   
   for DIPRO refer to:
   * J. Kohn, N. Gildemeister, S. Grimme, D. Fazzi, A. Hansen,
     J. Chem. Phys., 2023, just accepted.
   
   for PTB refer to:
   * S. Grimme, M. Mueller, A. Hansen, J. Chem. Phys., 2023, 158, 124111.
     DOI: 10.1063/5.0137838
   
   with help from (in alphabetical order)
   P. Atkinson, C. Bannwarth, F. Bohle, G. Brandenburg, E. Caldeweyher
   M. Checinski, S. Dohm, S. Ehlert, S. Ehrlich, I. Gerasimov, C. Hölzer
   A. Katbashev, J. Kohn, J. Koopman, C. Lavigne, S. Lehtola, F. März, M. Müller,
   F. Musil, H. Neugebauer, J. Pisarek, C. Plett, P. Pracht, F. Pultar,
   J. Seibert, P. Shushkov, S. Spicher, M. Stahn, M. Steiner, T. Strunk,
   J. Stückrath, T. Rose, and J. Unsleber
   
 * started run on 2025/05/15 at 16:05:25.981     
   ID    Z sym.   atoms
    1    6 C      1-8, 10, 11, 13-16
    2    7 N      9, 12
    3    8 O      17
    4    1 H      18-39

           -------------------------------------------------
          |                Calculation Setup                |
           -------------------------------------------------

          program call               : xtb /rds/general/user/hgt20/home/callum/QDESCP/Lidocaine_rdkit_conf_10/Lidocaine_rdkit_conf_10.xyz --opt normal --acc 1 --gfn 2 --chrg 0 --uhf 0 -P 1
          hostname                   : login-c
          coordinate file            : /rds/general/user/hgt20/home/callum/QDESCP/Lidocaine_rdkit_conf_10/Lidocaine_rdkit_conf_10.xyz
          omp threads                :                     1


           -------------------------------------------------
          |                 G F N 2 - x T B                 |
           -------------------------------------------------

        Reference                      10.1021/acs.jctc.8b01176
      * Hamiltonian:
        H0-scaling (s, p, d)           1.850000    2.230000    2.230000
        zeta-weighting                 0.500000
      * Dispersion:
        s8                             2.700000
        a1                             0.520000
        a2                             5.000000
        s9                             5.000000
      * Repulsion:
        kExp                           1.500000    1.000000
        rExp                           1.000000
      * Coulomb:
        alpha                          2.000000
        third order                    shell-resolved
        anisotropic                    true
        a3                             3.000000
        a5                             4.000000
        cn-shift                       1.200000
        cn-exp                         4.000000
        max-rad                        5.000000


          ...................................................
          :                      SETUP                      :
          :.................................................:
          :  # basis functions                  90          :
          :  # atomic orbitals                  90          :
          :  # shells                           56          :
          :  # electrons                        94          :
          :  max. iterations                   250          :
          :  Hamiltonian                  GFN2-xTB          :
          :  restarted?                      false          :
          :  GBSA solvation                  false          :
          :  PC potential                    false          :
          :  electronic temp.          300.0000000     K    :
          :  accuracy                    1.0000000          :
          :  -> integral cutoff          0.2500000E+02      :
          :  -> integral neglect         0.1000000E-07      :
          :  -> SCF convergence          0.1000000E-05 Eh   :
          :  -> wf. convergence          0.1000000E-03 e    :
          :  Broyden damping             0.4000000          :
          :  net charge                          0          :
          :  unpaired electrons                  0          :
          ...................................................

 iter      E             dE          RMSdq      gap      omega  full diag
   1    -51.7359040 -0.517359E+02  0.345E+00    3.51       0.0  T
   2    -51.8242315 -0.883276E-01  0.198E+00    3.73       1.0  T
   3    -51.8268430 -0.261150E-02  0.970E-01    3.73       1.0  T
   4    -51.8289032 -0.206019E-02  0.230E-01    3.63       1.0  T
   5    -51.8304729 -0.156971E-02  0.889E-02    3.69       1.0  T
   6    -51.8306260 -0.153071E-03  0.434E-02    3.69       1.0  T
   7    -51.8306434 -0.173650E-04  0.197E-02    3.68       1.0  T
   8    -51.8306484 -0.498273E-05  0.506E-03    3.69       3.2  T
   9    -51.8306484 -0.935328E-07  0.231E-03    3.69       6.9  T
  10    -51.8306485 -0.868229E-07  0.108E-03    3.69      14.8  T
  11    -51.8306485 -0.644172E-08  0.402E-04    3.69      39.8  T
  12    -51.8306485 -0.755854E-09  0.105E-04    3.69     152.4  T

   *** convergence criteria satisfied after 12 iterations ***

         #    Occupation            Energy/Eh            Energy/eV
      -------------------------------------------------------------
         1        2.0000           -0.6875182             -18.7083
       ...           ...                  ...                  ...
        41        2.0000           -0.4302147             -11.7067
        42        2.0000           -0.4181537             -11.3785
        43        2.0000           -0.4168336             -11.3426
        44        2.0000           -0.3921626             -10.6713
        45        2.0000           -0.3799517             -10.3390
        46        2.0000           -0.3708746             -10.0920
        47        2.0000           -0.3640103              -9.9052 (HOMO)
        48                         -0.2285788              -6.2199 (LUMO)
        49                         -0.2153584              -5.8602
        50                         -0.1875232              -5.1028
        51                         -0.0905888              -2.4650
        52                         -0.0236482              -0.6435
       ...                                ...                  ...
        90                          0.6434261              17.5085
      -------------------------------------------------------------
                  HL-Gap            0.1354315 Eh            3.6853 eV
             Fermi-level           -0.2962945 Eh           -8.0626 eV

 SCC (total)                   0 d,  0 h,  0 min,  0.044 sec
 SCC setup                      ...        0 min,  0.000 sec (  0.706%)
 Dispersion                     ...        0 min,  0.000 sec (  0.811%)
 classical contributions        ...        0 min,  0.000 sec (  0.284%)
 integral evaluation            ...        0 min,  0.006 sec ( 13.235%)
 iterations                     ...        0 min,  0.018 sec ( 41.099%)
 molecular gradient             ...        0 min,  0.019 sec ( 43.567%)
 printout                       ...        0 min,  0.000 sec (  0.285%)

         :::::::::::::::::::::::::::::::::::::::::::::::::::::
         ::                     SUMMARY                     ::
         :::::::::::::::::::::::::::::::::::::::::::::::::::::
         :: total energy             -51.120955050012 Eh    ::
         :: gradient norm              0.060989646718 Eh/a0 ::
         :: HOMO-LUMO gap              3.685277978117 eV    ::
         ::.................................................::
         :: SCC energy               -51.830053139393 Eh    ::
         :: -> isotropic ES            0.047090309599 Eh    ::
         :: -> anisotropic ES          0.008574839985 Eh    ::
         :: -> anisotropic XC          0.029197446813 Eh    ::
         :: -> dispersion             -0.036641062019 Eh    ::
         :: repulsion energy           0.709098089381 Eh    ::
         :: add. restraining           0.000000000000 Eh    ::
         :: total charge               0.000000000000 e     ::
         :::::::::::::::::::::::::::::::::::::::::::::::::::::

      ----------------------------------------------------------- 
     |                   =====================                   |
     |                        A N C O P T                        |
     |                   =====================                   |
     |               Approximate Normal Coordinate               |
     |                Rational Function Optimizer                |
      ----------------------------------------------------------- 
      ----------------------------------------------------------- 
     |                   =====================                   |
     |                        A N C O P T                        |
     |                   =====================                   |
     |               Approximate Normal Coordinate               |
     |                Rational Function Optimizer                |
      ----------------------------------------------------------- 

          ...................................................
          :                      SETUP                      :
          :.................................................:
          :   optimization level            normal          :
          :   max. optcycles                   200          :
          :   ANC micro-cycles                  20          :
          :   degrees of freedom               111          :
          :.................................................:
          :   RF solver                   davidson          :
          :   write xtbopt.log                true          :
          :   linear?                        false          :
          :   energy convergence         0.5000000E-05 Eh   :
          :   grad. convergence          0.1000000E-02 Eh/α :
          :   maxmium RF displ.          1.0000000          :
          :   Hlow (freq-cutoff)         0.1000000E-01      :
          :   Hmax (freq-cutoff)         5.0000000          :
          :   S6 in model hess.         20.0000000          :
          ...................................................

generating ANC from exact Hessian ...
Using Lindh-Hessian (1995)
 Shifting diagonal of input Hessian by    9.7050106877224086E-003
 Lowest  eigenvalues of input Hessian
    0.000000    0.000000    0.000000    0.000000    0.000000    0.000000
    0.010000    0.010100    0.010533    0.011135    0.011895    0.012400
    0.013334    0.014568    0.015217    0.015653    0.016279    0.017768
 Highest eigenvalues
    1.555276    1.801532    1.829467    1.932991    2.022196    2.256718


........................................................................
.............................. CYCLE    1 ..............................
........................................................................

 iter      E             dE          RMSdq      gap      omega  full diag
   1    -51.8306485 -0.518306E+02  0.541E-05    3.69       0.0  T
   2    -51.8306485 -0.194902E-10  0.314E-05    3.69     509.7  T
   3    -51.8306485 -0.124629E-10  0.200E-05    3.69     798.7  T
     SCC iter.                  ...        0 min,  0.005 sec
     gradient                   ...        0 min,  0.018 sec
 * total energy  :   -51.1209551 Eh     change       -0.1586642E-09 Eh
   gradient norm :     0.0609895 Eh/α   predicted     0.0000000E+00 (-100.00%)
   displ. norm   :     0.3024285 α      lambda       -0.9537935E-02
   maximum displ.:     0.1058037 α      in ANC's #35, #16, #15, ...

........................................................................
.............................. CYCLE    2 ..............................
........................................................................

 iter      E             dE          RMSdq      gap      omega  full diag
   1    -51.8702702 -0.518703E+02  0.184E-01    3.75       0.0  T
   2    -51.8703160 -0.458312E-04  0.110E-01    3.74       1.0  T
   3    -51.8703048  0.112037E-04  0.287E-02    3.75       1.0  T
   4    -51.8703237 -0.188744E-04  0.516E-03    3.74       3.1  T
   5    -51.8703240 -0.314038E-06  0.284E-03    3.74       5.6  T
   6    -51.8703241 -0.649099E-07  0.132E-03    3.74      12.2  T
   7    -51.8703241 -0.385203E-07  0.411E-04    3.74      38.9  T
   8    -51.8703241 -0.115448E-08  0.165E-04    3.74      97.3  T
     SCC iter.                  ...        0 min,  0.056 sec
     gradient                   ...        0 min,  0.019 sec
 * total energy  :   -51.1272735 Eh     change       -0.6318474E-02 Eh
   gradient norm :     0.0217513 Eh/α   predicted    -0.5205300E-02 ( -17.62%)
   displ. norm   :     0.2869528 α      lambda       -0.2396360E-02
   maximum displ.:     0.1060631 α      in ANC's #16, #11, #18, ...

........................................................................
.............................. CYCLE    3 ..............................
........................................................................

 iter      E             dE          RMSdq      gap      omega  full diag
   1    -51.8868425 -0.518868E+02  0.103E-01    3.74       0.0  T
   2    -51.8868700 -0.274874E-04  0.606E-02    3.75       1.0  T
   3    -51.8868671  0.290447E-05  0.201E-02    3.75       1.0  T
   4    -51.8868719 -0.483321E-05  0.524E-03    3.75       3.1  T
   5    -51.8868728 -0.943509E-06  0.165E-03    3.75       9.7  T
   6    -51.8868729 -0.214968E-07  0.797E-04    3.75      20.1  T
   7    -51.8868729 -0.515380E-08  0.242E-04    3.75      66.2  T
     SCC iter.                  ...        0 min,  0.010 sec
     gradient                   ...        0 min,  0.064 sec
 * total energy  :   -51.1288269 Eh     change       -0.1553346E-02 Eh
   gradient norm :     0.0083274 Eh/α   predicted    -0.1297629E-02 ( -16.46%)
   displ. norm   :     0.2930814 α      lambda       -0.9195373E-03
   maximum displ.:     0.1155520 α      in ANC's #11, #16, #4, ...

........................................................................
.............................. CYCLE    4 ..............................
........................................................................

 iter      E             dE          RMSdq      gap      omega  full diag
   1    -51.8894600 -0.518895E+02  0.763E-02    3.73       0.0  T
   2    -51.8894730 -0.129521E-04  0.436E-02    3.74       1.0  T
   3    -51.8894706  0.232096E-05  0.158E-02    3.74       1.0  T
   4    -51.8894742 -0.353581E-05  0.409E-03    3.74       3.9  T
   5    -51.8894747 -0.520449E-06  0.113E-03    3.74      14.2  T
   6    -51.8894747 -0.572229E-08  0.455E-04    3.74      35.2  T
   7    -51.8894747 -0.771792E-09  0.192E-04    3.74      83.5  T
     SCC iter.                  ...        0 min,  0.010 sec
     gradient                   ...        0 min,  0.019 sec
 * total energy  :   -51.1295466 Eh     change       -0.7197354E-03 Eh
   gradient norm :     0.0083232 Eh/α   predicted    -0.4992628E-03 ( -30.63%)
   displ. norm   :     0.4556542 α      lambda       -0.1046818E-02
   maximum displ.:     0.1784120 α      in ANC's #11, #1, #4, ...

........................................................................
.............................. CYCLE    5 ..............................
........................................................................

 iter      E             dE          RMSdq      gap      omega  full diag
   1    -51.8872087 -0.518872E+02  0.110E-01    3.72       0.0  T
   2    -51.8872209 -0.122268E-04  0.637E-02    3.72       1.0  T
   3    -51.8872125  0.845287E-05  0.211E-02    3.72       1.0  T
   4    -51.8872237 -0.112523E-04  0.397E-03    3.72       4.0  T
   5    -51.8872241 -0.332826E-06  0.155E-03    3.72      10.3  T
   6    -51.8872241 -0.925051E-08  0.638E-04    3.72      25.1  T
   7    -51.8872241 -0.188770E-08  0.275E-04    3.72      58.2  T
     SCC iter.                  ...        0 min,  0.050 sec
     gradient                   ...        0 min,  0.019 sec
 * total energy  :   -51.1303087 Eh     change       -0.7621278E-03 Eh
   gradient norm :     0.0111904 Eh/α   predicted    -0.6320812E-03 ( -17.06%)
   displ. norm   :     0.3968930 α      lambda       -0.6748459E-03
   maximum displ.:     0.1810016 α      in ANC's #1, #6, #4, ...

........................................................................
.............................. CYCLE    6 ..............................
........................................................................

 iter      E             dE          RMSdq      gap      omega  full diag
   1    -51.8852014 -0.518852E+02  0.885E-02    3.73       0.0  T
   2    -51.8852048 -0.339004E-05  0.518E-02    3.73       1.0  T
   3    -51.8851991  0.561878E-05  0.148E-02    3.73       1.1  T
   4    -51.8852062 -0.703556E-05  0.212E-03    3.73       7.6  T
   5    -51.8852062 -0.388282E-07  0.105E-03    3.73      15.3  T
   6    -51.8852062 -0.257599E-08  0.436E-04    3.73      36.8  T
   7    -51.8852062 -0.233669E-08  0.163E-04    3.73      98.3  T
     SCC iter.                  ...        0 min,  0.010 sec
     gradient                   ...        0 min,  0.064 sec
 * total energy  :   -51.1308056 Eh     change       -0.4968673E-03 Eh
   gradient norm :     0.0101555 Eh/α   predicted    -0.3905796E-03 ( -21.39%)
   displ. norm   :     0.3481430 α      lambda       -0.5165216E-03
   maximum displ.:     0.1844173 α      in ANC's #1, #6, #3, ...

........................................................................
.............................. CYCLE    7 ..............................
........................................................................

 iter      E             dE          RMSdq      gap      omega  full diag
   1    -51.8854541 -0.518855E+02  0.738E-02    3.75       0.0  T
   2    -51.8854572 -0.310632E-05  0.435E-02    3.74       1.0  T
   3    -51.8854552  0.199348E-05  0.939E-03    3.74       1.7  T
   4    -51.8854577 -0.254482E-05  0.221E-03    3.74       7.3  T
   5    -51.8854579 -0.108209E-06  0.887E-04    3.74      18.0  T
   6    -51.8854579 -0.211008E-08  0.370E-04    3.74      43.3  T
     SCC iter.                  ...        0 min,  0.009 sec
     gradient                   ...        0 min,  0.019 sec
 * total energy  :   -51.1311949 Eh     change       -0.3892989E-03 Eh
   gradient norm :     0.0071957 Eh/α   predicted    -0.2895637E-03 ( -25.62%)
   displ. norm   :     0.3631909 α      lambda       -0.4180495E-03
   maximum displ.:     0.1980882 α      in ANC's #1, #6, #2, ...

........................................................................
.............................. CYCLE    8 ..............................
........................................................................

 iter      E             dE          RMSdq      gap      omega  full diag
   1    -51.8863403 -0.518863E+02  0.735E-02    3.76       0.0  T
   2    -51.8863425 -0.225540E-05  0.432E-02    3.76       1.0  T
   3    -51.8863412  0.130890E-05  0.709E-03    3.76       2.3  T
   4    -51.8863429 -0.169985E-05  0.192E-03    3.76       8.3  T
   5    -51.8863430 -0.940428E-07  0.825E-04    3.76      19.4  T
   6    -51.8863430 -0.242174E-08  0.298E-04    3.76      53.7  T
     SCC iter.                  ...        0 min,  0.009 sec
     gradient                   ...        0 min,  0.064 sec
 * total energy  :   -51.1315137 Eh     change       -0.3187705E-03 Eh
   gradient norm :     0.0055869 Eh/α   predicted    -0.2365973E-03 ( -25.78%)
   displ. norm   :     0.3623751 α      lambda       -0.3502851E-03
   maximum displ.:     0.1998852 α      in ANC's #1, #6, #2, ...

........................................................................
.............................. CYCLE    9 ..............................
........................................................................

 iter      E             dE          RMSdq      gap      omega  full diag
   1    -51.8888022 -0.518888E+02  0.664E-02    3.77       0.0  T
   2    -51.8888043 -0.208743E-05  0.390E-02    3.77       1.0  T
   3    -51.8888038  0.519202E-06  0.516E-03    3.77       3.1  T
   4    -51.8888046 -0.788137E-06  0.161E-03    3.77       9.9  T
   5    -51.8888046 -0.768260E-07  0.776E-04    3.77      20.6  T
   6    -51.8888046 -0.351569E-08  0.236E-04    3.77      67.8  T
     SCC iter.                  ...        0 min,  0.009 sec
     gradient                   ...        0 min,  0.019 sec
 * total energy  :   -51.1317777 Eh     change       -0.2640750E-03 Eh
   gradient norm :     0.0055764 Eh/α   predicted    -0.1981432E-03 ( -24.97%)
   displ. norm   :     0.4210294 α      lambda       -0.3099686E-03
   maximum displ.:     0.2225128 α      in ANC's #1, #6, #2, ...

........................................................................
.............................. CYCLE   10 ..............................
........................................................................

 iter      E             dE          RMSdq      gap      omega  full diag
   1    -51.8881869 -0.518882E+02  0.775E-02    3.77       0.0  T
   2    -51.8881899 -0.306171E-05  0.454E-02    3.77       1.0  T
   3    -51.8881879  0.203344E-05  0.844E-03    3.77       1.9  T
   4    -51.8881906 -0.266377E-05  0.192E-03    3.77       8.4  T
   5    -51.8881906 -0.814767E-07  0.946E-04    3.77      16.9  T
   6    -51.8881906 -0.953003E-08  0.392E-04    3.77      40.9  T
     SCC iter.                  ...        0 min,  0.009 sec
     gradient                   ...        0 min,  0.019 sec
 * total energy  :   -51.1319968 Eh     change       -0.2190448E-03 Eh
   gradient norm :     0.0056455 Eh/α   predicted    -0.1824644E-03 ( -16.70%)
   displ. norm   :     0.4153721 α      lambda       -0.3494894E-03
   maximum displ.:     0.2052632 α      in ANC's #1, #6, #2, ...

........................................................................
.............................. CYCLE   11 ..............................
........................................................................

 iter      E             dE          RMSdq      gap      omega  full diag
   1    -51.8927931 -0.518928E+02  0.661E-02    3.76       0.0  T
   2    -51.8927997 -0.660030E-05  0.387E-02    3.76       1.0  T
   3    -51.8927993  0.438565E-06  0.875E-03    3.77       1.8  T
   4    -51.8928003 -0.100973E-05  0.205E-03    3.76       7.8  T
   5    -51.8928004 -0.745560E-07  0.957E-04    3.76      16.7  T
   6    -51.8928004 -0.791145E-08  0.407E-04    3.76      39.4  T
     SCC iter.                  ...        0 min,  0.009 sec
     gradient                   ...        0 min,  0.064 sec
 * total energy  :   -51.1321981 Eh     change       -0.2013131E-03 Eh
   gradient norm :     0.0094492 Eh/α   predicted    -0.2048944E-03 (   1.78%)
   displ. norm   :     0.3509365 α      lambda       -0.2013208E-03
   maximum displ.:     0.1815889 α      in ANC's #6, #1, #2, ...

........................................................................
.............................. CYCLE   12 ..............................
........................................................................

 iter      E             dE          RMSdq      gap      omega  full diag
   1    -51.8901431 -0.518901E+02  0.582E-02    3.75       0.0  T
   2    -51.8901452 -0.209173E-05  0.340E-02    3.75       1.0  T
   3    -51.8901442  0.101896E-05  0.687E-03    3.75       2.3  T
   4    -51.8901456 -0.140426E-05  0.168E-03    3.75       9.5  T
   5    -51.8901457 -0.624259E-07  0.779E-04    3.75      20.5  T
   6    -51.8901457 -0.332118E-08  0.276E-04    3.75      58.0  T
     SCC iter.                  ...        0 min,  0.009 sec
     gradient                   ...        0 min,  0.019 sec
 * total energy  :   -51.1323357 Eh     change       -0.1376087E-03 Eh
   gradient norm :     0.0064533 Eh/α   predicted    -0.1130582E-03 ( -17.84%)
   displ. norm   :     0.2703149 α      lambda       -0.1937150E-03
   maximum displ.:     0.1258605 α      in ANC's #6, #2, #1, ...

........................................................................
.............................. CYCLE   13 ..............................
........................................................................

 iter      E             dE          RMSdq      gap      omega  full diag
   1    -51.8911164 -0.518911E+02  0.477E-02    3.72       0.0  T
   2    -51.8911228 -0.632408E-05  0.275E-02    3.72       1.0  T
   3    -51.8911224  0.395752E-06  0.965E-03    3.72       1.7  T
   4    -51.8911233 -0.943700E-06  0.248E-03    3.72       6.5  T
   5    -51.8911235 -0.169069E-06  0.813E-04    3.72      19.7  T
   6    -51.8911235 -0.275939E-08  0.329E-04    3.72      48.6  T
     SCC iter.                  ...        0 min,  0.056 sec
     gradient                   ...        0 min,  0.019 sec
 * total energy  :   -51.1324253 Eh     change       -0.8957273E-04 Eh
   gradient norm :     0.0064127 Eh/α   predicted    -0.1039462E-03 (  16.05%)
   displ. norm   :     0.1949022 α      lambda       -0.1209228E-03
   maximum displ.:     0.0957848 α      in ANC's #2, #6, #1, ...

........................................................................
.............................. CYCLE   14 ..............................
........................................................................

 iter      E             dE          RMSdq      gap      omega  full diag
   1    -51.8906678 -0.518907E+02  0.335E-02    3.71       0.0  T
   2    -51.8906693 -0.145023E-05  0.197E-02    3.71       1.0  T
   3    -51.8906685  0.818324E-06  0.648E-03    3.71       2.5  T
   4    -51.8906696 -0.112966E-05  0.133E-03    3.71      12.0  T
   5    -51.8906696 -0.333051E-07  0.589E-04    3.71      27.2  T
   6    -51.8906696 -0.319956E-08  0.242E-04    3.71      66.3  T
     SCC iter.                  ...        0 min,  0.009 sec
     gradient                   ...        0 min,  0.067 sec
 * total energy  :   -51.1324941 Eh     change       -0.6884691E-04 Eh
   gradient norm :     0.0032057 Eh/α   predicted    -0.6276270E-04 (  -8.84%)
   displ. norm   :     0.0855912 α      lambda       -0.4376804E-04
   maximum displ.:     0.0490516 α      in ANC's #2, #6, #1, ...

........................................................................
.............................. CYCLE   15 ..............................
........................................................................

 iter      E             dE          RMSdq      gap      omega  full diag
   1    -51.8907695 -0.518908E+02  0.165E-02    3.71       0.0  T
   2    -51.8907699 -0.431290E-06  0.958E-03    3.71       1.7  T
   3    -51.8907698  0.726531E-07  0.284E-03    3.71       5.6  T
   4    -51.8907699 -0.116699E-06  0.741E-04    3.71      21.6  T
   5    -51.8907699 -0.129937E-07  0.269E-04    3.71      59.6  T
     SCC iter.                  ...        0 min,  0.007 sec
     gradient                   ...        0 min,  0.019 sec
 * total energy  :   -51.1325274 Eh     change       -0.3329883E-04 Eh
   gradient norm :     0.0019359 Eh/α   predicted    -0.2204514E-04 ( -33.80%)
   displ. norm   :     0.1742998 α      lambda       -0.5658441E-04
   maximum displ.:     0.1034143 α      in ANC's #2, #8, #7, ...

........................................................................
.............................. CYCLE   16 ..............................
........................................................................

 iter      E             dE          RMSdq      gap      omega  full diag
   1    -51.8925210 -0.518925E+02  0.338E-02    3.71       0.0  T
   2    -51.8925226 -0.159099E-05  0.198E-02    3.71       1.0  T
   3    -51.8925223  0.287639E-06  0.549E-03    3.71       2.9  T
   4    -51.8925227 -0.457195E-06  0.160E-03    3.71      10.0  T
   5    -51.8925228 -0.543009E-07  0.566E-04    3.71      28.3  T
   6    -51.8925228 -0.129587E-08  0.232E-04    3.71      68.9  T
     SCC iter.                  ...        0 min,  0.054 sec
     gradient                   ...        0 min,  0.019 sec
 * total energy  :   -51.1325647 Eh     change       -0.3723153E-04 Eh
   gradient norm :     0.0038275 Eh/α   predicted    -0.2867520E-04 ( -22.98%)
   displ. norm   :     0.0978944 α      lambda       -0.3012579E-04
   maximum displ.:     0.0495160 α      in ANC's #2, #1, #6, ...

........................................................................
.............................. CYCLE   17 ..............................
........................................................................

 iter      E             dE          RMSdq      gap      omega  full diag
   1    -51.8911990 -0.518912E+02  0.168E-02    3.71       0.0  T
   2    -51.8911992 -0.231388E-06  0.979E-03    3.71       1.6  T
   3    -51.8911991  0.802479E-07  0.186E-03    3.71       8.6  T
   4    -51.8911992 -0.106685E-06  0.588E-04    3.71      27.2  T
   5    -51.8911992 -0.108613E-07  0.239E-04    3.71      66.9  T
     SCC iter.                  ...        0 min,  0.008 sec
     gradient                   ...        0 min,  0.064 sec
 * total energy  :   -51.1325868 Eh     change       -0.2210419E-04 Eh
   gradient norm :     0.0033191 Eh/α   predicted    -0.1520823E-04 ( -31.20%)
   displ. norm   :     0.1218520 α      lambda       -0.4587691E-04
   maximum displ.:     0.0679301 α      in ANC's #2, #1, #3, ...

........................................................................
.............................. CYCLE   18 ..............................
........................................................................

 iter      E             dE          RMSdq      gap      omega  full diag
   1    -51.8908519 -0.518909E+02  0.198E-02    3.71       0.0  T
   2    -51.8908522 -0.371613E-06  0.116E-02    3.71       1.4  T
   3    -51.8908520  0.201110E-06  0.286E-03    3.71       5.6  T
   4    -51.8908523 -0.252276E-06  0.753E-04    3.71      21.3  T
   5    -51.8908523 -0.205086E-07  0.273E-04    3.71      58.6  T
     SCC iter.                  ...        0 min,  0.008 sec
     gradient                   ...        0 min,  0.019 sec
 * total energy  :   -51.1326206 Eh     change       -0.3381346E-04 Eh
   gradient norm :     0.0026945 Eh/α   predicted    -0.2328400E-04 ( -31.14%)
   displ. norm   :     0.1608014 α      lambda       -0.4097758E-04
   maximum displ.:     0.0911948 α      in ANC's #2, #1, #3, ...

........................................................................
.............................. CYCLE   19 ..............................
........................................................................

 iter      E             dE          RMSdq      gap      omega  full diag
   1    -51.8906363 -0.518906E+02  0.241E-02    3.72       0.0  T
   2    -51.8906370 -0.675939E-06  0.142E-02    3.72       1.1  T
   3    -51.8906368  0.180747E-06  0.328E-03    3.72       4.9  T
   4    -51.8906371 -0.234369E-06  0.935E-04    3.72      17.1  T
   5    -51.8906371 -0.365752E-07  0.326E-04    3.72      49.1  T
     SCC iter.                  ...        0 min,  0.008 sec
     gradient                   ...        0 min,  0.067 sec
 * total energy  :   -51.1326482 Eh     change       -0.2763318E-04 Eh
   gradient norm :     0.0025030 Eh/α   predicted    -0.2102282E-04 ( -23.92%)
   displ. norm   :     0.1329535 α      lambda       -0.2617178E-04
   maximum displ.:     0.0760307 α      in ANC's #2, #1, #7, ...

........................................................................
.............................. CYCLE   20 ..............................
........................................................................

 iter      E             dE          RMSdq      gap      omega  full diag
   1    -51.8911115 -0.518911E+02  0.204E-02    3.72       0.0  T
   2    -51.8911116 -0.107063E-06  0.120E-02    3.72       1.3  T
   3    -51.8911116  0.254954E-07  0.121E-03    3.72      13.2  T
   4    -51.8911117 -0.488928E-07  0.494E-04    3.72      32.4  T
   5    -51.8911117 -0.510794E-08  0.239E-04    3.72      66.9  T
     SCC iter.                  ...        0 min,  0.007 sec
     gradient                   ...        0 min,  0.019 sec
 * total energy  :   -51.1326673 Eh     change       -0.1907823E-04 Eh
   gradient norm :     0.0026603 Eh/α   predicted    -0.1331765E-04 ( -30.19%)
   displ. norm   :     0.1521443 α      lambda       -0.2850591E-04
   maximum displ.:     0.0864095 α      in ANC's #2, #1, #7, ...
 * RMSD in coord.:     0.6666607 α      energy gain  -0.1171224E-01 Eh

generating ANC from exact Hessian ...
Using Lindh-Hessian (1995)
 Shifting diagonal of input Hessian by    9.6730967159227715E-003
 Lowest  eigenvalues of input Hessian
    0.000000    0.000000    0.000000    0.000000    0.000000    0.000000
    0.010000    0.010213    0.010756    0.011273    0.011801    0.012425
    0.013507    0.015062    0.015626    0.016231    0.017260    0.018095
 Highest eigenvalues
    1.628789    1.885289    1.916773    2.016494    2.120870    2.366742


........................................................................
.............................. CYCLE   21 ..............................
........................................................................

 iter      E             dE          RMSdq      gap      omega  full diag
   1    -51.8913965 -0.518914E+02  0.245E-02    3.72       0.0  T
   2    -51.8913967 -0.131941E-06  0.144E-02    3.72       1.1  T
   3    -51.8913967  0.107973E-07  0.131E-03    3.72      12.2  T
   4    -51.8913967 -0.425923E-07  0.561E-04    3.72      28.6  T
   5    -51.8913967 -0.443344E-08  0.267E-04    3.72      59.9  T
     SCC iter.                  ...        0 min,  0.007 sec
     gradient                   ...        0 min,  0.019 sec
 * total energy  :   -51.1326881 Eh     change       -0.2077751E-04 Eh
   gradient norm :     0.0022084 Eh/α   predicted     0.0000000E+00 (-100.00%)
   displ. norm   :     0.0221897 α      lambda       -0.1358708E-04
   maximum displ.:     0.0086618 α      in ANC's #1, #4, #5, ...

........................................................................
.............................. CYCLE   22 ..............................
........................................................................

 iter      E             dE          RMSdq      gap      omega  full diag
   1    -51.8915140 -0.518915E+02  0.639E-03    3.71       0.0  T
   2    -51.8915141 -0.811417E-07  0.367E-03    3.71       4.4  T
   3    -51.8915140  0.220722E-07  0.121E-03    3.71      13.3  T
   4    -51.8915141 -0.310771E-07  0.359E-04    3.71      44.6  T
   5    -51.8915141 -0.482613E-08  0.130E-04    3.71     122.7  T
     SCC iter.                  ...        0 min,  0.007 sec
     gradient                   ...        0 min,  0.019 sec
 * total energy  :   -51.1327004 Eh     change       -0.1233411E-04 Eh
   gradient norm :     0.0010531 Eh/α   predicted    -0.7649726E-05 ( -37.98%)
   displ. norm   :     0.0867708 α      lambda       -0.2136346E-04
   maximum displ.:     0.0393118 α      in ANC's #4, #1, #5, ...

........................................................................
.............................. CYCLE   23 ..............................
........................................................................

 iter      E             dE          RMSdq      gap      omega  full diag
   1    -51.8916254 -0.518916E+02  0.194E-02    3.71       0.0  T
   2    -51.8916259 -0.534652E-06  0.113E-02    3.71       1.4  T
   3    -51.8916256  0.294086E-06  0.352E-03    3.71       4.5  T
   4    -51.8916260 -0.394881E-06  0.916E-04    3.71      17.5  T
   5    -51.8916260 -0.264810E-07  0.382E-04    3.71      41.9  T
     SCC iter.                  ...        0 min,  0.007 sec
     gradient                   ...        0 min,  0.067 sec
 * total energy  :   -51.1327149 Eh     change       -0.1454528E-04 Eh
   gradient norm :     0.0021661 Eh/α   predicted    -0.1134923E-04 ( -21.97%)
   displ. norm   :     0.0170504 α      lambda       -0.5568033E-05
   maximum displ.:     0.0092008 α      in ANC's #1, #4, #6, ...

........................................................................
.............................. CYCLE   24 ..............................
........................................................................

 iter      E             dE          RMSdq      gap      omega  full diag
   1    -51.8916235 -0.518916E+02  0.331E-03    3.71       0.0  T
   2    -51.8916235 -0.195022E-07  0.188E-03    3.71       8.5  T
   3    -51.8916235  0.204762E-08  0.551E-04    3.71      29.1  T
   4    -51.8916235 -0.333917E-08  0.154E-04    3.71     103.8  T
     SCC iter.                  ...        0 min,  0.006 sec
     gradient                   ...        0 min,  0.019 sec
 * total energy  :   -51.1327205 Eh     change       -0.5526343E-05 Eh
   gradient norm :     0.0014894 Eh/α   predicted    -0.3092313E-05 ( -44.04%)
   displ. norm   :     0.1238830 α      lambda       -0.2047350E-04
   maximum displ.:     0.0652224 α      in ANC's #1, #4, #6, ...

........................................................................
.............................. CYCLE   25 ..............................
........................................................................

 iter      E             dE          RMSdq      gap      omega  full diag
   1    -51.8914707 -0.518915E+02  0.219E-02    3.70       0.0  T
   2    -51.8914713 -0.568255E-06  0.127E-02    3.71       1.3  T
   3    -51.8914712  0.757559E-07  0.287E-03    3.71       5.6  T
   4    -51.8914713 -0.112136E-06  0.864E-04    3.71      18.5  T
   5    -51.8914714 -0.212805E-07  0.288E-04    3.71      55.5  T
     SCC iter.                  ...        0 min,  0.058 sec
     gradient                   ...        0 min,  0.019 sec
 * total energy  :   -51.1327357 Eh     change       -0.1519547E-04 Eh
   gradient norm :     0.0020082 Eh/α   predicted    -0.1030896E-04 ( -32.16%)
   displ. norm   :     0.0361999 α      lambda       -0.5938280E-05
   maximum displ.:     0.0202577 α      in ANC's #1, #4, #6, ...

........................................................................
.............................. CYCLE   26 ..............................
........................................................................

 iter      E             dE          RMSdq      gap      omega  full diag
   1    -51.8914951 -0.518915E+02  0.662E-03    3.71       0.0  T
   2    -51.8914951 -0.875288E-08  0.391E-03    3.71       4.1  T
   3    -51.8914951  0.885644E-08  0.496E-04    3.71      32.3  T
   4    -51.8914951 -0.114088E-07  0.134E-04    3.71     119.9  T
     SCC iter.                  ...        0 min,  0.006 sec
     gradient                   ...        0 min,  0.064 sec
 * total energy  :   -51.1327412 Eh     change       -0.5497794E-05 Eh
   gradient norm :     0.0016593 Eh/α   predicted    -0.2973216E-05 ( -45.92%)
   displ. norm   :     0.2153187 α      lambda       -0.2275078E-04
   maximum displ.:     0.1208901 α      in ANC's #1, #4, #6, ...

........................................................................
.............................. CYCLE   27 ..............................
........................................................................

 iter      E             dE          RMSdq      gap      omega  full diag
   1    -51.8913628 -0.518914E+02  0.403E-02    3.71       0.0  T
   2    -51.8913631 -0.337522E-06  0.238E-02    3.71       1.0  T
   3    -51.8913629  0.198805E-06  0.262E-03    3.71       6.1  T
   4    -51.8913632 -0.274180E-06  0.854E-04    3.71      18.8  T
   5    -51.8913632 -0.174702E-07  0.406E-04    3.71      39.5  T
     SCC iter.                  ...        0 min,  0.008 sec
     gradient                   ...        0 min,  0.019 sec
 * total energy  :   -51.1327607 Eh     change       -0.1956207E-04 Eh
   gradient norm :     0.0009775 Eh/α   predicted    -0.1161999E-04 ( -40.60%)
   displ. norm   :     0.0907097 α      lambda       -0.5617743E-05
   maximum displ.:     0.0561871 α      in ANC's #1, #4, #6, ...

........................................................................
.............................. CYCLE   28 ..............................
........................................................................

 iter      E             dE          RMSdq      gap      omega  full diag
   1    -51.8914775 -0.518915E+02  0.165E-02    3.71       0.0  T
   2    -51.8914776 -0.301003E-07  0.977E-03    3.71       1.6  T
   3    -51.8914776 -0.634358E-09  0.637E-04    3.71      25.1  T
   4    -51.8914776 -0.104070E-07  0.263E-04    3.71      60.8  T
     SCC iter.                  ...        0 min,  0.006 sec
     gradient                   ...        0 min,  0.067 sec
 * total energy  :   -51.1327678 Eh     change       -0.7119242E-05 Eh
   gradient norm :     0.0007232 Eh/α   predicted    -0.2821243E-05 ( -60.37%)
   displ. norm   :     0.1048827 α      lambda       -0.8886562E-05
   maximum displ.:     0.0677591 α      in ANC's #1, #4, #7, ...

........................................................................
.............................. CYCLE   29 ..............................
........................................................................

 iter      E             dE          RMSdq      gap      omega  full diag
   1    -51.8918421 -0.518918E+02  0.197E-02    3.71       0.0  T
   2    -51.8918421 -0.456395E-07  0.117E-02    3.71       1.4  T
   3    -51.8918421  0.269338E-08  0.837E-04    3.71      19.1  T
   4    -51.8918421 -0.197990E-07  0.345E-04    3.71      46.5  T
     SCC iter.                  ...        0 min,  0.007 sec
     gradient                   ...        0 min,  0.019 sec
 * total energy  :   -51.1327789 Eh     change       -0.1101185E-04 Eh
   gradient norm :     0.0005884 Eh/α   predicted    -0.4466928E-05 ( -59.44%)
   displ. norm   :     0.1658747 α      lambda       -0.1237598E-04
   maximum displ.:     0.1074619 α      in ANC's #1, #10, #2, ...

........................................................................
.............................. CYCLE   30 ..............................
........................................................................

 iter      E             dE          RMSdq      gap      omega  full diag
   1    -51.8915849 -0.518916E+02  0.314E-02    3.72       0.0  T
   2    -51.8915850 -0.985467E-07  0.185E-02    3.72       1.0  T
   3    -51.8915851 -0.135819E-07  0.106E-03    3.72      15.0  T
   4    -51.8915851 -0.243264E-07  0.517E-04    3.71      31.0  T
   5    -51.8915851 -0.108595E-08  0.252E-04    3.71      63.5  T
     SCC iter.                  ...        0 min,  0.008 sec
     gradient                   ...        0 min,  0.019 sec
 * total energy  :   -51.1327940 Eh     change       -0.1512712E-04 Eh
   gradient norm :     0.0011872 Eh/α   predicted    -0.6268349E-05 ( -58.56%)
   displ. norm   :     0.1845706 α      lambda       -0.1370393E-04
   maximum displ.:     0.1213405 α      in ANC's #1, #10, #2, ...

........................................................................
.............................. CYCLE   31 ..............................
........................................................................

 iter      E             dE          RMSdq      gap      omega  full diag
   1    -51.8915103 -0.518915E+02  0.352E-02    3.72       0.0  T
   2    -51.8915104 -0.126160E-06  0.207E-02    3.72       1.0  T
   3    -51.8915104 -0.836415E-08  0.138E-03    3.72      11.6  T
   4    -51.8915104 -0.422333E-07  0.601E-04    3.72      26.6  T
   5    -51.8915104 -0.996884E-09  0.283E-04    3.72      56.6  T
     SCC iter.                  ...        0 min,  0.008 sec
     gradient                   ...        0 min,  0.064 sec
 * total energy  :   -51.1328108 Eh     change       -0.1680826E-04 Eh
   gradient norm :     0.0015010 Eh/α   predicted    -0.6956033E-05 ( -58.62%)
   displ. norm   :     0.1792983 α      lambda       -0.1458274E-04
   maximum displ.:     0.1208265 α      in ANC's #1, #2, #10, ...

........................................................................
.............................. CYCLE   32 ..............................
........................................................................

 iter      E             dE          RMSdq      gap      omega  full diag
   1    -51.8914868 -0.518915E+02  0.350E-02    3.72       0.0  T
   2    -51.8914869 -0.152113E-06  0.206E-02    3.72       1.0  T
   3    -51.8914869  0.158638E-07  0.159E-03    3.72      10.1  T
   4    -51.8914870 -0.707021E-07  0.644E-04    3.72      24.9  T
   5    -51.8914870 -0.302499E-08  0.309E-04    3.72      51.9  T
     SCC iter.                  ...        0 min,  0.008 sec
     gradient                   ...        0 min,  0.019 sec
 * total energy  :   -51.1328287 Eh     change       -0.1787704E-04 Eh
   gradient norm :     0.0011404 Eh/α   predicted    -0.7399317E-05 ( -58.61%)
   displ. norm   :     0.1746090 α      lambda       -0.1350310E-04
   maximum displ.:     0.1208291 α      in ANC's #1, #2, #10, ...

........................................................................
.............................. CYCLE   33 ..............................
........................................................................

 iter      E             dE          RMSdq      gap      omega  full diag
   1    -51.8914505 -0.518915E+02  0.344E-02    3.71       0.0  T
   2    -51.8914507 -0.238439E-06  0.202E-02    3.71       1.0  T
   3    -51.8914506  0.608834E-07  0.204E-03    3.71       7.8  T
   4    -51.8914508 -0.123115E-06  0.706E-04    3.71      22.7  T
   5    -51.8914508 -0.565183E-08  0.350E-04    3.71      45.8  T
     SCC iter.                  ...        0 min,  0.059 sec
     gradient                   ...        0 min,  0.019 sec
 * total energy  :   -51.1328445 Eh     change       -0.1587246E-04 Eh
   gradient norm :     0.0004724 Eh/α   predicted    -0.6846901E-05 ( -56.86%)
   displ. norm   :     0.1505009 α      lambda       -0.9612495E-05
   maximum displ.:     0.1055069 α      in ANC's #1, #2, #10, ...

........................................................................
.............................. CYCLE   34 ..............................
........................................................................

 iter      E             dE          RMSdq      gap      omega  full diag
   1    -51.8914246 -0.518914E+02  0.300E-02    3.71       0.0  T
   2    -51.8914247 -0.115046E-06  0.176E-02    3.71       1.0  T
   3    -51.8914247  0.818087E-08  0.130E-03    3.71      12.3  T
   4    -51.8914247 -0.468455E-07  0.537E-04    3.71      29.8  T
   5    -51.8914247 -0.278445E-08  0.278E-04    3.71      57.6  T
     SCC iter.                  ...        0 min,  0.008 sec
     gradient                   ...        0 min,  0.064 sec
 * total energy  :   -51.1328561 Eh     change       -0.1158569E-04 Eh
   gradient norm :     0.0006508 Eh/α   predicted    -0.4857771E-05 ( -58.07%)
   displ. norm   :     0.1344015 α      lambda       -0.8350811E-05
   maximum displ.:     0.0953171 α      in ANC's #1, #2, #7, ...

........................................................................
.............................. CYCLE   35 ..............................
........................................................................

 iter      E             dE          RMSdq      gap      omega  full diag
   1    -51.8915403 -0.518915E+02  0.259E-02    3.71       0.0  T
   2    -51.8915404 -0.105577E-06  0.152E-02    3.71       1.1  T
   3    -51.8915404  0.126125E-07  0.128E-03    3.71      12.5  T
   4    -51.8915404 -0.427343E-07  0.445E-04    3.71      36.0  T
   5    -51.8915404 -0.119051E-08  0.237E-04    3.71      67.7  T
     SCC iter.                  ...        0 min,  0.008 sec
     gradient                   ...        0 min,  0.019 sec
 * total energy  :   -51.1328667 Eh     change       -0.1052061E-04 Eh
   gradient norm :     0.0008284 Eh/α   predicted    -0.4213787E-05 ( -59.95%)
   displ. norm   :     0.1379534 α      lambda       -0.8428459E-05
   maximum displ.:     0.0970910 α      in ANC's #1, #2, #7, ...

........................................................................
.............................. CYCLE   36 ..............................
........................................................................

 iter      E             dE          RMSdq      gap      omega  full diag
   1    -51.8914156 -0.518914E+02  0.271E-02    3.71       0.0  T
   2    -51.8914157 -0.908204E-07  0.159E-02    3.71       1.0  T
   3    -51.8914157 -0.628674E-08  0.909E-04    3.71      17.6  T
   4    -51.8914157 -0.198797E-07  0.427E-04    3.71      37.5  T
     SCC iter.                  ...        0 min,  0.057 sec
     gradient                   ...        0 min,  0.019 sec
 * total energy  :   -51.1328770 Eh     change       -0.1035942E-04 Eh
   gradient norm :     0.0006620 Eh/α   predicted    -0.4251578E-05 ( -58.96%)
   displ. norm   :     0.1249524 α      lambda       -0.7082636E-05
   maximum displ.:     0.0900804 α      in ANC's #1, #2, #7, ...

........................................................................
.............................. CYCLE   37 ..............................
........................................................................

 iter      E             dE          RMSdq      gap      omega  full diag
   1    -51.8917623 -0.518918E+02  0.241E-02    3.71       0.0  T
   2    -51.8917624 -0.809947E-07  0.142E-02    3.71       1.1  T
   3    -51.8917623  0.603615E-07  0.146E-03    3.71      11.0  T
   4    -51.8917624 -0.875473E-07  0.398E-04    3.71      40.3  T
   5    -51.8917624 -0.209469E-08  0.221E-04    3.71      72.3  T
     SCC iter.                  ...        0 min,  0.007 sec
     gradient                   ...        0 min,  0.019 sec
 * total energy  :   -51.1328844 Eh     change       -0.7371609E-05 Eh
   gradient norm :     0.0007265 Eh/α   predicted    -0.3567875E-05 ( -51.60%)
   displ. norm   :     0.0724965 α      lambda       -0.3029781E-05
   maximum displ.:     0.0539168 α      in ANC's #1, #2, #7, ...

........................................................................
.............................. CYCLE   38 ..............................
........................................................................

 iter      E             dE          RMSdq      gap      omega  full diag
   1    -51.8914138 -0.518914E+02  0.147E-02    3.71       0.0  T
   2    -51.8914138 -0.462010E-07  0.864E-03    3.71       1.9  T
   3    -51.8914138  0.100729E-07  0.754E-04    3.71      21.2  T
   4    -51.8914138 -0.183591E-07  0.296E-04    3.71      54.0  T
     SCC iter.                  ...        0 min,  0.006 sec
     gradient                   ...        0 min,  0.019 sec
 * total energy  :   -51.1328873 Eh     change       -0.2918577E-05 Eh
   gradient norm :     0.0002818 Eh/α   predicted    -0.1522578E-05 ( -47.83%)
   displ. norm   :     0.0281695 α      lambda       -0.1441751E-05
   maximum displ.:     0.0222784 α      in ANC's #1, #2, #8, ...

   *** GEOMETRY OPTIMIZATION CONVERGED AFTER 38 ITERATIONS ***

------------------------------------------------------------------------
 total energy gain   :        -0.0119323 Eh       -7.4876 kcal/mol
 total RMSD          :         0.7984089 a0        0.4225 Å
 total power (kW/mol):        -0.8244243 (step)  -12.6276 (real)
------------------------------------------------------------------------

 ANCopt (total)                0 d,  0 h,  0 min,  2.481 sec
 optimizer setup                ...        0 min,  0.000 sec (  0.003%)
 model hessian                  ...        0 min,  0.130 sec (  5.249%)
 ANC generation                 ...        0 min,  0.003 sec (  0.107%)
 coordinate transformation      ...        0 min,  0.000 sec (  0.010%)
 single point calculation       ...        0 min,  2.338 sec ( 94.231%)
 optimization log               ...        0 min,  0.005 sec (  0.196%)
 hessian update                 ...        0 min,  0.000 sec (  0.018%)
 rational function              ...        0 min,  0.003 sec (  0.106%)

================
 final structure:
================
39
 xtb: 6.7.1 (edcfbbe)
C            1.66318558129803        1.98824059027644       -0.97243426655220
C            2.38376235888095        0.98281735893806       -0.12245190257854
C            3.68549605465505        1.21158172928520        0.29201960075797
C            4.34996284004000        0.28042809339162        1.06997646145755
C            3.70293983783804       -0.87668310961376        1.45770019036160
C            2.39232766438022       -1.13419951987047        1.07526037609742
C            1.69739943318095       -2.36604641304895        1.55985524919501
C            1.74441975971270       -0.20314922268711        0.25910314612415
N            0.41917108887568       -0.39694962340633       -0.17779496317640
C           -0.10980397187193       -1.44894614189065       -0.83254970539455
C           -1.55401035872156       -1.18422887100783       -1.28322401482352
N           -2.11787406023464        0.02115901924470       -0.69995837272711
C           -2.76032860901518        0.92139883656081       -1.64897881679835
C           -2.61589312118746        2.37930124287083       -1.21998122288133
C           -2.96953568122885       -0.26746648709843        0.44540927167476
C           -2.18906785507237       -0.83144595536940        1.62591144303807
O            0.45636937613056       -2.48759381711587       -1.10180027806774
H            0.85207389878049        2.45536310779304       -0.41075831598816
H            2.34509945046477        2.77125165776530       -1.29384191056899
H            1.23718939405567        1.51323185044834       -1.85533207012820
H            4.18471868025541        2.12273362509762       -0.00475872526734
H            5.36826891017887        0.46225853209300        1.37972093223559
H            4.21688229608327       -1.59520561318730        2.07959593533762
H            1.49886079102336       -3.03771804083537        0.72548480806496
H            0.73940010137823       -2.10926829463483        2.01127489287160
H            2.30676258574415       -2.88488998387366        2.29537992335408
H           -0.20753465896549        0.40465786962569       -0.15519955605109
H           -2.14960916081782       -2.07945067009648       -1.05927897009356
H           -1.51173394405932       -1.10373845734740       -2.37383174142355
H           -2.27509841012547        0.80476150560849       -2.62073906183354
H           -3.82759699494641        0.67774466322071       -1.77642922283657
H           -3.07956627697465        2.55818025277511       -0.25353434089429
H           -1.56460001117351        2.64745562043518       -1.15302251159039
H           -3.09256291462208        3.02528957921928       -1.95268302467411
H           -3.44456002674118        0.66599302527579        0.75397919484910
H           -3.77138395318425       -0.97505834980894        0.16778468545034
H           -2.86888491326790       -1.01484805262542        2.45470548478657
H           -1.70711443256067       -1.76947876343249        1.36367960238033
H           -1.42723074818763       -0.12758277296751        1.95154179631690

 Bond Distances (Angstroems)
 ---------------------------
C1-C2=1.5009         C1-H18=1.0916        C1-H19=1.0869        C1-H20=1.0893        C2-C1=1.5009         C2-C3=1.3851         
C2-C8=1.4003         C3-C2=1.3851         C3-C4=1.3834         C3-H21=1.0805        C4-C3=1.3834         C4-C5=1.3813         
C4-H22=1.0798        C5-C4=1.3813         C5-C6=1.3893         C5-H23=1.0804        C6-C5=1.3893         C6-C7=1.4951         
C6-C8=1.3974         C7-C6=1.4951         C7-H24=1.0894        C7-H25=1.0897        C7-H26=1.0870        C8-C2=1.4003         
C8-C6=1.3974         C8-N9=1.4088         N9-C8=1.4088         N9-C10=1.3473        N9-H27=1.0178        C10-N9=1.3473        
C10-C11=1.5359       C10-O17=1.2132       C11-C10=1.5359       C11-N12=1.4530       C11-H28=1.0983       C11-H29=1.0944       
N12-C11=1.4530       N12-C13=1.4573       N12-C15=1.4562       C13-N12=1.4573       C13-C14=1.5266       C13-H30=1.0924       
C13-H31=1.1021       C14-C13=1.5266       C14-H32=1.0867       C14-H33=1.0870       C14-H34=1.0869       C15-N12=1.4562       
C15-C16=1.5234       C15-H35=1.0919       C15-H36=1.1049       C16-C15=1.5234       C16-H37=1.0875       C16-H38=1.0867       
C16-H39=1.0871       O17-C10=1.2132       H18-C1=1.0916        H19-C1=1.0869        H20-C1=1.0893        H21-C3=1.0805        
H22-C4=1.0798        H23-C5=1.0804        H24-C7=1.0894        H25-C7=1.0897        H26-C7=1.0870        H27-N9=1.0178        
H28-C11=1.0983       H29-C11=1.0944       H30-C13=1.0924       H31-C13=1.1021       H32-C14=1.0867       H33-C14=1.0870       
H34-C14=1.0869       H35-C15=1.0919       H36-C15=1.1049       H37-C16=1.0875       H38-C16=1.0867       H39-C16=1.0871       
 C  H  Rav=1.0896 sigma=0.0063  Rmin=1.0798  Rmax=1.1049    21
 C  C  Rav=1.4471 sigma=0.0643  Rmin=1.3813  Rmax=1.5359    11
 N  H  Rav=1.0178 sigma=0.0000  Rmin=1.0178  Rmax=1.0178     1
 N  C  Rav=1.4245 sigma=0.0427  Rmin=1.3473  Rmax=1.4573     5
 O  C  Rav=1.2132 sigma=0.0000  Rmin=1.2132  Rmax=1.2132     1

 selected bond angles (degree)
 --------------------
H18-C1-C2=110.61               H19-C1-C2=110.42               H19-C1-H18=108.06              H20-C1-C2=110.77               
H20-C1-H18=108.24              H20-C1-H19=108.65              C3-C2-C1=120.67                C8-C2-C1=120.16                
C8-C2-C3=119.17                C4-C3-C2=120.56                H21-C3-C2=119.43               H21-C3-C4=120.01               
C5-C4-C3=119.78                H22-C4-C3=120.06               H22-C4-C5=120.15               C6-C5-C4=121.32                
H23-C5-C4=119.73               H23-C5-C6=118.94               C7-C6-C5=120.13                C8-C6-C5=118.34                
C8-C6-C7=121.52                H24-C7-C6=110.15               H25-C7-C6=110.41               H25-C7-H24=107.60              
H26-C7-C6=110.61               H26-C7-H24=109.03              H26-C7-H25=108.97              C6-C8-C2=120.78                
N9-C8-C2=117.48                N9-C8-C6=121.71                C10-N9-C8=128.86               H27-N9-C8=117.65               
H27-N9-C10=112.58              C11-C10-N9=112.16              O17-C10-N9=126.38              O17-C10-C11=121.42             

 selected dihedral angles (degree)
 ---------------------------------
C3-C2-C1-H18=248.57           C3-C2-C1-H19=  8.14           C3-C2-C1-H20=128.55           C8-C2-C1-H18= 68.70           
C8-C2-C1-H19=188.27           C8-C2-C1-H20=308.68           C4-C3-C2-C1=180.32            C4-C3-C2-C8=  0.19            
H21-C3-C2-C1=359.78           H21-C3-C2-C8=179.65           C5-C4-C3-C2=358.82            C5-C4-C3-H21=179.36           
H22-C4-C3-C2=179.34           H22-C4-C3-H21=359.89          C6-C5-C4-C3=  0.40            C6-C5-C4-H22=179.88           
H23-C5-C4-C3=181.07           H23-C5-C4-H22=  0.54          C7-C6-C5-C4=182.71            C7-C6-C5-H23=  2.05           
C8-C6-C5-C4=  1.33            C8-C6-C5-H23=180.67           H24-C7-C6-C5=246.47           H24-C7-C6-C8= 67.90           
H25-C7-C6-C5=127.78           H25-C7-C6-C8=309.20           H26-C7-C6-C5=  7.08           H26-C7-C6-C8=188.51           
C6-C8-C2-C1=181.46            C6-C8-C2-C3=  1.59            N9-C8-C2-C1=359.63            N9-C8-C2-C3=179.76            
C2-C8-C6-C5=357.67            C2-C8-C6-C7=176.27            N9-C8-C6-C5=179.58            N9-C8-C6-C7=358.18            
C10-N9-C8-C2=127.30           C10-N9-C8-C6=305.45           H27-N9-C8-C2=319.10           H27-N9-C8-C6=137.25           
C11-C10-N9-C8=187.38          C11-C10-N9-H27=356.06         O17-C10-N9-C8=  4.97          O17-C10-N9-H27=173.65         
           -------------------------------------------------
          |                Final Singlepoint                |
           -------------------------------------------------

          ...................................................
          :                      SETUP                      :
          :.................................................:
          :  # basis functions                  90          :
          :  # atomic orbitals                  90          :
          :  # shells                           56          :
          :  # electrons                        94          :
          :  max. iterations                   250          :
          :  Hamiltonian                  GFN2-xTB          :
          :  restarted?                      false          :
          :  GBSA solvation                  false          :
          :  PC potential                    false          :
          :  electronic temp.          300.0000000     K    :
          :  accuracy                    1.0000000          :
          :  -> integral cutoff          0.2500000E+02      :
          :  -> integral neglect         0.1000000E-07      :
          :  -> SCF convergence          0.1000000E-05 Eh   :
          :  -> wf. convergence          0.1000000E-03 e    :
          :  Broyden damping             0.4000000          :
          :  net charge                          0          :
          :  unpaired electrons                  0          :
          ...................................................

 iter      E             dE          RMSdq      gap      omega  full diag
   1    -51.8914138 -0.518914E+02  0.147E-04    3.71       0.0  T
   2    -51.8914138 -0.549605E-10  0.905E-05    3.71     176.9  T
   3    -51.8914138  0.349658E-10  0.543E-05    3.71     294.9  T

   *** convergence criteria satisfied after 3 iterations ***

         #    Occupation            Energy/Eh            Energy/eV
      -------------------------------------------------------------
         1        2.0000           -0.6897050             -18.7678
       ...           ...                  ...                  ...
        41        2.0000           -0.4299003             -11.6982
        42        2.0000           -0.4213489             -11.4655
        43        2.0000           -0.4120924             -11.2136
        44        2.0000           -0.3937963             -10.7157
        45        2.0000           -0.3846383             -10.4665
        46        2.0000           -0.3765788             -10.2472
        47        2.0000           -0.3580627              -9.7434 (HOMO)
        48                         -0.2215534              -6.0288 (LUMO)
        49                         -0.2118987              -5.7661
        50                         -0.1874855              -5.1017
        51                         -0.0864025              -2.3511
        52                         -0.0044931              -0.1223
       ...                                ...                  ...
        90                          0.6841712              18.6172
      -------------------------------------------------------------
                  HL-Gap            0.1365093 Eh            3.7146 eV
             Fermi-level           -0.2898080 Eh           -7.8861 eV

 SCC (total)                   0 d,  0 h,  0 min,  0.079 sec
 SCC setup                      ...        0 min,  0.000 sec (  0.305%)
 Dispersion                     ...        0 min,  0.000 sec (  0.321%)
 classical contributions        ...        0 min,  0.000 sec (  0.149%)
 integral evaluation            ...        0 min,  0.006 sec (  7.296%)
 iterations                     ...        0 min,  0.005 sec (  6.326%)
 molecular gradient             ...        0 min,  0.067 sec ( 85.454%)
 printout                       ...        0 min,  0.000 sec (  0.140%)

         :::::::::::::::::::::::::::::::::::::::::::::::::::::
         ::                     SUMMARY                     ::
         :::::::::::::::::::::::::::::::::::::::::::::::::::::
         :: total energy             -51.132887303973 Eh    ::
         :: gradient norm              0.000282461467 Eh/a0 ::
         :: HOMO-LUMO gap              3.714608340261 eV    ::
         ::.................................................::
         :: SCC energy               -51.890756918468 Eh    ::
         :: -> isotropic ES            0.048424926690 Eh    ::
         :: -> anisotropic ES          0.006982651396 Eh    ::
         :: -> anisotropic XC          0.027401045565 Eh    ::
         :: -> dispersion             -0.037803593732 Eh    ::
         :: repulsion energy           0.757869614494 Eh    ::
         :: add. restraining           0.000000000000 Eh    ::
         :: total charge              -0.000000000000 e     ::
         :::::::::::::::::::::::::::::::::::::::::::::::::::::

           -------------------------------------------------
          |                Property Printout                |
           -------------------------------------------------

    * Orbital Energies and Occupations

         #    Occupation            Energy/Eh            Energy/eV
      -------------------------------------------------------------
         1        2.0000           -0.6897050             -18.7678
       ...           ...                  ...                  ...
        35        2.0000           -0.4624562             -12.5841
        36        2.0000           -0.4548027             -12.3758
        37        2.0000           -0.4529656             -12.3258
        38        2.0000           -0.4485111             -12.2046
        39        2.0000           -0.4461796             -12.1412
        40        2.0000           -0.4427671             -12.0483
        41        2.0000           -0.4299003             -11.6982
        42        2.0000           -0.4213489             -11.4655
        43        2.0000           -0.4120924             -11.2136
        44        2.0000           -0.3937963             -10.7157
        45        2.0000           -0.3846383             -10.4665
        46        2.0000           -0.3765788             -10.2472
        47        2.0000           -0.3580627              -9.7434 (HOMO)
        48                         -0.2215534              -6.0288 (LUMO)
        49                         -0.2118987              -5.7661
        50                         -0.1874855              -5.1017
        51                         -0.0864025              -2.3511
        52                         -0.0044931              -0.1223
        53                          0.0210535               0.5729
        54                          0.0624079               1.6982
        55                          0.0807081               2.1962
        56                          0.0931901               2.5358
        57                          0.1016573               2.7662
        58                          0.1090094               2.9663
       ...                                ...                  ...
        90                          0.6841712              18.6172
      -------------------------------------------------------------
                  HL-Gap            0.1365093 Eh            3.7146 eV
             Fermi-level           -0.2898080 Eh           -7.8861 eV

     #   Z          covCN         q      C6AA      α(0)
     1   6 C        3.757    -0.107    22.592     6.777
     2   6 C        2.970    -0.004    28.117     8.698
     3   6 C        2.924    -0.045    29.121     8.850
     4   6 C        2.916    -0.038    28.952     8.823
     5   6 C        2.927    -0.044    29.090     8.845
     6   6 C        2.965     0.013    27.724     8.637
     7   6 C        3.758    -0.112    22.695     6.792
     8   6 C        2.914     0.056    26.745     8.480
     9   7 N        2.696    -0.164    24.543     7.358
    10   6 C        2.746     0.268    22.466     7.761
    11   6 C        3.757    -0.025    21.078     6.546
    12   7 N        2.727    -0.188    25.071     7.437
    13   6 C        3.750     0.013    20.424     6.445
    14   6 C        3.752    -0.110    22.664     6.789
    15   6 C        3.756     0.014    20.385     6.438
    16   6 C        3.752    -0.110    22.674     6.791
    17   8 O        0.857    -0.440    22.494     6.359
    18   1 H        0.924     0.038     2.474     2.460
    19   1 H        0.925     0.045     2.388     2.417
    20   1 H        0.925     0.045     2.384     2.415
    21   1 H        0.926     0.030     2.584     2.514
    22   1 H        0.926     0.031     2.574     2.509
    23   1 H        0.926     0.034     2.530     2.488
    24   1 H        0.925     0.082     1.958     2.188
    25   1 H        0.925     0.039     2.456     2.451
    26   1 H        0.925     0.038     2.478     2.461
    27   1 H        0.860     0.198     1.116     1.655
    28   1 H        0.923     0.046     2.371     2.408
    29   1 H        0.924     0.049     2.327     2.385
    30   1 H        0.924     0.034     2.534     2.489
    31   1 H        0.923     0.014     2.826     2.629
    32   1 H        0.925     0.040     2.445     2.445
    33   1 H        0.925     0.043     2.411     2.428
    34   1 H        0.925     0.042     2.429     2.437
    35   1 H        0.924     0.037     2.490     2.468
    36   1 H        0.922     0.010     2.896     2.661
    37   1 H        0.925     0.041     2.439     2.442
    38   1 H        0.925     0.044     2.391     2.418
    39   1 H        0.925     0.043     2.404     2.425

 Mol. C6AA /au·bohr⁶  :      13880.670136
 Mol. C8AA /au·bohr⁸  :     311503.794257
 Mol. α(0) /au        :        181.016948


Wiberg/Mayer (AO) data.
largest (>0.10) Wiberg bond orders for each atom

 ---------------------------------------------------------------------------
     #   Z sym  total        # sym  WBO       # sym  WBO       # sym  WBO
 ---------------------------------------------------------------------------
     1   6 C    3.996 --     2 C    1.024    19 H    0.984    20 H    0.975
                            18 H    0.968
     2   6 C    3.987 --     3 C    1.426     8 C    1.355     1 C    1.024
                             5 C    0.103
     3   6 C    3.990 --     4 C    1.429     2 C    1.426    21 H    0.969
                             6 C    0.101
     4   6 C    3.991 --     5 C    1.446     3 C    1.429    22 H    0.971
     5   6 C    3.991 --     4 C    1.446     6 C    1.407    23 H    0.968
                             2 C    0.103
     6   6 C    3.988 --     5 C    1.407     8 C    1.364     7 C    1.033
                             3 C    0.101
     7   6 C    3.994 --     6 C    1.033    26 H    0.985    25 H    0.971
                            24 H    0.954
     8   6 C    3.960 --     6 C    1.364     2 C    1.355     9 N    1.038
     9   7 N    3.488 --    10 C    1.249     8 C    1.038    27 H    0.896
                            17 O    0.184
    10   6 C    3.954 --    17 O    1.680     9 N    1.249    11 C    0.943
    11   6 C    3.982 --    12 N    1.009    28 H    0.955    29 H    0.952
                            10 C    0.943
    12   7 N    3.159 --    11 C    1.009    15 C    0.999    13 C    0.998
    13   6 C    3.985 --    14 C    1.014    12 N    0.998    30 H    0.972
                            31 H    0.969
    14   6 C    3.996 --    13 C    1.014    33 H    0.985    34 H    0.985
                            32 H    0.983
    15   6 C    3.985 --    16 C    1.016    12 N    0.999    35 H    0.971
                            36 H    0.965
    16   6 C    3.995 --    15 C    1.016    39 H    0.986    37 H    0.985
                            38 H    0.983
    17   8 O    2.006 --    10 C    1.680     9 N    0.184
    18   1 H    0.999 --     1 C    0.968
    19   1 H    0.998 --     1 C    0.984
    20   1 H    0.998 --     1 C    0.975
    21   1 H    0.998 --     3 C    0.969
    22   1 H    0.999 --     4 C    0.971
    23   1 H    0.998 --     5 C    0.968
    24   1 H    0.993 --     7 C    0.954
    25   1 H    0.998 --     7 C    0.971
    26   1 H    0.998 --     7 C    0.985
    27   1 H    0.961 --     9 N    0.896
    28   1 H    0.997 --    11 C    0.955
    29   1 H    0.997 --    11 C    0.952
    30   1 H    0.999 --    13 C    0.972
    31   1 H    1.000 --    13 C    0.969
    32   1 H    0.998 --    14 C    0.983
    33   1 H    0.998 --    14 C    0.985
    34   1 H    0.998 --    14 C    0.985
    35   1 H    0.998 --    15 C    0.971
    36   1 H    1.000 --    15 C    0.965
    37   1 H    0.998 --    16 C    0.985
    38   1 H    0.998 --    16 C    0.983
    39   1 H    0.998 --    16 C    0.986
 ---------------------------------------------------------------------------

Topologies differ in total number of bonds
Writing topology from bond orders to xtbtopo.mol

molecular dipole:
                 x           y           z       tot (Debye)
 q only:       -0.698       1.317       0.454
   full:       -1.187       1.411       0.285       4.742
molecular quadrupole (traceless):
                xx          xy          yy          xz          yz          zz
 q only:        3.220       1.638      -4.844       2.331      -7.189       1.624
  q+dip:        7.114       4.701      -7.299       4.696      -8.869       0.185
   full:        5.801       3.848      -7.629       3.535      -8.187       1.828

           -------------------------------------------------
          |                Geometry Summary                 |
           -------------------------------------------------

      molecular mass/u    :      234.3378104
   center of mass at/Å    :        0.3773042      -0.2057350      -0.0390930
  moments of inertia/u·Å² :        0.6859816E+03   0.1623919E+04   0.1949432E+04
rotational constants/cm⁻¹ :        0.2457447E-01   0.1038083E-01   0.8647458E-02

 * 36 selected distances

     #   Z          #   Z                                           value/Å
     2   6 C        3   6 C                                       1.3851465
     3   6 C        4   6 C                                       1.3833945
     4   6 C        5   6 C                                       1.3812585
     5   6 C        6   6 C                                       1.3893450
     2   6 C        8   6 C                                       1.4003072
     6   6 C        8   6 C                                       1.3974091
     8   6 C        9   7 N                                       1.4088020
     9   7 N       10   6 C                                       1.3472993
    11   6 C       12   7 N                                       1.4529630
    12   7 N       13   6 C                                       1.4573331
    13   6 C       14   6 C                                       1.5265584 (max)
    12   7 N       15   6 C                                       1.4561935
    15   6 C       16   6 C                                       1.5234135
    10   6 C       17   8 O                                       1.2131931
     1   6 C       18   1 H                                       1.0915978
     1   6 C       19   1 H                                       1.0869296
     1   6 C       20   1 H                                       1.0893185
     3   6 C       21   1 H                                       1.0805085
     4   6 C       22   1 H                                       1.0797923
     5   6 C       23   1 H                                       1.0803546
     7   6 C       24   1 H                                       1.0893735
     7   6 C       25   1 H                                       1.0897145
     7   6 C       26   1 H                                       1.0869769
     9   7 N       27   1 H                                       1.0177649 (min)
    11   6 C       28   1 H                                       1.0983222
    11   6 C       29   1 H                                       1.0943909
    13   6 C       30   1 H                                       1.0924151
    13   6 C       31   1 H                                       1.1021220
    14   6 C       32   1 H                                       1.0867430
    14   6 C       33   1 H                                       1.0870178
    14   6 C       34   1 H                                       1.0869072
    15   6 C       35   1 H                                       1.0918839
    15   6 C       36   1 H                                       1.1048631
    16   6 C       37   1 H                                       1.0875143
    16   6 C       38   1 H                                       1.0867154
[...]
     e01493. DOI: 10.1002/wcms.1493
   
   for GFN2-xTB:
   * C. Bannwarth, S. Ehlert and S. Grimme., J. Chem. Theory Comput., 2019,
     15, 1652-1671. DOI: 10.1021/acs.jctc.8b01176
   for GFN1-xTB:
   * S. Grimme, C. Bannwarth, P. Shushkov, J. Chem. Theory Comput., 2017,
     13, 1989-2009. DOI: 10.1021/acs.jctc.7b00118
   for GFN0-xTB:
   * P. Pracht, E. Caldeweyher, S. Ehlert, S. Grimme, ChemRxiv, 2019, preprint.
     DOI: 10.26434/chemrxiv.8326202.v1
   for GFN-FF:
   * S. Spicher and S. Grimme, Angew. Chem. Int. Ed., 2020, 59, 15665-15673.
     DOI: 10.1002/anie.202004239
   
   for ALPB and GBSA implicit solvation:
   * S. Ehlert, M. Stahn, S. Spicher, S. Grimme, J. Chem. Theory Comput.,
     2021, 17, 4250-4261. DOI: 10.1021/acs.jctc.1c00471
   
   for ddCOSMO and CPCM-X implicit solvation:
   * M. Stahn, S. Ehlert, S. Grimme, J. Phys. Chem. A,
     2023, XX, XXXX-XXXX. DOI: 10.1021/acs.jpca.3c04382
   
   for DFT-D4:
   * E. Caldeweyher, C. Bannwarth and S. Grimme, J. Chem. Phys., 2017,
     147, 034112. DOI: 10.1063/1.4993215
   * E. Caldeweyher, S. Ehlert, A. Hansen, H. Neugebauer, S. Spicher,
     C. Bannwarth and S. Grimme, J. Chem. Phys., 2019, 150, 154122.
     DOI: 10.1063/1.5090222
   * E. Caldeweyher, J.-M. Mewes, S. Ehlert and S. Grimme, Phys. Chem. Chem. Phys.
     2020, 22, 8499-8512. DOI: 10.1039/D0CP00502A
   
   for sTDA-xTB:
   * S. Grimme and C. Bannwarth, J. Chem. Phys., 2016, 145, 054103.
     DOI: 10.1063/1.4959605
   
   in the mass-spec context:
   * V. Asgeirsson, C. Bauer and S. Grimme, Chem. Sci., 2017, 8, 4879.
     DOI: 10.1039/c7sc00601b
   * J. Koopman and S. Grimme, ACS Omega 2019, 4, 12, 15120-15133.
     DOI: 10.1021/acsomega.9b02011
   
   for metadynamics refer to:
   * S. Grimme, J. Chem. Theory Comput., 2019, 155, 2847-2862
     DOI: 10.1021/acs.jctc.9b00143
   
   for SPH calculations refer to:
   * S. Spicher and S. Grimme, J. Chem. Theory Comput., 2021, 17, 1701-1714
     DOI: 10.1021/acs.jctc.0c01306
   
   for ONIOM refer to:
   * C. Plett, A. Katbashev, S. Ehlert, S. Grimme, M. Bursch,
     Phys. Chem. Chem. Phys., 2023, 25, 17860-17868. DOI: 10.1039/D3CP02178E
   
   for DIPRO refer to:
   * J. Kohn, N. Gildemeister, S. Grimme, D. Fazzi, A. Hansen,
     J. Chem. Phys., 2023, just accepted.
   
   for PTB refer to:
   * S. Grimme, M. Mueller, A. Hansen, J. Chem. Phys., 2023, 158, 124111.
     DOI: 10.1063/5.0137838
   
   with help from (in alphabetical order)
   P. Atkinson, C. Bannwarth, F. Bohle, G. Brandenburg, E. Caldeweyher
   M. Checinski, S. Dohm, S. Ehlert, S. Ehrlich, I. Gerasimov, C. Hölzer
   A. Katbashev, J. Kohn, J. Koopman, C. Lavigne, S. Lehtola, F. März, M. Müller,
   F. Musil, H. Neugebauer, J. Pisarek, C. Plett, P. Pracht, F. Pultar,
   J. Seibert, P. Shushkov, S. Spicher, M. Stahn, M. Steiner, T. Strunk,
   J. Stückrath, T. Rose, and J. Unsleber
   
 * started run on 2025/05/15 at 16:05:30.521     
   ID    Z sym.   atoms
    1    6 C      1-8, 10, 11, 13-16
    2    7 N      9, 12
    3    8 O      17
    4    1 H      18-39

           -------------------------------------------------
          |                Calculation Setup                |
           -------------------------------------------------

          program call               : xtb /rds/general/user/hgt20/home/callum/QDESCP/Lidocaine_rdkit_conf_10/Lidocaine_rdkit_conf_10.xyz --acc 1 --gfn 2 --chrg 0 --uhf 2 --etemp 300 --input /rds/general/user/hgt20/home/callum/QDESCP/Lidocaine_rdkit_conf_10/Lidocaine_rdkit_conf_10_xtb.inp -P 1
          hostname                   : login-c
          coordinate file            : /rds/general/user/hgt20/home/callum/QDESCP/Lidocaine_rdkit_conf_10/Lidocaine_rdkit_conf_10.xyz
          omp threads                :                     1


           -------------------------------------------------
          |                 G F N 2 - x T B                 |
           -------------------------------------------------

        Reference                      10.1021/acs.jctc.8b01176
      * Hamiltonian:
        H0-scaling (s, p, d)           1.850000    2.230000    2.230000
        zeta-weighting                 0.500000
      * Dispersion:
        s8                             2.700000
        a1                             0.520000
        a2                             5.000000
        s9                             5.000000
      * Repulsion:
        kExp                           1.500000    1.000000
        rExp                           1.000000
      * Coulomb:
        alpha                          2.000000
        third order                    shell-resolved
        anisotropic                    true
        a3                             3.000000
        a5                             4.000000
        cn-shift                       1.200000
        cn-exp                         4.000000
        max-rad                        5.000000


          ...................................................
          :                      SETUP                      :
          :.................................................:
          :  # basis functions                  90          :
          :  # atomic orbitals                  90          :
          :  # shells                           56          :
          :  # electrons                        94          :
          :  max. iterations                   250          :
          :  Hamiltonian                  GFN2-xTB          :
          :  restarted?                      false          :
          :  GBSA solvation                  false          :
          :  PC potential                    false          :
          :  electronic temp.          300.0000000     K    :
          :  accuracy                    1.0000000          :
          :  -> integral cutoff          0.2500000E+02      :
          :  -> integral neglect         0.1000000E-07      :
          :  -> SCF convergence          0.1000000E-05 Eh   :
          :  -> wf. convergence          0.1000000E-03 e    :
          :  Broyden damping             0.4000000          :
          :  net charge                          0          :
          :  unpaired electrons                  2          :
          ...................................................

 iter      E             dE          RMSdq      gap      omega  full diag
   1    -51.4579715 -0.514580E+02  0.314E+00    0.12       0.0  T
   2    -51.4105785  0.473930E-01  0.321E+00    1.19       1.0  T
   3    -51.5456207 -0.135042E+00  0.204E+00    0.16       1.0  T
   4    -51.5045189  0.411018E-01  0.232E+00    1.09       1.0  T
   5    -51.6569151 -0.152396E+00  0.130E+00    0.41       1.0  T
   6    -51.7199414 -0.630263E-01  0.737E-01    0.33       1.0  T
   7    -51.7355008 -0.155595E-01  0.461E-01    0.31       1.0  T
   8    -51.7388094 -0.330857E-02  0.332E-01    0.25       1.0  T
   9    -51.7403317 -0.152224E-02  0.175E-01    0.21       1.0  T
  10    -51.7406818 -0.350129E-03  0.151E-01    0.27       1.0  T
  11    -51.7420906 -0.140879E-02  0.362E-02    0.25       1.0  T
  12    -51.7420649  0.256643E-04  0.340E-02    0.25       1.0  T
  13    -51.7421373 -0.723827E-04  0.622E-03    0.24       2.6  T
  14    -51.7421381 -0.766445E-06  0.282E-03    0.24       5.7  T
  15    -51.7421383 -0.223905E-06  0.990E-04    0.24      16.2  T
  16    -51.7421383 -0.275170E-07  0.475E-04    0.24      33.7  T

   *** convergence criteria satisfied after 16 iterations ***

         #    Occupation            Energy/Eh            Energy/eV
      -------------------------------------------------------------
         1        2.0000           -0.6852281             -18.6460
       ...           ...                  ...                  ...
        42        2.0000           -0.4111591             -11.1882
        43        2.0000           -0.4038458             -10.9892
        44        2.0000           -0.4004548             -10.8969
        45        2.0000           -0.3775066             -10.2725
        46        1.9948           -0.3729377             -10.1482
        47        1.0052           -0.3629505              -9.8764
        48        0.9910           -0.2092624              -5.6943 (HOMO)
        49        0.0090           -0.2003276              -5.4512 (LUMO)
        50                         -0.1785935              -4.8598
        51                         -0.0737078              -2.0057
        52                         -0.0180961              -0.4924
        53                          0.0225603               0.6139
       ...                                ...                  ...
        90                          0.6927843              18.8516
      -------------------------------------------------------------
                  HL-Gap            0.0089348 Eh            0.2431 eV
             Fermi-level           -0.2863676 Eh           -7.7925 eV

 transition dipole moment (au) for excitation:          47          48
     X       Y       Z   
   1.1997   0.5076   0.5323  total (au/Debye):    1.407   3.577
 dE (eV)             :    4.182
 oscillator strength :  0.28697E+00

 SCC (total)                   0 d,  0 h,  0 min,  0.099 sec
 SCC setup                      ...        0 min,  0.000 sec (  0.284%)
 Dispersion                     ...        0 min,  0.000 sec (  0.378%)
 classical contributions        ...        0 min,  0.000 sec (  0.131%)
 integral evaluation            ...        0 min,  0.006 sec (  6.086%)
 iterations                     ...        0 min,  0.069 sec ( 69.901%)
 molecular gradient             ...        0 min,  0.018 sec ( 17.880%)
 printout                       ...        0 min,  0.005 sec (  5.334%)

         :::::::::::::::::::::::::::::::::::::::::::::::::::::
         ::                     SUMMARY                     ::
         :::::::::::::::::::::::::::::::::::::::::::::::::::::
         :: total energy             -50.983611775184 Eh    ::
         :: gradient norm              0.148420225155 Eh/a0 ::
         :: HOMO-LUMO gap              0.243127443782 eV    ::
         ::.................................................::
         :: SCC energy               -51.741481389679 Eh    ::
         :: -> isotropic ES            0.045533614332 Eh    ::
         :: -> anisotropic ES          0.007697430217 Eh    ::
         :: -> anisotropic XC          0.024945950646 Eh    ::
         :: -> dispersion             -0.037731684555 Eh    ::
         :: repulsion energy           0.757869614494 Eh    ::
         :: add. restraining           0.000000000000 Eh    ::
         :: total charge               0.000000000240 e     ::
         :::::::::::::::::::::::::::::::::::::::::::::::::::::

           -------------------------------------------------
          |                Property Printout                |
           -------------------------------------------------

    * Orbital Energies and Occupations

         #    Occupation            Energy/Eh            Energy/eV
      -------------------------------------------------------------
         1        2.0000           -0.6852281             -18.6460
       ...           ...                  ...                  ...
        36        2.0000           -0.4607683             -12.5381
        37        2.0000           -0.4560570             -12.4099
        38        2.0000           -0.4530549             -12.3283
        39        2.0000           -0.4435234             -12.0689
        40        2.0000           -0.4377481             -11.9117
        41        2.0000           -0.4226520             -11.5009
        42        2.0000           -0.4111591             -11.1882
        43        2.0000           -0.4038458             -10.9892
        44        2.0000           -0.4004548             -10.8969
        45        2.0000           -0.3775066             -10.2725
        46        1.9948           -0.3729377             -10.1482
        47        1.0052           -0.3629505              -9.8764
        48        0.9910           -0.2092624              -5.6943 (HOMO)
        49        0.0090           -0.2003276              -5.4512 (LUMO)
        50                         -0.1785935              -4.8598
        51                         -0.0737078              -2.0057
        52                         -0.0180961              -0.4924
        53                          0.0225603               0.6139
        54                          0.0493928               1.3440
        55                          0.0682613               1.8575
        56                          0.0933534               2.5403
        57                          0.0984110               2.6779
        58                          0.1031128               2.8058
        59                          0.1065623               2.8997
       ...                                ...                  ...
        90                          0.6927843              18.8516
      -------------------------------------------------------------
                  HL-Gap            0.0089348 Eh            0.2431 eV
             Fermi-level           -0.2863676 Eh           -7.7925 eV

     #   Z          covCN         q      C6AA      α(0)
     1   6 C        3.757    -0.105    22.556     6.771
     2   6 C        2.970    -0.016    28.407     8.742
     3   6 C        2.924    -0.043    29.074     8.842
     4   6 C        2.916    -0.051    29.257     8.870
     5   6 C        2.927    -0.055    29.370     8.887
     6   6 C        2.965     0.013    27.714     8.635
     7   6 C        3.758    -0.112    22.692     6.792
     8   6 C        2.914     0.041    27.085     8.534
     9   7 N        2.696    -0.143    24.102     7.291
    10   6 C        2.746     0.225    23.273     7.899
    11   6 C        3.757    -0.021    21.009     6.535
    12   7 N        2.727    -0.146    24.168     7.301
    13   6 C        3.750     0.008    20.512     6.459
    14   6 C        3.752    -0.112    22.696     6.794
    15   6 C        3.756     0.010    20.461     6.450
    16   6 C        3.752    -0.112    22.709     6.796
    17   8 O        0.857    -0.432    22.336     6.336
    18   1 H        0.924     0.031     2.568     2.506
    19   1 H        0.925     0.041     2.430     2.438
    20   1 H        0.925     0.040     2.451     2.448
    21   1 H        0.926     0.023     2.694     2.567
    22   1 H        0.926     0.019     2.745     2.591
    23   1 H        0.926     0.024     2.679     2.560
    24   1 H        0.925     0.090     1.881     2.145
    25   1 H        0.925     0.041     2.431     2.438
    26   1 H        0.925     0.039     2.469     2.457
    27   1 H        0.860     0.192     1.149     1.679
    28   1 H        0.923     0.051     2.306     2.375
    29   1 H        0.924     0.049     2.332     2.388
    30   1 H        0.924     0.043     2.412     2.429
    31   1 H        0.923     0.026     2.640     2.541
    32   1 H        0.925     0.043     2.411     2.428
    33   1 H        0.925     0.048     2.346     2.395
    34   1 H        0.925     0.046     2.370     2.408
    35   1 H        0.924     0.043     2.413     2.429
    36   1 H        0.922     0.021     2.714     2.576
    37   1 H        0.925     0.045     2.387     2.416
    38   1 H        0.925     0.051     2.308     2.376
    39   1 H        0.925     0.048     2.346     2.395

 Mol. C6AA /au·bohr⁶  :      13862.227645
 Mol. C8AA /au·bohr⁸  :     311434.579386
 Mol. α(0) /au        :        180.920946


Wiberg/Mayer (AO) data.
largest (>0.10) Wiberg bond orders for each atom

 ---------------------------------------------------------------------------
     #   Z sym  total        # sym  WBO       # sym  WBO       # sym  WBO
 ---------------------------------------------------------------------------
     1   6 C    3.996 --     2 C    1.026    19 H    0.985    20 H    0.973
                            18 H    0.966
     2   6 C    3.951 --     3 C    1.554     8 C    1.127     1 C    1.026
     3   6 C    3.966 --     2 C    1.554     4 C    1.258    21 H    0.969
     4   6 C    3.811 --     5 C    1.264     3 C    1.258    22 H    0.972
     5   6 C    3.968 --     6 C    1.532     4 C    1.264    23 H    0.968
     6   6 C    3.956 --     5 C    1.532     8 C    1.139     7 C    1.043
     7   6 C    3.994 --     6 C    1.043    26 H    0.985    25 H    0.965
                            24 H    0.937
     8   6 C    3.807 --     9 N    1.146     6 C    1.139     2 C    1.127
                            10 C    0.109
     9   7 N    3.507 --    10 C    1.152     8 C    1.146    27 H    0.894
                            17 O    0.129
    10   6 C    3.908 --    17 O    1.558     9 N    1.152    11 C    0.906
                             8 C    0.109
    11   6 C    3.963 --    12 N    1.024    29 H    0.954    28 H    0.950
                            10 C    0.906
    12   7 N    3.253 --    11 C    1.024    15 C    0.996    13 C    0.995
    13   6 C    3.978 --    14 C    1.013    12 N    0.995    30 H    0.971
                            31 H    0.963
    14   6 C    3.993 --    13 C    1.013    34 H    0.985    33 H    0.985
                            32 H    0.983
    15   6 C    3.980 --    16 C    1.016    12 N    0.996    35 H    0.970
                            36 H    0.962
    16   6 C    3.993 --    15 C    1.016    39 H    0.985    37 H    0.984
                            38 H    0.982
    17   8 O    2.050 --    10 C    1.558     9 N    0.129
    18   1 H    0.998 --     1 C    0.966
    19   1 H    0.998 --     1 C    0.985
    20   1 H    0.998 --     1 C    0.973
    21   1 H    0.998 --     3 C    0.969
    22   1 H    0.999 --     4 C    0.972
    23   1 H    0.998 --     5 C    0.968
    24   1 H    0.991 --     7 C    0.937
    25   1 H    0.998 --     7 C    0.965
    26   1 H    0.998 --     7 C    0.985
    27   1 H    0.963 --     9 N    0.894
    28   1 H    0.990 --    11 C    0.950
    29   1 H    0.993 --    11 C    0.954
    30   1 H    0.998 --    13 C    0.971
    31   1 H    0.990 --    13 C    0.963
    32   1 H    0.998 --    14 C    0.983
    33   1 H    0.997 --    14 C    0.985
    34   1 H    0.998 --    14 C    0.985
    35   1 H    0.998 --    15 C    0.970
    36   1 H    0.992 --    15 C    0.962
    37   1 H    0.998 --    16 C    0.984
    38   1 H    0.997 --    16 C    0.982
    39   1 H    0.998 --    16 C    0.985
 ---------------------------------------------------------------------------

Topologies differ in total number of bonds
Writing topology from bond orders to xtbtopo.mol

molecular dipole:
                 x           y           z       tot (Debye)
 q only:       -1.686       1.268       0.307
   full:       -2.176       1.384       0.148       6.565
molecular quadrupole (traceless):
                xx          xy          yy          xz          yz          zz
 q only:        1.582       0.848      -4.049       1.752      -7.527       2.467
  q+dip:        5.713       3.977      -6.778       3.986      -8.971       1.065
   full:        4.292       3.155      -6.779       2.969      -8.371       2.487


           -------------------------------------------------
          | TOTAL ENERGY              -50.983611775184 Eh   |
          | GRADIENT NORM               0.148420225155 Eh/α |
          | HOMO-LUMO GAP               0.243127443782 eV   |
           -------------------------------------------------

------------------------------------------------------------------------
 * finished run on 2025/05/15 at 16:05:30.632     
------------------------------------------------------------------------
 total:
 * wall-time:     0 d,  0 h,  0 min,  0.110 sec
 *  cpu-time:     0 d,  0 h,  0 min,  0.064 sec
 * ratio c/w:     0.579 speedup
 SCF:
 * wall-time:     0 d,  0 h,  0 min,  0.099 sec
 *  cpu-time:     0 d,  0 h,  0 min,  0.054 sec
 * ratio c/w:     0.543 speedup


