42
 energy: -62.120758412237 gnorm: 0.000416039981 xtb: 6.7.1 (edcfbbe)
N            2.52280899984026        0.94408196788093        1.26996015794224
C            2.08316687915120       -0.29635137891038        0.66775884754779
C            0.57296381422134       -0.29623523265085        0.53889280108063
C           -0.20721702174542       -0.72615350585433        1.60436533156005
C           -1.58564711173674       -0.70101786093051        1.52286525921258
C           -2.22103482654986       -0.23650536182167        0.37413969871388
C           -3.68858679119605       -0.19972840919534        0.28966291810876
C           -4.33898245629654        0.90040569959515       -0.26409552227596
C           -5.71887961831032        0.93778813853101       -0.33702662359633
C           -6.47033492502508       -0.12532037179497        0.13505228571039
C           -5.83358571470495       -1.22562406864247        0.68414578882730
C           -4.45397463666324       -1.26200689596193        0.76448411703833
C           -1.43423601370498        0.19483113448242       -0.69090508640770
C           -0.05549498204218        0.16312044875279       -0.61132613287321
C            2.75457683817621       -0.55171770984448       -0.66723413031610
C            3.31726899868357        0.47144681757112       -1.41692785715567
C            3.90278928931974        0.19767524727095       -2.64139888927148
C            3.92704956630760       -1.09698178333539       -3.12887232228594
C            3.36251871559759       -2.12112505943620       -2.38666362179168
C            2.78037481994319       -1.84975848506115       -1.16256790875539
C            3.65487949125502        1.10376449193808        2.01924559883540
C            3.72417351598991        2.43182550520256        2.32204908889903
N            2.66828020216039        3.08717714509757        1.77357282990627
C            1.97393452734152        2.17639011486763        1.15025657351368
H            2.37155269826454       -1.10341085506523        1.35607567821333
H            0.26904155422284       -1.07930275508895        2.50827276236572
H           -2.17769783922175       -1.02450739625991        2.36610567840241
H           -3.75788909170850        1.73947116576808       -0.61809634065183
H           -6.21078158321191        1.80053090961888       -0.76195290112215
H           -7.54824825551747       -0.09620391467136        0.07577844287678
H           -6.41494272879642       -2.05922324797202        1.05030103812035
H           -3.96130678669385       -2.12946123602765        1.17937153281012
H           -1.90827949769137        0.54222300532263       -1.59699964173476
H            0.53782583458021        0.49503521324923       -1.45088030585001
H            3.30322314289840        1.48666002687129       -1.04695905166291
H            4.33986658278924        1.00150636665740       -3.21492666547897
H            4.38447046387442       -1.30836352310845       -4.08391855344696
H            3.37800520820299       -3.13383809273296       -2.76124830001297
H            2.33810295032142       -2.64869470481491       -0.58412650254053
H            4.29338598743773        0.27964325300573        2.26393516226848
H            4.46095848415305        2.95575916302361        2.89693076931695
H            1.06560131608393        2.36219603447339        0.61310399595849
