----- Optimization -----
      -----------------------------------------------------------      
     |                   =====================                   |     
     |                           x T B                           |     
     |                   =====================                   |     
     |                         S. Grimme                         |     
     |          Mulliken Center for Theoretical Chemistry        |     
     |                    University of Bonn                     |     
      -----------------------------------------------------------      

   * xtb version 6.7.1 (edcfbbe) compiled by 'conda@3ef47c1a292c' on 2024-11-25

   xtb is free software: you can redistribute it and/or modify it under
   the terms of the GNU Lesser General Public License as published by
   the Free Software Foundation, either version 3 of the License, or
   (at your option) any later version.
   
   xtb is distributed in the hope that it will be useful,
   but WITHOUT ANY WARRANTY; without even the implied warranty of
   MERCHANTABILITY or FITNESS FOR A PARTICULAR PURPOSE.  See the
   GNU Lesser General Public License for more details.
   
   Cite this work as:
   * C. Bannwarth, E. Caldeweyher, S. Ehlert, A. Hansen, P. Pracht,
     J. Seibert, S. Spicher, S. Grimme, WIREs Comput. Mol. Sci., 2020, 11,
     e01493. DOI: 10.1002/wcms.1493
   
   for GFN2-xTB:
   * C. Bannwarth, S. Ehlert and S. Grimme., J. Chem. Theory Comput., 2019,
     15, 1652-1671. DOI: 10.1021/acs.jctc.8b01176
   for GFN1-xTB:
   * S. Grimme, C. Bannwarth, P. Shushkov, J. Chem. Theory Comput., 2017,
     13, 1989-2009. DOI: 10.1021/acs.jctc.7b00118
   for GFN0-xTB:
   * P. Pracht, E. Caldeweyher, S. Ehlert, S. Grimme, ChemRxiv, 2019, preprint.
     DOI: 10.26434/chemrxiv.8326202.v1
   for GFN-FF:
   * S. Spicher and S. Grimme, Angew. Chem. Int. Ed., 2020, 59, 15665-15673.
     DOI: 10.1002/anie.202004239
   
   for ALPB and GBSA implicit solvation:
   * S. Ehlert, M. Stahn, S. Spicher, S. Grimme, J. Chem. Theory Comput.,
     2021, 17, 4250-4261. DOI: 10.1021/acs.jctc.1c00471
   
   for ddCOSMO and CPCM-X implicit solvation:
   * M. Stahn, S. Ehlert, S. Grimme, J. Phys. Chem. A,
     2023, XX, XXXX-XXXX. DOI: 10.1021/acs.jpca.3c04382
   
   for DFT-D4:
   * E. Caldeweyher, C. Bannwarth and S. Grimme, J. Chem. Phys., 2017,
     147, 034112. DOI: 10.1063/1.4993215
   * E. Caldeweyher, S. Ehlert, A. Hansen, H. Neugebauer, S. Spicher,
     C. Bannwarth and S. Grimme, J. Chem. Phys., 2019, 150, 154122.
     DOI: 10.1063/1.5090222
   * E. Caldeweyher, J.-M. Mewes, S. Ehlert and S. Grimme, Phys. Chem. Chem. Phys.
     2020, 22, 8499-8512. DOI: 10.1039/D0CP00502A
   
   for sTDA-xTB:
   * S. Grimme and C. Bannwarth, J. Chem. Phys., 2016, 145, 054103.
     DOI: 10.1063/1.4959605
   
   in the mass-spec context:
   * V. Asgeirsson, C. Bauer and S. Grimme, Chem. Sci., 2017, 8, 4879.
     DOI: 10.1039/c7sc00601b
   * J. Koopman and S. Grimme, ACS Omega 2019, 4, 12, 15120-15133.
     DOI: 10.1021/acsomega.9b02011
   
   for metadynamics refer to:
   * S. Grimme, J. Chem. Theory Comput., 2019, 155, 2847-2862
     DOI: 10.1021/acs.jctc.9b00143
   
   for SPH calculations refer to:
   * S. Spicher and S. Grimme, J. Chem. Theory Comput., 2021, 17, 1701-1714
     DOI: 10.1021/acs.jctc.0c01306
   
   for ONIOM refer to:
   * C. Plett, A. Katbashev, S. Ehlert, S. Grimme, M. Bursch,
     Phys. Chem. Chem. Phys., 2023, 25, 17860-17868. DOI: 10.1039/D3CP02178E
   
   for DIPRO refer to:
   * J. Kohn, N. Gildemeister, S. Grimme, D. Fazzi, A. Hansen,
     J. Chem. Phys., 2023, just accepted.
   
   for PTB refer to:
   * S. Grimme, M. Mueller, A. Hansen, J. Chem. Phys., 2023, 158, 124111.
     DOI: 10.1063/5.0137838
   
   with help from (in alphabetical order)
   P. Atkinson, C. Bannwarth, F. Bohle, G. Brandenburg, E. Caldeweyher
   M. Checinski, S. Dohm, S. Ehlert, S. Ehrlich, I. Gerasimov, C. Hölzer
   A. Katbashev, J. Kohn, J. Koopman, C. Lavigne, S. Lehtola, F. März, M. Müller,
   F. Musil, H. Neugebauer, J. Pisarek, C. Plett, P. Pracht, F. Pultar,
   J. Seibert, P. Shushkov, S. Spicher, M. Stahn, M. Steiner, T. Strunk,
   J. Stückrath, T. Rose, and J. Unsleber
   
 * started run on 2025/05/15 at 16:33:03.434     
   ID    Z sym.   atoms
    1    7 N      1, 23
    2    6 C      2-22, 24
    3    1 H      25-42

           -------------------------------------------------
          |                Calculation Setup                |
           -------------------------------------------------

          program call               : xtb /rds/general/user/hgt20/home/callum/QDESCP/Bifonazole_rdkit_conf_4/Bifonazole_rdkit_conf_4.xyz --opt normal --acc 1 --gfn 2 --chrg 0 --uhf 0 -P 1
          hostname                   : login-c
          coordinate file            : /rds/general/user/hgt20/home/callum/QDESCP/Bifonazole_rdkit_conf_4/Bifonazole_rdkit_conf_4.xyz
          omp threads                :                     1


           -------------------------------------------------
          |                 G F N 2 - x T B                 |
           -------------------------------------------------

        Reference                      10.1021/acs.jctc.8b01176
      * Hamiltonian:
        H0-scaling (s, p, d)           1.850000    2.230000    2.230000
        zeta-weighting                 0.500000
      * Dispersion:
        s8                             2.700000
        a1                             0.520000
        a2                             5.000000
        s9                             5.000000
      * Repulsion:
        kExp                           1.500000    1.000000
        rExp                           1.000000
      * Coulomb:
        alpha                          2.000000
        third order                    shell-resolved
        anisotropic                    true
        a3                             3.000000
        a5                             4.000000
        cn-shift                       1.200000
        cn-exp                         4.000000
        max-rad                        5.000000


          ...................................................
          :                      SETUP                      :
          :.................................................:
          :  # basis functions                 114          :
          :  # atomic orbitals                 114          :
          :  # shells                           66          :
          :  # electrons                       116          :
          :  max. iterations                   250          :
          :  Hamiltonian                  GFN2-xTB          :
          :  restarted?                      false          :
          :  GBSA solvation                  false          :
          :  PC potential                    false          :
          :  electronic temp.          300.0000000     K    :
          :  accuracy                    1.0000000          :
          :  -> integral cutoff          0.2500000E+02      :
          :  -> integral neglect         0.1000000E-07      :
          :  -> SCF convergence          0.1000000E-05 Eh   :
          :  -> wf. convergence          0.1000000E-03 e    :
          :  Broyden damping             0.4000000          :
          :  net charge                          0          :
          :  unpaired electrons                  0          :
          ...................................................

 iter      E             dE          RMSdq      gap      omega  full diag
   1    -63.0972002 -0.630972E+02  0.439E+00    3.75       0.0  T
   2    -63.1634809 -0.662807E-01  0.273E+00    3.12       1.0  T
   3    -63.1491814  0.142996E-01  0.110E+00    3.33       1.0  T
   4    -63.1673854 -0.182041E-01  0.404E-01    3.14       1.0  T
   5    -63.1737015 -0.631608E-02  0.892E-02    3.16       1.0  T
   6    -63.1738619 -0.160427E-03  0.375E-02    3.15       1.0  T
   7    -63.1738992 -0.372222E-04  0.184E-02    3.15       1.0  T
   8    -63.1739013 -0.208724E-05  0.609E-03    3.15       2.5  T
   9    -63.1739023 -0.104363E-05  0.143E-03    3.15      10.8  T
  10    -63.1739023 -0.413986E-07  0.672E-04    3.15      23.0  T
  11    -63.1739024 -0.128971E-07  0.251E-04    3.15      61.4  T

   *** convergence criteria satisfied after 11 iterations ***

         #    Occupation            Energy/Eh            Energy/eV
      -------------------------------------------------------------
         1        2.0000           -0.6732080             -18.3189
       ...           ...                  ...                  ...
        52        2.0000           -0.4120479             -11.2124
        53        2.0000           -0.4094703             -11.1423
        54        2.0000           -0.4060766             -11.0499
        55        2.0000           -0.4044469             -11.0056
        56        2.0000           -0.3933541             -10.7037
        57        2.0000           -0.3776871             -10.2774
        58        2.0000           -0.3682394             -10.0203 (HOMO)
        59                         -0.2525847              -6.8732 (LUMO)
        60                         -0.2377438              -6.4693
        61                         -0.2369730              -6.4484
        62                         -0.2346557              -6.3853
        63                         -0.2298341              -6.2541
       ...                                ...                  ...
       114                          0.6467629              17.5993
      -------------------------------------------------------------
                  HL-Gap            0.1156547 Eh            3.1471 eV
             Fermi-level           -0.3104120 Eh           -8.4467 eV

 SCC (total)                   0 d,  0 h,  0 min,  0.057 sec
 SCC setup                      ...        0 min,  0.000 sec (  0.664%)
 Dispersion                     ...        0 min,  0.001 sec (  0.902%)
 classical contributions        ...        0 min,  0.000 sec (  0.259%)
 integral evaluation            ...        0 min,  0.008 sec ( 13.657%)
 iterations                     ...        0 min,  0.025 sec ( 43.438%)
 molecular gradient             ...        0 min,  0.023 sec ( 40.763%)
 printout                       ...        0 min,  0.000 sec (  0.304%)

         :::::::::::::::::::::::::::::::::::::::::::::::::::::
         ::                     SUMMARY                     ::
         :::::::::::::::::::::::::::::::::::::::::::::::::::::
         :: total energy             -62.112013689226 Eh    ::
         :: gradient norm              0.053341262595 Eh/a0 ::
         :: HOMO-LUMO gap              3.147123322193 eV    ::
         ::.................................................::
         :: SCC energy               -63.173693708667 Eh    ::
         :: -> isotropic ES            0.013722932557 Eh    ::
         :: -> anisotropic ES          0.007680534534 Eh    ::
         :: -> anisotropic XC          0.045844153413 Eh    ::
         :: -> dispersion             -0.048588070717 Eh    ::
         :: repulsion energy           1.061680019441 Eh    ::
         :: add. restraining           0.000000000000 Eh    ::
         :: total charge              -0.000000000000 e     ::
         :::::::::::::::::::::::::::::::::::::::::::::::::::::

      ----------------------------------------------------------- 
     |                   =====================                   |
     |                        A N C O P T                        |
     |                   =====================                   |
     |               Approximate Normal Coordinate               |
     |                Rational Function Optimizer                |
      ----------------------------------------------------------- 
      ----------------------------------------------------------- 
     |                   =====================                   |
     |                        A N C O P T                        |
     |                   =====================                   |
     |               Approximate Normal Coordinate               |
     |                Rational Function Optimizer                |
      ----------------------------------------------------------- 

          ...................................................
          :                      SETUP                      :
          :.................................................:
          :   optimization level            normal          :
          :   max. optcycles                   200          :
          :   ANC micro-cycles                  20          :
          :   degrees of freedom               120          :
          :.................................................:
          :   RF solver                   davidson          :
          :   write xtbopt.log                true          :
          :   linear?                        false          :
          :   energy convergence         0.5000000E-05 Eh   :
          :   grad. convergence          0.1000000E-02 Eh/α :
          :   maxmium RF displ.          1.0000000          :
          :   Hlow (freq-cutoff)         0.1000000E-01      :
          :   Hmax (freq-cutoff)         5.0000000          :
          :   S6 in model hess.         20.0000000          :
          ...................................................

generating ANC from exact Hessian ...
Using Lindh-Hessian (1995)
 Shifting diagonal of input Hessian by    9.7419178185425385E-003
 Lowest  eigenvalues of input Hessian
    0.000000    0.000000    0.000000    0.000000    0.000000    0.000000
    0.010000    0.010370    0.010433    0.010872    0.011079    0.011688
    0.011916    0.012157    0.012618    0.016304    0.017488    0.020935
 Highest eigenvalues
    1.924704    1.934823    1.936967    1.962334    2.004485    2.091054


........................................................................
.............................. CYCLE    1 ..............................
........................................................................

 iter      E             dE          RMSdq      gap      omega  full diag
   1    -63.1739024 -0.631739E+02  0.969E-05    3.15       0.0  T
   2    -63.1739024 -0.141981E-09  0.632E-05    3.15     244.1  T
   3    -63.1739024 -0.143565E-09  0.302E-05    3.15     510.5  T
     SCC iter.                  ...        0 min,  0.007 sec
     gradient                   ...        0 min,  0.023 sec
 * total energy  :   -62.1120137 Eh     change       -0.6075425E-09 Eh
   gradient norm :     0.0533404 Eh/α   predicted     0.0000000E+00 (-100.00%)
   displ. norm   :     0.3112440 α      lambda       -0.9110739E-02
   maximum displ.:     0.1496059 α      in ANC's #16, #10, #62, ...

........................................................................
.............................. CYCLE    2 ..............................
........................................................................

 iter      E             dE          RMSdq      gap      omega  full diag
   1    -63.2374391 -0.632374E+02  0.160E-01    3.18       0.0  T
   2    -63.2374612 -0.220973E-04  0.953E-02    3.17       1.0  T
   3    -63.2374000  0.611715E-04  0.395E-02    3.18       1.0  T
   4    -63.2374723 -0.722142E-04  0.694E-03    3.17       2.2  T
   5    -63.2374742 -0.194333E-05  0.235E-03    3.17       6.6  T
   6    -63.2374742 -0.319825E-07  0.120E-03    3.17      12.8  T
   7    -63.2374743 -0.292553E-07  0.307E-04    3.17      50.3  T
   8    -63.2374743 -0.163490E-08  0.121E-04    3.17     127.0  T
     SCC iter.                  ...        0 min,  0.017 sec
     gradient                   ...        0 min,  0.023 sec
 * total energy  :   -62.1179441 Eh     change       -0.5930361E-02 Eh
   gradient norm :     0.0155611 Eh/α   predicted    -0.4997247E-02 ( -15.73%)
   displ. norm   :     0.2992419 α      lambda       -0.2082128E-02
   maximum displ.:     0.1526509 α      in ANC's #16, #9, #10, ...

........................................................................
.............................. CYCLE    3 ..............................
........................................................................

 iter      E             dE          RMSdq      gap      omega  full diag
   1    -63.2649569 -0.632650E+02  0.855E-02    3.18       0.0  T
   2    -63.2649705 -0.135528E-04  0.521E-02    3.17       1.0  T
   3    -63.2649543  0.162219E-04  0.235E-02    3.18       1.0  T
   4    -63.2649754 -0.211614E-04  0.521E-03    3.18       3.0  T
   5    -63.2649766 -0.114636E-05  0.127E-03    3.18      12.1  T
   6    -63.2649766 -0.222629E-07  0.670E-04    3.18      23.0  T
   7    -63.2649766 -0.636310E-08  0.187E-04    3.18      82.3  T
     SCC iter.                  ...        0 min,  0.053 sec
     gradient                   ...        0 min,  0.023 sec
 * total energy  :   -62.1192649 Eh     change       -0.1320849E-02 Eh
   gradient norm :     0.0062203 Eh/α   predicted    -0.1135174E-02 ( -14.06%)
   displ. norm   :     0.2517252 α      lambda       -0.6557484E-03
   maximum displ.:     0.1480554 α      in ANC's #9, #10, #16, ...

........................................................................
.............................. CYCLE    4 ..............................
........................................................................

 iter      E             dE          RMSdq      gap      omega  full diag
   1    -63.2695258 -0.632695E+02  0.616E-02    3.18       0.0  T
   2    -63.2695293 -0.350603E-05  0.370E-02    3.18       1.0  T
   3    -63.2695222  0.710673E-05  0.134E-02    3.19       1.2  T
   4    -63.2695306 -0.837875E-05  0.239E-03    3.18       6.5  T
   5    -63.2695308 -0.227369E-06  0.642E-04    3.18      24.0  T
   6    -63.2695308 -0.335665E-08  0.362E-04    3.18      42.6  T
     SCC iter.                  ...        0 min,  0.013 sec
     gradient                   ...        0 min,  0.056 sec
 * total energy  :   -62.1197341 Eh     change       -0.4691961E-03 Eh
   gradient norm :     0.0053501 Eh/α   predicted    -0.3486966E-03 ( -25.68%)
   displ. norm   :     0.2713020 α      lambda       -0.4178019E-03
   maximum displ.:     0.1823270 α      in ANC's #9, #2, #10, ...

........................................................................
.............................. CYCLE    5 ..............................
........................................................................

 iter      E             dE          RMSdq      gap      omega  full diag
   1    -63.2676284 -0.632676E+02  0.700E-02    3.18       0.0  T
   2    -63.2676296 -0.114612E-05  0.412E-02    3.18       1.0  T
   3    -63.2676275  0.213363E-05  0.766E-03    3.18       2.0  T
   4    -63.2676301 -0.261432E-05  0.143E-03    3.18      10.8  T
   5    -63.2676301 -0.298552E-07  0.680E-04    3.18      22.7  T
   6    -63.2676301  0.339696E-09  0.240E-04    3.18      64.3  T
     SCC iter.                  ...        0 min,  0.013 sec
     gradient                   ...        0 min,  0.023 sec
 * total energy  :   -62.1200206 Eh     change       -0.2865382E-03 Eh
   gradient norm :     0.0035861 Eh/α   predicted    -0.2242798E-03 ( -21.73%)
   displ. norm   :     0.1941746 α      lambda       -0.1894174E-03
   maximum displ.:     0.1252005 α      in ANC's #9, #2, #8, ...

........................................................................
.............................. CYCLE    6 ..............................
........................................................................

 iter      E             dE          RMSdq      gap      omega  full diag
   1    -63.2651970 -0.632652E+02  0.552E-02    3.17       0.0  T
   2    -63.2651975 -0.428239E-06  0.322E-02    3.17       1.0  T
   3    -63.2651972  0.285631E-06  0.325E-03    3.17       4.8  T
   4    -63.2651976 -0.453894E-06  0.963E-04    3.17      16.0  T
   5    -63.2651976 -0.817219E-08  0.423E-04    3.17      36.5  T
     SCC iter.                  ...        0 min,  0.044 sec
     gradient                   ...        0 min,  0.023 sec
 * total energy  :   -62.1201716 Eh     change       -0.1509657E-03 Eh
   gradient norm :     0.0031071 Eh/α   predicted    -0.9829880E-04 ( -34.89%)
   displ. norm   :     0.2636363 α      lambda       -0.2178491E-03
   maximum displ.:     0.1518588 α      in ANC's #9, #2, #8, ...

........................................................................
.............................. CYCLE    7 ..............................
........................................................................

 iter      E             dE          RMSdq      gap      omega  full diag
   1    -63.2630923 -0.632631E+02  0.814E-02    3.16       0.0  T
   2    -63.2630935 -0.116245E-05  0.475E-02    3.16       1.0  T
   3    -63.2630927  0.757318E-06  0.500E-03    3.15       3.1  T
   4    -63.2630938 -0.112372E-05  0.150E-03    3.16      10.3  T
   5    -63.2630939 -0.367688E-07  0.668E-04    3.16      23.1  T
   6    -63.2630939 -0.106373E-08  0.218E-04    3.16      70.7  T
     SCC iter.                  ...        0 min,  0.013 sec
     gradient                   ...        0 min,  0.060 sec
 * total energy  :   -62.1203403 Eh     change       -0.1686786E-03 Eh
   gradient norm :     0.0034965 Eh/α   predicted    -0.1164959E-03 ( -30.94%)
   displ. norm   :     0.3093601 α      lambda       -0.1963952E-03
   maximum displ.:     0.1661929 α      in ANC's #2, #9, #8, ...

........................................................................
.............................. CYCLE    8 ..............................
........................................................................

 iter      E             dE          RMSdq      gap      omega  full diag
   1    -63.2625109 -0.632625E+02  0.100E-01    3.14       0.0  T
   2    -63.2625120 -0.116947E-05  0.586E-02    3.14       1.0  T
   3    -63.2625111  0.891681E-06  0.530E-03    3.14       2.9  T
   4    -63.2625124 -0.129174E-05  0.162E-03    3.14       9.5  T
   5    -63.2625125 -0.529220E-07  0.743E-04    3.14      20.8  T
   6    -63.2625125 -0.162630E-08  0.285E-04    3.14      54.1  T
     SCC iter.                  ...        0 min,  0.013 sec
     gradient                   ...        0 min,  0.023 sec
 * total energy  :   -62.1204812 Eh     change       -0.1408791E-03 Eh
   gradient norm :     0.0035075 Eh/α   predicted    -0.1075982E-03 ( -23.62%)
   displ. norm   :     0.2283582 α      lambda       -0.1160834E-03
   maximum displ.:     0.1274309 α      in ANC's #2, #8, #9, ...

........................................................................
.............................. CYCLE    9 ..............................
........................................................................

 iter      E             dE          RMSdq      gap      omega  full diag
   1    -63.2640098 -0.632640E+02  0.776E-02    3.13       0.0  T
   2    -63.2640102 -0.454755E-06  0.455E-02    3.13       1.0  T
   3    -63.2640090  0.122072E-05  0.508E-03    3.12       3.0  T
   4    -63.2640105 -0.150836E-05  0.974E-04    3.13      15.8  T
   5    -63.2640105 -0.512600E-08  0.458E-04    3.12      33.7  T
   6    -63.2640105 -0.291011E-08  0.138E-04    3.12     111.7  T
     SCC iter.                  ...        0 min,  0.013 sec
     gradient                   ...        0 min,  0.023 sec
 * total energy  :   -62.1205670 Eh     change       -0.8579761E-04 Eh
   gradient norm :     0.0024377 Eh/α   predicted    -0.6106906E-04 ( -28.82%)
   displ. norm   :     0.1744530 α      lambda       -0.7898404E-04
   maximum displ.:     0.1003747 α      in ANC's #8, #2, #5, ...

........................................................................
.............................. CYCLE   10 ..............................
........................................................................

 iter      E             dE          RMSdq      gap      omega  full diag
   1    -63.2662126 -0.632662E+02  0.595E-02    3.11       0.0  T
   2    -63.2662129 -0.297313E-06  0.350E-02    3.11       1.0  T
   3    -63.2662115  0.143025E-05  0.524E-03    3.12       2.9  T
   4    -63.2662131 -0.165530E-05  0.713E-04    3.11      21.6  T
   5    -63.2662131 -0.626152E-08  0.389E-04    3.11      39.7  T
   6    -63.2662131 -0.115362E-08  0.125E-04    3.11     123.2  T
     SCC iter.                  ...        0 min,  0.013 sec
     gradient                   ...        0 min,  0.050 sec
 * total energy  :   -62.1206258 Eh     change       -0.5884684E-04 Eh
   gradient norm :     0.0016884 Eh/α   predicted    -0.4069429E-04 ( -30.85%)
   displ. norm   :     0.2509050 α      lambda       -0.5806471E-04
   maximum displ.:     0.1457095 α      in ANC's #8, #2, #5, ...

........................................................................
.............................. CYCLE   11 ..............................
........................................................................

 iter      E             dE          RMSdq      gap      omega  full diag
   1    -63.2674998 -0.632675E+02  0.794E-02    3.10       0.0  T
   2    -63.2675004 -0.536169E-06  0.466E-02    3.10       1.0  T
   3    -63.2674982  0.215076E-05  0.647E-03    3.10       2.4  T
   4    -63.2675007 -0.250851E-05  0.955E-04    3.10      16.2  T
   5    -63.2675007 -0.143790E-07  0.506E-04    3.10      30.5  T
   6    -63.2675007 -0.702364E-09  0.200E-04    3.10      77.2  T
     SCC iter.                  ...        0 min,  0.013 sec
     gradient                   ...        0 min,  0.023 sec
 * total energy  :   -62.1206840 Eh     change       -0.5817147E-04 Eh
   gradient norm :     0.0021878 Eh/α   predicted    -0.2984489E-04 ( -48.69%)
   displ. norm   :     0.1154082 α      lambda       -0.3495999E-04
   maximum displ.:     0.0638621 α      in ANC's #2, #8, #7, ...

........................................................................
.............................. CYCLE   12 ..............................
........................................................................

 iter      E             dE          RMSdq      gap      omega  full diag
   1    -63.2670517 -0.632671E+02  0.332E-02    3.09       0.0  T
   2    -63.2670518 -0.795478E-07  0.194E-02    3.09       1.0  T
   3    -63.2670517  0.904650E-07  0.162E-03    3.09       9.5  T
   4    -63.2670518 -0.131246E-06  0.398E-04    3.09      38.8  T
   5    -63.2670518 -0.958025E-09  0.207E-04    3.09      74.7  T
     SCC iter.                  ...        0 min,  0.044 sec
     gradient                   ...        0 min,  0.023 sec
 * total energy  :   -62.1207132 Eh     change       -0.2918492E-04 Eh
   gradient norm :     0.0017571 Eh/α   predicted    -0.1771360E-04 ( -39.31%)
   displ. norm   :     0.2926475 α      lambda       -0.5114952E-04
   maximum displ.:     0.1579009 α      in ANC's #2, #8, #7, ...

........................................................................
.............................. CYCLE   13 ..............................
........................................................................

 iter      E             dE          RMSdq      gap      omega  full diag
   1    -63.2653324 -0.632653E+02  0.819E-02    3.08       0.0  T
   2    -63.2653330 -0.608430E-06  0.480E-02    3.08       1.0  T
   3    -63.2653322  0.777688E-06  0.463E-03    3.08       3.3  T
   4    -63.2653333 -0.106703E-05  0.976E-04    3.08      15.8  T
   5    -63.2653333 -0.679857E-08  0.528E-04    3.08      29.2  T
   6    -63.2653333 -0.269023E-08  0.193E-04    3.08      80.0  T
     SCC iter.                  ...        0 min,  0.013 sec
     gradient                   ...        0 min,  0.050 sec
 * total energy  :   -62.1207478 Eh     change       -0.3463404E-04 Eh
   gradient norm :     0.0013816 Eh/α   predicted    -0.2655253E-04 ( -23.33%)
   displ. norm   :     0.0477109 α      lambda       -0.8076158E-05
   maximum displ.:     0.0299280 α      in ANC's #8, #2, #9, ...

........................................................................
.............................. CYCLE   14 ..............................
........................................................................

 iter      E             dE          RMSdq      gap      omega  full diag
   1    -63.2666914 -0.632667E+02  0.162E-02    3.08       0.0  T
   2    -63.2666914 -0.508615E-07  0.947E-03    3.08       1.6  T
   3    -63.2666913  0.645210E-07  0.144E-03    3.08      10.7  T
   4    -63.2666914 -0.866517E-07  0.295E-04    3.08      52.3  T
   5    -63.2666914 -0.679883E-09  0.147E-04    3.08     104.9  T
     SCC iter.                  ...        0 min,  0.011 sec
     gradient                   ...        0 min,  0.023 sec
 * total energy  :   -62.1207550 Eh     change       -0.7157635E-05 Eh
   gradient norm :     0.0007382 Eh/α   predicted    -0.4043092E-05 ( -43.51%)
   displ. norm   :     0.0337289 α      lambda       -0.3580329E-05
   maximum displ.:     0.0190971 α      in ANC's #8, #9, #3, ...

........................................................................
.............................. CYCLE   15 ..............................
........................................................................

 iter      E             dE          RMSdq      gap      omega  full diag
   1    -63.2665681 -0.632666E+02  0.112E-02    3.08       0.0  T
   2    -63.2665682 -0.292354E-07  0.657E-03    3.08       2.3  T
   3    -63.2665681  0.811352E-07  0.158E-03    3.08       9.8  T
   4    -63.2665682 -0.983283E-07  0.180E-04    3.08      85.9  T
   5    -63.2665682 -0.172612E-09  0.974E-05    3.08     158.4  T
     SCC iter.                  ...        0 min,  0.011 sec
     gradient                   ...        0 min,  0.050 sec
 * total energy  :   -62.1207584 Eh     change       -0.3461994E-05 Eh
   gradient norm :     0.0004158 Eh/α   predicted    -0.1792899E-05 ( -48.21%)
   displ. norm   :     0.0291194 α      lambda       -0.1690969E-05
   maximum displ.:     0.0160777 α      in ANC's #9, #7, #8, ...

   *** GEOMETRY OPTIMIZATION CONVERGED AFTER 15 ITERATIONS ***

------------------------------------------------------------------------
 total energy gain   :        -0.0087447 Eh       -5.4874 kcal/mol
 total RMSD          :         0.3506001 a0        0.1855 Å
 total power (kW/mol):        -1.5306178 (step)  -23.0388 (real)
------------------------------------------------------------------------

 ANCopt (total)                0 d,  0 h,  0 min,  0.997 sec
 optimizer setup                ...        0 min,  0.000 sec (  0.008%)
 model hessian                  ...        0 min,  0.011 sec (  1.142%)
 ANC generation                 ...        0 min,  0.002 sec (  0.153%)
 coordinate transformation      ...        0 min,  0.000 sec (  0.010%)
 single point calculation       ...        0 min,  0.978 sec ( 98.150%)
 optimization log               ...        0 min,  0.004 sec (  0.367%)
 hessian update                 ...        0 min,  0.000 sec (  0.020%)
 rational function              ...        0 min,  0.001 sec (  0.098%)

================
 final structure:
================
42
 xtb: 6.7.1 (edcfbbe)
N            2.52280899984026        0.94408196788093        1.26996015794224
C            2.08316687915120       -0.29635137891038        0.66775884754779
C            0.57296381422134       -0.29623523265085        0.53889280108063
C           -0.20721702174542       -0.72615350585433        1.60436533156005
C           -1.58564711173674       -0.70101786093051        1.52286525921258
C           -2.22103482654986       -0.23650536182167        0.37413969871388
C           -3.68858679119605       -0.19972840919534        0.28966291810876
C           -4.33898245629654        0.90040569959515       -0.26409552227596
C           -5.71887961831032        0.93778813853101       -0.33702662359633
C           -6.47033492502508       -0.12532037179497        0.13505228571039
C           -5.83358571470495       -1.22562406864247        0.68414578882730
C           -4.45397463666324       -1.26200689596193        0.76448411703833
C           -1.43423601370498        0.19483113448242       -0.69090508640770
C           -0.05549498204218        0.16312044875279       -0.61132613287321
C            2.75457683817621       -0.55171770984448       -0.66723413031610
C            3.31726899868357        0.47144681757112       -1.41692785715567
C            3.90278928931974        0.19767524727095       -2.64139888927148
C            3.92704956630760       -1.09698178333539       -3.12887232228594
C            3.36251871559759       -2.12112505943620       -2.38666362179168
C            2.78037481994319       -1.84975848506115       -1.16256790875539
C            3.65487949125502        1.10376449193808        2.01924559883540
C            3.72417351598991        2.43182550520256        2.32204908889903
N            2.66828020216039        3.08717714509757        1.77357282990627
C            1.97393452734152        2.17639011486763        1.15025657351368
H            2.37155269826454       -1.10341085506523        1.35607567821333
H            0.26904155422284       -1.07930275508895        2.50827276236572
H           -2.17769783922175       -1.02450739625991        2.36610567840241
H           -3.75788909170850        1.73947116576808       -0.61809634065183
H           -6.21078158321191        1.80053090961888       -0.76195290112215
H           -7.54824825551747       -0.09620391467136        0.07577844287678
H           -6.41494272879642       -2.05922324797202        1.05030103812035
H           -3.96130678669385       -2.12946123602765        1.17937153281012
H           -1.90827949769137        0.54222300532263       -1.59699964173476
H            0.53782583458021        0.49503521324923       -1.45088030585001
H            3.30322314289840        1.48666002687129       -1.04695905166291
H            4.33986658278924        1.00150636665740       -3.21492666547897
H            4.38447046387442       -1.30836352310845       -4.08391855344696
H            3.37800520820299       -3.13383809273296       -2.76124830001297
H            2.33810295032142       -2.64869470481491       -0.58412650254053
H            4.29338598743773        0.27964325300573        2.26393516226848
H            4.46095848415305        2.95575916302361        2.89693076931695
H            1.06560131608393        2.36219603447339        0.61310399595849

 Bond Distances (Angstroems)
 ---------------------------
N1-C2=1.4473         N1-C21=1.3669        N1-C24=1.3543        C2-N1=1.4473         C2-C3=1.5157         C2-C15=1.5160        
C2-H25=1.0992        C3-C2=1.5157         C3-C4=1.3888         C3-C14=1.3889        C4-C3=1.3888         C4-C5=1.3811         
C4-H26=1.0810        C5-C4=1.3811         C5-C6=1.3925         C5-H27=1.0799        C6-C5=1.3925         C6-C7=1.4704         
C6-C13=1.3926        C7-C6=1.4704         C7-C8=1.3928         C7-C12=1.3927        C8-C7=1.3928         C8-C9=1.3823         
C8-H28=1.0803        C9-C8=1.3823         C9-C10=1.3848        C9-H29=1.0802        C10-C9=1.3848        C10-C11=1.3848       
C10-H30=1.0799       C11-C10=1.3848       C11-C12=1.3824       C11-H31=1.0802       C12-C7=1.3927        C12-C11=1.3824       
C12-H32=1.0804       C13-C6=1.3926        C13-C14=1.3814       C13-H33=1.0800       C14-C3=1.3889        C14-C13=1.3814       
C14-H34=1.0803       C15-C2=1.5160        C15-C16=1.3876       C15-C20=1.3896       C16-C15=1.3876       C16-C17=1.3846       
C16-H35=1.0806       C17-C16=1.3846       C17-C18=1.3836       C17-H36=1.0799       C18-C17=1.3836       C18-C19=1.3851       
C18-H37=1.0798       C19-C18=1.3851       C19-C20=1.3824       C19-H38=1.0799       C20-C15=1.3896       C20-C19=1.3824       
C20-H39=1.0810       C21-N1=1.3669        C21-C22=1.3639       C21-H40=1.0709       C22-C21=1.3639       C22-N23=1.3584       
C22-H41=1.0714       N23-C22=1.3584       N23-C24=1.3039       C24-N1=1.3543        C24-N23=1.3039       C24-H42=1.0715       
H25-C2=1.0992        H26-C4=1.0810        H27-C5=1.0799        H28-C8=1.0803        H29-C9=1.0802        H30-C10=1.0799       
H31-C11=1.0802       H32-C12=1.0804       H33-C13=1.0800       H34-C14=1.0803       H35-C16=1.0806       H36-C17=1.0799       
H37-C18=1.0798       H38-C19=1.0799       H39-C20=1.0810       H40-C21=1.0709       H41-C22=1.0714       H42-C24=1.0715       
 C  H  Rav=1.0798 sigma=0.0058  Rmin=1.0709  Rmax=1.0992    18
 C  C  Rav=1.4011 sigma=0.0408  Rmin=1.3639  Rmax=1.5160    22
 N  C  Rav=1.3662 sigma=0.0462  Rmin=1.3039  Rmax=1.4473     5

 selected bond angles (degree)
 --------------------
C21-N1-C2=125.44               C24-N1-C2=128.31               C24-N1-C21=106.13              C3-C2-N1=109.75                
C15-C2-N1=112.10               C15-C2-C3=111.50               H25-C2-N1=106.80               H25-C2-C3=108.34               
H25-C2-C15=108.15              C4-C3-C2=119.64                C14-C3-C2=121.42               C14-C3-C4=118.92               
C5-C4-C3=120.65                H26-C4-C3=119.68               H26-C4-C5=119.67               C6-C5-C4=120.68                
H27-C5-C4=119.71               H27-C5-C6=119.60               C7-C6-C5=120.74                C13-C6-C5=118.45               
C13-C6-C7=120.81               C8-C7-C6=120.57                C12-C7-C6=120.65               C12-C7-C8=118.77               
C9-C8-C7=120.56                H28-C8-C7=119.51               H28-C8-C9=119.91               C10-C9-C8=120.19               
H29-C9-C8=119.80               H29-C9-C10=120.01              C11-C10-C9=119.71              H30-C10-C9=120.15              
H30-C10-C11=120.14             

 selected dihedral angles (degree)
 ---------------------------------
C3-C2-N1-C21=151.80           C3-C2-N1-C24=327.23           C15-C2-N1-C21=276.28          C15-C2-N1-C24= 91.71          
H25-C2-N1-C21= 34.56          H25-C2-N1-C24=209.99          C4-C3-C2-N1=273.53            C4-C3-C2-C15=148.70           
C4-C3-C2-H25= 29.80           C14-C3-C2-N1= 91.60           C14-C3-C2-C15=326.77          C14-C3-C2-H25=207.87          
C5-C4-C3-C2=178.25            C5-C4-C3-C14=  0.14           H26-C4-C3-C2=358.56           H26-C4-C3-C14=180.45          
C6-C5-C4-C3=359.60            C6-C5-C4-H26=179.29           H27-C5-C4-C3=180.94           H27-C5-C4-H26=  0.63          
C7-C6-C5-C4=180.46            C7-C6-C5-H27=359.12           C13-C6-C5-C4=  0.32           C13-C6-C5-H27=178.98          
C8-C7-C6-C5=137.38            C8-C7-C6-C13=317.52           C12-C7-C6-C5=317.54           C12-C7-C6-C13=137.68          
C9-C8-C7-C6=180.34            C9-C8-C7-C12=  0.18           H28-C8-C7-C6=358.94           H28-C8-C7-C12=178.79          
C10-C9-C8-C7=359.65           C10-C9-C8-H28=181.05          H29-C9-C8-C7=179.53           H29-C9-C8-H28=  0.93          
C11-C10-C9-C8=  0.17          C11-C10-C9-H29=180.29         H30-C10-C9-C8=180.13          H30-C10-C9-H29=  0.26         
           -------------------------------------------------
          |                Final Singlepoint                |
           -------------------------------------------------

          ...................................................
          :                      SETUP                      :
          :.................................................:
          :  # basis functions                 114          :
          :  # atomic orbitals                 114          :
          :  # shells                           66          :
          :  # electrons                       116          :
          :  max. iterations                   250          :
          :  Hamiltonian                  GFN2-xTB          :
          :  restarted?                      false          :
          :  GBSA solvation                  false          :
          :  PC potential                    false          :
          :  electronic temp.          300.0000000     K    :
          :  accuracy                    1.0000000          :
          :  -> integral cutoff          0.2500000E+02      :
          :  -> integral neglect         0.1000000E-07      :
          :  -> SCF convergence          0.1000000E-05 Eh   :
          :  -> wf. convergence          0.1000000E-03 e    :
          :  Broyden damping             0.4000000          :
          :  net charge                          0          :
          :  unpaired electrons                  0          :
          ...................................................

 iter      E             dE          RMSdq      gap      omega  full diag
   1    -63.2665682 -0.632666E+02  0.247E-05    3.08       0.0  T
   2    -63.2665682 -0.658673E-11  0.161E-05    3.08     959.4  T
   3    -63.2665682 -0.504485E-11  0.913E-06    3.08    1689.5  T

   *** convergence criteria satisfied after 3 iterations ***

         #    Occupation            Energy/Eh            Energy/eV
      -------------------------------------------------------------
         1        2.0000           -0.6777572             -18.4427
       ...           ...                  ...                  ...
        52        2.0000           -0.4140045             -11.2656
        53        2.0000           -0.4093899             -11.1401
        54        2.0000           -0.4082633             -11.1094
        55        2.0000           -0.4063948             -11.0586
        56        2.0000           -0.3922186             -10.6728
        57        2.0000           -0.3787924             -10.3075
        58        2.0000           -0.3671958              -9.9919 (HOMO)
        59                         -0.2538856              -6.9086 (LUMO)
        60                         -0.2343853              -6.3779
        61                         -0.2331582              -6.3446
        62                         -0.2311920              -6.2911
        63                         -0.2264054              -6.1608
       ...                                ...                  ...
       114                          0.6836935              18.6042
      -------------------------------------------------------------
                  HL-Gap            0.1133102 Eh            3.0833 eV
             Fermi-level           -0.3105407 Eh           -8.4502 eV

 SCC (total)                   0 d,  0 h,  0 min,  0.039 sec
 SCC setup                      ...        0 min,  0.000 sec (  0.774%)
 Dispersion                     ...        0 min,  0.000 sec (  0.780%)
 classical contributions        ...        0 min,  0.000 sec (  0.362%)
 integral evaluation            ...        0 min,  0.008 sec ( 19.676%)
 iterations                     ...        0 min,  0.007 sec ( 17.254%)
 molecular gradient             ...        0 min,  0.023 sec ( 60.752%)
 printout                       ...        0 min,  0.000 sec (  0.383%)

         :::::::::::::::::::::::::::::::::::::::::::::::::::::
         ::                     SUMMARY                     ::
         :::::::::::::::::::::::::::::::::::::::::::::::::::::
         :: total energy             -62.120758412237 Eh    ::
         :: gradient norm              0.000416039981 Eh/a0 ::
         :: HOMO-LUMO gap              3.083327158928 eV    ::
         ::.................................................::
         :: SCC energy               -63.266338285221 Eh    ::
         :: -> isotropic ES            0.014022416733 Eh    ::
         :: -> anisotropic ES          0.007044298299 Eh    ::
         :: -> anisotropic XC          0.043505378555 Eh    ::
         :: -> dispersion             -0.049900185478 Eh    ::
         :: repulsion energy           1.145579872984 Eh    ::
         :: add. restraining           0.000000000000 Eh    ::
         :: total charge               0.000000000000 e     ::
         :::::::::::::::::::::::::::::::::::::::::::::::::::::

           -------------------------------------------------
          |                Property Printout                |
           -------------------------------------------------

    * Orbital Energies and Occupations

         #    Occupation            Energy/Eh            Energy/eV
      -------------------------------------------------------------
         1        2.0000           -0.6777572             -18.4427
       ...           ...                  ...                  ...
        46        2.0000           -0.4350645             -11.8387
        47        2.0000           -0.4314227             -11.7396
        48        2.0000           -0.4281584             -11.6508
        49        2.0000           -0.4247849             -11.5590
        50        2.0000           -0.4184012             -11.3853
        51        2.0000           -0.4155012             -11.3064
        52        2.0000           -0.4140045             -11.2656
        53        2.0000           -0.4093899             -11.1401
        54        2.0000           -0.4082633             -11.1094
        55        2.0000           -0.4063948             -11.0586
        56        2.0000           -0.3922186             -10.6728
        57        2.0000           -0.3787924             -10.3075
        58        2.0000           -0.3671958              -9.9919 (HOMO)
        59                         -0.2538856              -6.9086 (LUMO)
        60                         -0.2343853              -6.3779
        61                         -0.2331582              -6.3446
        62                         -0.2311920              -6.2911
        63                         -0.2264054              -6.1608
        64                         -0.2078331              -5.6554
        65                         -0.1938594              -5.2752
        66                         -0.1553494              -4.2273
        67                         -0.1141792              -3.1070
        68                         -0.1038903              -2.8270
        69                         -0.0826898              -2.2501
       ...                                ...                  ...
       114                          0.6836935              18.6042
      -------------------------------------------------------------
                  HL-Gap            0.1133102 Eh            3.0833 eV
             Fermi-level           -0.3105407 Eh           -8.4502 eV

     #   Z          covCN         q      C6AA      α(0)
     1   7 N        2.863    -0.022    21.673     6.914
     2   6 C        3.801     0.033    20.024     6.371
     3   6 C        2.975     0.002    27.966     8.675
     4   6 C        2.922    -0.035    28.869     8.811
     5   6 C        2.924    -0.033    28.818     8.804
     6   6 C        2.977     0.012    27.744     8.640
     7   6 C        2.977     0.010    27.789     8.647
     8   6 C        2.925    -0.033    28.818     8.804
     9   6 C        2.919    -0.029    28.717     8.788
    10   6 C        2.920    -0.030    28.747     8.792
    11   6 C        2.919    -0.029    28.724     8.789
    12   6 C        2.925    -0.033    28.829     8.805
    13   6 C        2.925    -0.033    28.830     8.805
    14   6 C        2.921    -0.033    28.833     8.806
    15   6 C        2.974     0.005    27.907     8.665
    16   6 C        2.922    -0.033    28.821     8.804
    17   6 C        2.920    -0.028    28.699     8.785
    18   6 C        2.920    -0.030    28.750     8.793
    19   6 C        2.920    -0.028    28.697     8.785
    20   6 C        2.925    -0.036    28.895     8.815
    21   6 C        3.050    -0.026    28.607     8.772
    22   6 C        3.162     0.016    27.329     8.545
    23   7 N        1.916    -0.273    27.921     7.834
    24   6 C        3.177     0.083    25.765     8.288
    25   1 H        0.923     0.050     2.323     2.384
    26   1 H        0.926     0.032     2.556     2.500
    27   1 H        0.926     0.038     2.475     2.460
    28   1 H        0.926     0.033     2.548     2.496
    29   1 H        0.926     0.032     2.559     2.501
    30   1 H        0.926     0.031     2.566     2.505
    31   1 H        0.926     0.031     2.569     2.507
    32   1 H        0.926     0.031     2.569     2.506
    33   1 H        0.926     0.037     2.484     2.465
    34   1 H        0.926     0.035     2.510     2.477
    35   1 H        0.926     0.038     2.482     2.464
    36   1 H        0.926     0.036     2.507     2.476
    37   1 H        0.926     0.034     2.525     2.485
    38   1 H        0.926     0.034     2.525     2.485
    39   1 H        0.926     0.028     2.608     2.526
    40   1 H        0.926     0.024     2.680     2.560
    41   1 H        0.926     0.029     2.600     2.521
    42   1 H        0.926     0.029     2.606     2.524

 Mol. C6AA /au·bohr⁶  :      23987.177213
 Mol. C8AA /au·bohr⁸  :     595543.545471
 Mol. α(0) /au        :        249.379255


Wiberg/Mayer (AO) data.
largest (>0.10) Wiberg bond orders for each atom

 ---------------------------------------------------------------------------
     #   Z sym  total        # sym  WBO       # sym  WBO       # sym  WBO
 ---------------------------------------------------------------------------
     1   7 N    3.635 --    24 C    1.248    21 C    1.200     2 C    0.968
                            23 N    0.102
     2   6 C    3.972 --    15 C    0.978     3 C    0.973     1 N    0.968
                            25 H    0.951
     3   6 C    3.981 --     4 C    1.409    14 C    1.409     2 C    0.973
                             6 C    0.102
     4   6 C    3.990 --     5 C    1.454     3 C    1.409    26 H    0.968
                            13 C    0.106
     5   6 C    3.990 --     4 C    1.454     6 C    1.387    27 H    0.968
                            14 C    0.106
     6   6 C    3.987 --    13 C    1.387     5 C    1.387     7 C    1.046
                             3 C    0.102
     7   6 C    3.989 --    12 C    1.390     8 C    1.389     6 C    1.046
                            10 C    0.106
     8   6 C    3.991 --     9 C    1.451     7 C    1.389    28 H    0.969
                            11 C    0.109
     9   6 C    3.992 --     8 C    1.451    10 C    1.435    29 H    0.971
                            12 C    0.109
    10   6 C    3.987 --    11 C    1.435     9 C    1.435    30 H    0.972
                             7 C    0.106
    11   6 C    3.992 --    12 C    1.451    10 C    1.435    31 H    0.971
                             8 C    0.109
    12   6 C    3.991 --    11 C    1.451     7 C    1.390    32 H    0.969
                             9 C    0.109
    13   6 C    3.991 --    14 C    1.454     6 C    1.387    33 H    0.968
                             4 C    0.106
    14   6 C    3.991 --    13 C    1.454     3 C    1.409    34 H    0.966
                             5 C    0.106
    15   6 C    3.987 --    16 C    1.420    20 C    1.407     2 C    0.978
                            18 C    0.109
    16   6 C    3.991 --    17 C    1.438    15 C    1.420    35 H    0.967
                            19 C    0.110
    17   6 C    3.992 --    18 C    1.444    16 C    1.438    36 H    0.971
                            20 C    0.113
    18   6 C    3.991 --    17 C    1.444    19 C    1.434    37 H    0.971
                            15 C    0.109
    19   6 C    3.991 --    20 C    1.450    18 C    1.434    38 H    0.971
                            16 C    0.110
    20   6 C    3.991 --    19 C    1.450    15 C    1.407    39 H    0.970
                            17 C    0.113
    21   6 C    3.940 --    22 C    1.581     1 N    1.200    40 H    0.971
                            24 C    0.113
    22   6 C    3.975 --    21 C    1.581    23 N    1.299    41 H    0.971
    23   7 N    3.024 --    24 C    1.545    22 C    1.299     1 N    0.102
    24   6 C    3.958 --    23 N    1.545     1 N    1.248    42 H    0.964
                            21 C    0.113
    25   1 H    0.997 --     2 C    0.951
    26   1 H    0.998 --     4 C    0.968
    27   1 H    0.998 --     5 C    0.968
    28   1 H    0.999 --     8 C    0.969
    29   1 H    0.998 --     9 C    0.971
    30   1 H    0.999 --    10 C    0.972
    31   1 H    0.998 --    11 C    0.971
    32   1 H    0.999 --    12 C    0.969
    33   1 H    0.998 --    13 C    0.968
    34   1 H    0.998 --    14 C    0.966
    35   1 H    0.999 --    16 C    0.967
    36   1 H    0.998 --    17 C    0.971
    37   1 H    0.998 --    18 C    0.971
    38   1 H    0.998 --    19 C    0.971
    39   1 H    0.999 --    20 C    0.970
    40   1 H    0.999 --    21 C    0.971
    41   1 H    0.998 --    22 C    0.971
    42   1 H    0.999 --    24 C    0.964
 ---------------------------------------------------------------------------

Topologies differ in total number of bonds
Writing topology from bond orders to xtbtopo.mol

molecular dipole:
                 x           y           z       tot (Debye)
 q only:       -0.485      -1.092      -0.514
   full:       -0.426      -1.562      -0.550       4.347
molecular quadrupole (traceless):
                xx          xy          yy          xz          yz          zz
 q only:        4.836      -8.129      -6.454      -4.801      -6.928       1.618
  q+dip:        8.076     -10.926     -10.088      -5.772     -13.883       2.012
   full:        7.713     -11.376     -10.928      -5.014     -11.359       3.215

           -------------------------------------------------
          |                Geometry Summary                 |
           -------------------------------------------------

      molecular mass/u    :      310.3925297
   center of mass at/Å    :        0.0772226       0.0939823       0.0837128
  moments of inertia/u·Å² :        0.1171601E+04   0.4093313E+04   0.4698446E+04
rotational constants/cm⁻¹ :        0.1438854E-01   0.4118334E-02   0.3587916E-02

 * 42 selected distances

     #   Z          #   Z                                           value/Å
     1   7 N        2   6 C                                       1.4472757 (max)
     3   6 C        4   6 C                                       1.3887923
     4   6 C        5   6 C                                       1.3810662
     5   6 C        6   6 C                                       1.3925014
     7   6 C        8   6 C                                       1.3928239
     8   6 C        9   6 C                                       1.3823288
     9   6 C       10   6 C                                       1.3848262
    10   6 C       11   6 C                                       1.3847822
     7   6 C       12   6 C                                       1.3927346
    11   6 C       12   6 C                                       1.3824272
     6   6 C       13   6 C                                       1.3926321
     3   6 C       14   6 C                                       1.3888744
    13   6 C       14   6 C                                       1.3813999
    15   6 C       16   6 C                                       1.3876344
    16   6 C       17   6 C                                       1.3845991
    17   6 C       18   6 C                                       1.3836026
    18   6 C       19   6 C                                       1.3850771
    15   6 C       20   6 C                                       1.3895795
    19   6 C       20   6 C                                       1.3823683
     1   7 N       21   6 C                                       1.3669349
    21   6 C       22   6 C                                       1.3639054
    22   6 C       23   7 N                                       1.3583899
     1   7 N       24   6 C                                       1.3543175
    23   7 N       24   6 C                                       1.3039066
     2   6 C       25   1 H                                       1.0992232
     4   6 C       26   1 H                                       1.0810113
     5   6 C       27   1 H                                       1.0799186
     8   6 C       28   1 H                                       1.0802857
     9   6 C       29   1 H                                       1.0802107
    10   6 C       30   1 H                                       1.0799345
    11   6 C       31   1 H                                       1.0802469
    12   6 C       32   1 H                                       1.0804307
    13   6 C       33   1 H                                       1.0800027
    14   6 C       34   1 H                                       1.0803002
    16   6 C       35   1 H                                       1.0806166
    17   6 C       36   1 H                                       1.0798682
    18   6 C       37   1 H                                       1.0798285
    19   6 C       38   1 H                                       1.0798803
    20   6 C       39   1 H                                       1.0809709
    21   6 C       40   1 H                                       1.0708593 (min)
    22   6 C       41   1 H                                       1.0713766
    24   6 C       42   1 H                                       1.0715065

 * 3 distinct bonds (by element types)

   Z      Z             #   av. dist./Å        max./Å        min./Å
   1 H    6 C          18     1.0798040     1.0992232     1.0708593
   6 C    6 C          19     1.3853661     1.3928239     1.3639054
   6 C    7 N           5     1.3661649     1.4472757     1.3039066


optimized geometry written to: xtbopt.xyz


           -------------------------------------------------
          | TOTAL ENERGY              -62.120758412237 Eh   |
          | GRADIENT NORM               0.000416039981 Eh/α |
          | HOMO-LUMO GAP               3.083327158928 eV   |
           -------------------------------------------------

------------------------------------------------------------------------
 * finished run on 2025/05/15 at 16:33:04.543     
------------------------------------------------------------------------
 total:
 * wall-time:     0 d,  0 h,  0 min,  1.109 sec
 *  cpu-time:     0 d,  0 h,  0 min,  0.783 sec
 * ratio c/w:     0.706 speedup
 SCF:
 * wall-time:     0 d,  0 h,  0 min,  0.057 sec
 *  cpu-time:     0 d,  0 h,  0 min,  0.057 sec
 * ratio c/w:     0.994 speedup
 ANC optimizer:
 * wall-time:     0 d,  0 h,  0 min,  1.038 sec
 *  cpu-time:     0 d,  0 h,  0 min,  0.714 sec
 * ratio c/w:     0.687 speedup



----- Single-point -----
      -----------------------------------------------------------      
     |                   =====================                   |     
     |                           x T B                           |     
     |                   =====================                   |     
     |                         S. Grimme                         |     
     |          Mulliken Center for Theoretical Chemistry        |     
     |                    University of Bonn                     |     
      -----------------------------------------------------------      

   * xtb version 6.7.1 (edcfbbe) compiled by 'conda@3ef47c1a292c' on 2024-11-25

   xtb is free software: you can redistribute it and/or modify it under
   the terms of the GNU Lesser General Public License as published by
   the Free Software Foundation, either version 3 of the License, or
   (at your option) any later version.
   
   xtb is distributed in the hope that it will be useful,
   but WITHOUT ANY WARRANTY; without even the implied warranty of
   MERCHANTABILITY or FITNESS FOR A PARTICULAR PURPOSE.  See the
   GNU Lesser General Public License for more details.
   
   Cite this work as:
   * C. Bannwarth, E. Caldeweyher, S. Ehlert, A. Hansen, P. Pracht,
     J. Seibert, S. Spicher, S. Grimme, WIREs Comput. Mol. Sci., 2020, 11,
     e01493. DOI: 10.1002/wcms.1493
   
   for GFN2-xTB:
   * C. Bannwarth, S. Ehlert and S. Grimme., J. Chem. Theory Comput., 2019,
     15, 1652-1671. DOI: 10.1021/acs.jctc.8b01176
   for GFN1-xTB:
   * S. Grimme, C. Bannwarth, P. Shushkov, J. Chem. Theory Comput., 2017,
     13, 1989-2009. DOI: 10.1021/acs.jctc.7b00118
   for GFN0-xTB:
   * P. Pracht, E. Caldeweyher, S. Ehlert, S. Grimme, ChemRxiv, 2019, preprint.
     DOI: 10.26434/chemrxiv.8326202.v1
   for GFN-FF:
   * S. Spicher and S. Grimme, Angew. Chem. Int. Ed., 2020, 59, 15665-15673.
     DOI: 10.1002/anie.202004239
   
   for ALPB and GBSA implicit solvation:
   * S. Ehlert, M. Stahn, S. Spicher, S. Grimme, J. Chem. Theory Comput.,
     2021, 17, 4250-4261. DOI: 10.1021/acs.jctc.1c00471
   
   for ddCOSMO and CPCM-X implicit solvation:
   * M. Stahn, S. Ehlert, S. Grimme, J. Phys. Chem. A,
     2023, XX, XXXX-XXXX. DOI: 10.1021/acs.jpca.3c04382
   
   for DFT-D4:
   * E. Caldeweyher, C. Bannwarth and S. Grimme, J. Chem. Phys., 2017,
     147, 034112. DOI: 10.1063/1.4993215
   * E. Caldeweyher, S. Ehlert, A. Hansen, H. Neugebauer, S. Spicher,
     C. Bannwarth and S. Grimme, J. Chem. Phys., 2019, 150, 154122.
     DOI: 10.1063/1.5090222
   * E. Caldeweyher, J.-M. Mewes, S. Ehlert and S. Grimme, Phys. Chem. Chem. Phys.
     2020, 22, 8499-8512. DOI: 10.1039/D0CP00502A
   
   for sTDA-xTB:
   * S. Grimme and C. Bannwarth, J. Chem. Phys., 2016, 145, 054103.
     DOI: 10.1063/1.4959605
   
   in the mass-spec context:
   * V. Asgeirsson, C. Bauer and S. Grimme, Chem. Sci., 2017, 8, 4879.
     DOI: 10.1039/c7sc00601b
   * J. Koopman and S. Grimme, ACS Omega 2019, 4, 12, 15120-15133.
     DOI: 10.1021/acsomega.9b02011
   
   for metadynamics refer to:
   * S. Grimme, J. Chem. Theory Comput., 2019, 155, 2847-2862
     DOI: 10.1021/acs.jctc.9b00143
   
   for SPH calculations refer to:
   * S. Spicher and S. Grimme, J. Chem. Theory Comput., 2021, 17, 1701-1714
     DOI: 10.1021/acs.jctc.0c01306
   
   for ONIOM refer to:
   * C. Plett, A. Katbashev, S. Ehlert, S. Grimme, M. Bursch,
     Phys. Chem. Chem. Phys., 2023, 25, 17860-17868. DOI: 10.1039/D3CP02178E
   
   for DIPRO refer to:
   * J. Kohn, N. Gildemeister, S. Grimme, D. Fazzi, A. Hansen,
     J. Chem. Phys., 2023, just accepted.
   
   for PTB refer to:
   * S. Grimme, M. Mueller, A. Hansen, J. Chem. Phys., 2023, 158, 124111.
     DOI: 10.1063/5.0137838
   
   with help from (in alphabetical order)
   P. Atkinson, C. Bannwarth, F. Bohle, G. Brandenburg, E. Caldeweyher
   M. Checinski, S. Dohm, S. Ehlert, S. Ehrlich, I. Gerasimov, C. Hölzer
   A. Katbashev, J. Kohn, J. Koopman, C. Lavigne, S. Lehtola, F. März, M. Müller,
   F. Musil, H. Neugebauer, J. Pisarek, C. Plett, P. Pracht, F. Pultar,
   J. Seibert, P. Shushkov, S. Spicher, M. Stahn, M. Steiner, T. Strunk,
   J. Stückrath, T. Rose, and J. Unsleber
   
 * started run on 2025/05/15 at 16:33:04.592     
   ID    Z sym.   atoms
    1    7 N      1, 23
    2    6 C      2-22, 24
    3    1 H      25-42

           -------------------------------------------------
          |                Calculation Setup                |
           -------------------------------------------------

          program call               : xtb /rds/general/user/hgt20/home/callum/QDESCP/Bifonazole_rdkit_conf_4/Bifonazole_rdkit_conf_4.xyz --acc 1 --gfn 2 --chrg 0 --uhf 0 --etemp 300 --input /rds/general/user/hgt20/home/callum/QDESCP/Bifonazole_rdkit_conf_4/Bifonazole_rdkit_conf_4_xtb.inp -P 1
          hostname                   : login-c
          coordinate file            : /rds/general/user/hgt20/home/callum/QDESCP/Bifonazole_rdkit_conf_4/Bifonazole_rdkit_conf_4.xyz
          omp threads                :                     1


           -------------------------------------------------
          |                 G F N 2 - x T B                 |
           -------------------------------------------------

        Reference                      10.1021/acs.jctc.8b01176
      * Hamiltonian:
        H0-scaling (s, p, d)           1.850000    2.230000    2.230000
        zeta-weighting                 0.500000
      * Dispersion:
        s8                             2.700000
        a1                             0.520000
        a2                             5.000000
        s9                             5.000000
      * Repulsion:
        kExp                           1.500000    1.000000
        rExp                           1.000000
      * Coulomb:
        alpha                          2.000000
        third order                    shell-resolved
        anisotropic                    true
        a3                             3.000000
        a5                             4.000000
        cn-shift                       1.200000
        cn-exp                         4.000000
        max-rad                        5.000000

q/qsh data taken from xtbrestart
CAMM data taken from xtbrestart

          ...................................................
          :                      SETUP                      :
          :.................................................:
          :  # basis functions                 114          :
          :  # atomic orbitals                 114          :
          :  # shells                           66          :
          :  # electrons                       116          :
          :  max. iterations                   250          :
          :  Hamiltonian                  GFN2-xTB          :
          :  restarted?                       true          :
          :  GBSA solvation                  false          :
          :  PC potential                    false          :
          :  electronic temp.          300.0000000     K    :
          :  accuracy                    1.0000000          :
          :  -> integral cutoff          0.2500000E+02      :
          :  -> integral neglect         0.1000000E-07      :
          :  -> SCF convergence          0.1000000E-05 Eh   :
          :  -> wf. convergence          0.1000000E-03 e    :
          :  Broyden damping             0.4000000          :
          :  net charge                          0          :
          :  unpaired electrons                  0          :
          ...................................................

 iter      E             dE          RMSdq      gap      omega  full diag
   1    -63.2665682 -0.632666E+02  0.241E-06    3.08       0.0  T
   2    -63.2665682 -0.234479E-12  0.162E-06    3.08    9517.1  T
   3    -63.2665682  0.213163E-13  0.820E-07    3.08   18823.9  T

   *** convergence criteria satisfied after 3 iterations ***

         #    Occupation            Energy/Eh            Energy/eV
      -------------------------------------------------------------
         1        2.0000           -0.6777572             -18.4427
       ...           ...                  ...                  ...
        52        2.0000           -0.4140045             -11.2656
        53        2.0000           -0.4093899             -11.1401
        54        2.0000           -0.4082633             -11.1094
        55        2.0000           -0.4063948             -11.0586
        56        2.0000           -0.3922185             -10.6728
        57        2.0000           -0.3787924             -10.3075
        58        2.0000           -0.3671958              -9.9919 (HOMO)
        59                         -0.2538856              -6.9086 (LUMO)
        60                         -0.2343854              -6.3780
        61                         -0.2331583              -6.3446
        62                         -0.2311920              -6.2911
        63                         -0.2264054              -6.1608
       ...                                ...                  ...
       114                          0.6836935              18.6042
      -------------------------------------------------------------
                  HL-Gap            0.1133102 Eh            3.0833 eV
             Fermi-level           -0.3105407 Eh           -8.4502 eV

 SCC (total)                   0 d,  0 h,  0 min,  0.040 sec
 SCC setup                      ...        0 min,  0.000 sec (  0.916%)
 Dispersion                     ...        0 min,  0.001 sec (  1.249%)
 classical contributions        ...        0 min,  0.000 sec (  0.364%)
 integral evaluation            ...        0 min,  0.008 sec ( 19.702%)
 iterations                     ...        0 min,  0.008 sec ( 19.272%)
 molecular gradient             ...        0 min,  0.023 sec ( 57.945%)
 printout                       ...        0 min,  0.000 sec (  0.535%)

         :::::::::::::::::::::::::::::::::::::::::::::::::::::
         ::                     SUMMARY                     ::
         :::::::::::::::::::::::::::::::::::::::::::::::::::::
         :: total energy             -62.120758412238 Eh    ::
         :: gradient norm              0.000416038226 Eh/a0 ::
         :: HOMO-LUMO gap              3.083326263749 eV    ::
         ::.................................................::
         :: SCC energy               -63.266338285222 Eh    ::
         :: -> isotropic ES            0.014022401704 Eh    ::
         :: -> anisotropic ES          0.007044298156 Eh    ::
         :: -> anisotropic XC          0.043505377467 Eh    ::
         :: -> dispersion             -0.049900186581 Eh    ::
         :: repulsion energy           1.145579872984 Eh    ::
         :: add. restraining           0.000000000000 Eh    ::
         :: total charge               0.000000000000 e     ::
         :::::::::::::::::::::::::::::::::::::::::::::::::::::

           -------------------------------------------------
          |                Property Printout                |
           -------------------------------------------------

    * Orbital Energies and Occupations

         #    Occupation            Energy/Eh            Energy/eV
      -------------------------------------------------------------
         1        2.0000           -0.6777572             -18.4427
       ...           ...                  ...                  ...
        46        2.0000           -0.4350645             -11.8387
        47        2.0000           -0.4314227             -11.7396
        48        2.0000           -0.4281584             -11.6508
        49        2.0000           -0.4247849             -11.5590
        50        2.0000           -0.4184012             -11.3853
        51        2.0000           -0.4155012             -11.3064
        52        2.0000           -0.4140045             -11.2656
        53        2.0000           -0.4093899             -11.1401
        54        2.0000           -0.4082633             -11.1094
        55        2.0000           -0.4063948             -11.0586
        56        2.0000           -0.3922185             -10.6728
        57        2.0000           -0.3787924             -10.3075
        58        2.0000           -0.3671958              -9.9919 (HOMO)
        59                         -0.2538856              -6.9086 (LUMO)
        60                         -0.2343854              -6.3780
        61                         -0.2331583              -6.3446
        62                         -0.2311920              -6.2911
        63                         -0.2264054              -6.1608
        64                         -0.2078331              -5.6554
        65                         -0.1938594              -5.2752
        66                         -0.1553494              -4.2273
        67                         -0.1141792              -3.1070
        68                         -0.1038903              -2.8270
        69                         -0.0826897              -2.2501
       ...                                ...                  ...
       114                          0.6836935              18.6042
      -------------------------------------------------------------
                  HL-Gap            0.1133102 Eh            3.0833 eV
             Fermi-level           -0.3105407 Eh           -8.4502 eV

     #   Z          covCN         q      C6AA      α(0)
     1   7 N        2.863    -0.022    21.673     6.914
     2   6 C        3.801     0.033    20.024     6.371
     3   6 C        2.975     0.002    27.966     8.675
     4   6 C        2.922    -0.035    28.869     8.811
     5   6 C        2.924    -0.033    28.818     8.804
     6   6 C        2.977     0.012    27.744     8.640
     7   6 C        2.977     0.010    27.789     8.647
     8   6 C        2.925    -0.033    28.818     8.804
     9   6 C        2.919    -0.029    28.717     8.788
    10   6 C        2.920    -0.030    28.747     8.792
    11   6 C        2.919    -0.029    28.724     8.789
    12   6 C        2.925    -0.033    28.829     8.805
    13   6 C        2.925    -0.033    28.830     8.805
    14   6 C        2.921    -0.033    28.833     8.806
    15   6 C        2.974     0.005    27.907     8.665
    16   6 C        2.922    -0.033    28.821     8.804
    17   6 C        2.920    -0.028    28.699     8.785
    18   6 C        2.920    -0.030    28.750     8.793
    19   6 C        2.920    -0.028    28.697     8.785
    20   6 C        2.925    -0.036    28.895     8.815
    21   6 C        3.050    -0.026    28.607     8.772
    22   6 C        3.162     0.016    27.329     8.545
    23   7 N        1.916    -0.273    27.921     7.834
    24   6 C        3.177     0.083    25.765     8.288
    25   1 H        0.923     0.050     2.323     2.384
    26   1 H        0.926     0.032     2.556     2.500
    27   1 H        0.926     0.038     2.475     2.460
    28   1 H        0.926     0.033     2.548     2.496
    29   1 H        0.926     0.032     2.559     2.501
    30   1 H        0.926     0.031     2.566     2.505
    31   1 H        0.926     0.031     2.569     2.507
    32   1 H        0.926     0.031     2.569     2.506
    33   1 H        0.926     0.037     2.484     2.465
    34   1 H        0.926     0.035     2.510     2.477
    35   1 H        0.926     0.038     2.482     2.464
    36   1 H        0.926     0.036     2.507     2.476
    37   1 H        0.926     0.034     2.525     2.485
    38   1 H        0.926     0.034     2.525     2.485
    39   1 H        0.926     0.028     2.608     2.526
    40   1 H        0.926     0.024     2.680     2.560
    41   1 H        0.926     0.029     2.600     2.521
    42   1 H        0.926     0.029     2.606     2.524

 Mol. C6AA /au·bohr⁶  :      23987.177252
 Mol. C8AA /au·bohr⁸  :     595543.546055
 Mol. α(0) /au        :        249.379255


Wiberg/Mayer (AO) data.
largest (>0.10) Wiberg bond orders for each atom

 ---------------------------------------------------------------------------
     #   Z sym  total        # sym  WBO       # sym  WBO       # sym  WBO
 ---------------------------------------------------------------------------
     1   7 N    3.635 --    24 C    1.248    21 C    1.200     2 C    0.968
                            23 N    0.102
     2   6 C    3.972 --    15 C    0.978     3 C    0.973     1 N    0.968
                            25 H    0.951
     3   6 C    3.981 --     4 C    1.409    14 C    1.409     2 C    0.973
                             6 C    0.102
     4   6 C    3.990 --     5 C    1.454     3 C    1.409    26 H    0.968
                            13 C    0.106
     5   6 C    3.990 --     4 C    1.454     6 C    1.387    27 H    0.968
                            14 C    0.106
     6   6 C    3.987 --    13 C    1.387     5 C    1.387     7 C    1.046
                             3 C    0.102
     7   6 C    3.989 --    12 C    1.390     8 C    1.389     6 C    1.046
                            10 C    0.106
     8   6 C    3.991 --     9 C    1.451     7 C    1.389    28 H    0.969
                            11 C    0.109
     9   6 C    3.992 --     8 C    1.451    10 C    1.435    29 H    0.971
                            12 C    0.109
    10   6 C    3.987 --    11 C    1.435     9 C    1.435    30 H    0.972
                             7 C    0.106
    11   6 C    3.992 --    12 C    1.451    10 C    1.435    31 H    0.971
                             8 C    0.109
    12   6 C    3.991 --    11 C    1.451     7 C    1.390    32 H    0.969
                             9 C    0.109
    13   6 C    3.991 --    14 C    1.454     6 C    1.387    33 H    0.968
                             4 C    0.106
    14   6 C    3.991 --    13 C    1.454     3 C    1.409    34 H    0.966
                             5 C    0.106
    15   6 C    3.987 --    16 C    1.420    20 C    1.407     2 C    0.978
                            18 C    0.109
    16   6 C    3.991 --    17 C    1.438    15 C    1.420    35 H    0.967
                            19 C    0.110
    17   6 C    3.992 --    18 C    1.444    16 C    1.438    36 H    0.971
                            20 C    0.113
    18   6 C    3.991 --    17 C    1.444    19 C    1.434    37 H    0.971
                            15 C    0.109
    19   6 C    3.991 --    20 C    1.450    18 C    1.434    38 H    0.971
                            16 C    0.110
    20   6 C    3.991 --    19 C    1.450    15 C    1.407    39 H    0.970
                            17 C    0.113
    21   6 C    3.940 --    22 C    1.581     1 N    1.200    40 H    0.971
                            24 C    0.113
    22   6 C    3.975 --    21 C    1.581    23 N    1.299    41 H    0.971
    23   7 N    3.024 --    24 C    1.545    22 C    1.299     1 N    0.102
    24   6 C    3.958 --    23 N    1.545     1 N    1.248    42 H    0.964
                            21 C    0.113
    25   1 H    0.997 --     2 C    0.951
    26   1 H    0.998 --     4 C    0.968
    27   1 H    0.998 --     5 C    0.968
    28   1 H    0.999 --     8 C    0.969
    29   1 H    0.998 --     9 C    0.971
    30   1 H    0.999 --    10 C    0.972
    31   1 H    0.998 --    11 C    0.971
    32   1 H    0.999 --    12 C    0.969
    33   1 H    0.998 --    13 C    0.968
    34   1 H    0.998 --    14 C    0.966
    35   1 H    0.999 --    16 C    0.967
    36   1 H    0.998 --    17 C    0.971
    37   1 H    0.998 --    18 C    0.971
    38   1 H    0.998 --    19 C    0.971
    39   1 H    0.999 --    20 C    0.970
    40   1 H    0.999 --    21 C    0.971
    41   1 H    0.998 --    22 C    0.971
    42   1 H    0.999 --    24 C    0.964
 ---------------------------------------------------------------------------

Topologies differ in total number of bonds
Writing topology from bond orders to xtbtopo.mol

molecular dipole:
                 x           y           z       tot (Debye)
 q only:       -0.485      -1.092      -0.514
   full:       -0.426      -1.562      -0.550       4.347
molecular quadrupole (traceless):
                xx          xy          yy          xz          yz          zz
 q only:        4.836      -8.129      -6.454      -4.801      -6.928       1.618
  q+dip:        8.076     -10.926     -10.088      -5.772     -13.883       2.012
   full:        7.713     -11.376     -10.928      -5.014     -11.359       3.215


           -------------------------------------------------
          | TOTAL ENERGY              -62.120758412238 Eh   |
          | GRADIENT NORM               0.000416038226 Eh/α |
          | HOMO-LUMO GAP               3.083326263749 eV   |
           -------------------------------------------------

------------------------------------------------------------------------
 * finished run on 2025/05/15 at 16:33:04.646     
------------------------------------------------------------------------
 total:
 * wall-time:     0 d,  0 h,  0 min,  0.054 sec
 *  cpu-time:     0 d,  0 h,  0 min,  0.053 sec
 * ratio c/w:     0.981 speedup
 SCF:
 * wall-time:     0 d,  0 h,  0 min,  0.041 sec
 *  cpu-time:     0 d,  0 h,  0 min,  0.040 sec
 * ratio c/w:     0.995 speedup



----- FOD -----
      -----------------------------------------------------------      
     |                   =====================                   |     
     |                           x T B                           |     
[...]
   
   for ddCOSMO and CPCM-X implicit solvation:
   * M. Stahn, S. Ehlert, S. Grimme, J. Phys. Chem. A,
     2023, XX, XXXX-XXXX. DOI: 10.1021/acs.jpca.3c04382
   
   for DFT-D4:
   * E. Caldeweyher, C. Bannwarth and S. Grimme, J. Chem. Phys., 2017,
     147, 034112. DOI: 10.1063/1.4993215
   * E. Caldeweyher, S. Ehlert, A. Hansen, H. Neugebauer, S. Spicher,
     C. Bannwarth and S. Grimme, J. Chem. Phys., 2019, 150, 154122.
     DOI: 10.1063/1.5090222
   * E. Caldeweyher, J.-M. Mewes, S. Ehlert and S. Grimme, Phys. Chem. Chem. Phys.
     2020, 22, 8499-8512. DOI: 10.1039/D0CP00502A
   
   for sTDA-xTB:
   * S. Grimme and C. Bannwarth, J. Chem. Phys., 2016, 145, 054103.
     DOI: 10.1063/1.4959605
   
   in the mass-spec context:
   * V. Asgeirsson, C. Bauer and S. Grimme, Chem. Sci., 2017, 8, 4879.
     DOI: 10.1039/c7sc00601b
   * J. Koopman and S. Grimme, ACS Omega 2019, 4, 12, 15120-15133.
     DOI: 10.1021/acsomega.9b02011
   
   for metadynamics refer to:
   * S. Grimme, J. Chem. Theory Comput., 2019, 155, 2847-2862
     DOI: 10.1021/acs.jctc.9b00143
   
   for SPH calculations refer to:
   * S. Spicher and S. Grimme, J. Chem. Theory Comput., 2021, 17, 1701-1714
     DOI: 10.1021/acs.jctc.0c01306
   
   for ONIOM refer to:
   * C. Plett, A. Katbashev, S. Ehlert, S. Grimme, M. Bursch,
     Phys. Chem. Chem. Phys., 2023, 25, 17860-17868. DOI: 10.1039/D3CP02178E
   
   for DIPRO refer to:
   * J. Kohn, N. Gildemeister, S. Grimme, D. Fazzi, A. Hansen,
     J. Chem. Phys., 2023, just accepted.
   
   for PTB refer to:
   * S. Grimme, M. Mueller, A. Hansen, J. Chem. Phys., 2023, 158, 124111.
     DOI: 10.1063/5.0137838
   
   with help from (in alphabetical order)
   P. Atkinson, C. Bannwarth, F. Bohle, G. Brandenburg, E. Caldeweyher
   M. Checinski, S. Dohm, S. Ehlert, S. Ehrlich, I. Gerasimov, C. Hölzer
   A. Katbashev, J. Kohn, J. Koopman, C. Lavigne, S. Lehtola, F. März, M. Müller,
   F. Musil, H. Neugebauer, J. Pisarek, C. Plett, P. Pracht, F. Pultar,
   J. Seibert, P. Shushkov, S. Spicher, M. Stahn, M. Steiner, T. Strunk,
   J. Stückrath, T. Rose, and J. Unsleber
   
 * started run on 2025/05/15 at 16:33:07.402     
   ID    Z sym.   atoms
    1    7 N      1, 23
    2    6 C      2-22, 24
    3    1 H      25-42

           -------------------------------------------------
          |                Calculation Setup                |
           -------------------------------------------------

          program call               : xtb /rds/general/user/hgt20/home/callum/QDESCP/Bifonazole_rdkit_conf_4/Bifonazole_rdkit_conf_4.xyz --acc 1 --gfn 2 --chrg 0 --uhf 2 --etemp 300 --input /rds/general/user/hgt20/home/callum/QDESCP/Bifonazole_rdkit_conf_4/Bifonazole_rdkit_conf_4_xtb.inp -P 1
          hostname                   : login-c
          coordinate file            : /rds/general/user/hgt20/home/callum/QDESCP/Bifonazole_rdkit_conf_4/Bifonazole_rdkit_conf_4.xyz
          omp threads                :                     1


           -------------------------------------------------
          |                 G F N 2 - x T B                 |
           -------------------------------------------------

        Reference                      10.1021/acs.jctc.8b01176
      * Hamiltonian:
        H0-scaling (s, p, d)           1.850000    2.230000    2.230000
        zeta-weighting                 0.500000
      * Dispersion:
        s8                             2.700000
        a1                             0.520000
        a2                             5.000000
        s9                             5.000000
      * Repulsion:
        kExp                           1.500000    1.000000
        rExp                           1.000000
      * Coulomb:
        alpha                          2.000000
        third order                    shell-resolved
        anisotropic                    true
        a3                             3.000000
        a5                             4.000000
        cn-shift                       1.200000
        cn-exp                         4.000000
        max-rad                        5.000000


          ...................................................
          :                      SETUP                      :
          :.................................................:
          :  # basis functions                 114          :
          :  # atomic orbitals                 114          :
          :  # shells                           66          :
          :  # electrons                       116          :
          :  max. iterations                   250          :
          :  Hamiltonian                  GFN2-xTB          :
          :  restarted?                      false          :
          :  GBSA solvation                  false          :
          :  PC potential                    false          :
          :  electronic temp.          300.0000000     K    :
          :  accuracy                    1.0000000          :
          :  -> integral cutoff          0.2500000E+02      :
          :  -> integral neglect         0.1000000E-07      :
          :  -> SCF convergence          0.1000000E-05 Eh   :
          :  -> wf. convergence          0.1000000E-03 e    :
          :  Broyden damping             0.4000000          :
          :  net charge                          0          :
          :  unpaired electrons                  2          :
          ...................................................

 iter      E             dE          RMSdq      gap      omega  full diag
   1    -62.9995065 -0.629995E+02  0.401E+00    0.58       0.0  T
   2    -62.8430404  0.156466E+00  0.317E+00    0.06       1.0  T
   3    -62.7175824  0.125458E+00  0.269E+00    0.62       1.0  T
   4    -62.8609716 -0.143389E+00  0.190E+00    0.38       1.0  T
   5    -63.1031344 -0.242163E+00  0.854E-01    0.39       1.0  T
   6    -63.1076281 -0.449375E-02  0.658E-01    0.36       1.0  T
   7    -63.1218526 -0.142245E-01  0.460E-01    0.32       1.0  T
   8    -63.1274030 -0.555035E-02  0.271E-01    0.39       1.0  T
   9    -63.0498425  0.775605E-01  0.943E-01    0.44       1.0  T
  10    -63.1263325 -0.764901E-01  0.243E-01    0.39       1.0  T
  11    -63.1278769 -0.154431E-02  0.180E-01    0.38       1.0  T
  12    -63.1287421 -0.865201E-03  0.138E-01    0.37       1.0  T
  13    -63.1296699 -0.927794E-03  0.844E-02    0.37       1.0  T
  14    -63.1298232 -0.153318E-03  0.715E-02    0.37       1.0  T
  15    -63.1301757 -0.352578E-03  0.279E-02    0.37       1.0  T
  16    -63.1302275 -0.517633E-04  0.109E-02    0.37       1.4  T
  17    -63.1302211  0.640470E-05  0.142E-02    0.36       1.1  T
  18    -63.1302371 -0.159525E-04  0.287E-03    0.36       5.4  T
  19    -63.1302371  0.106447E-08  0.273E-03    0.36       5.7  T
  20    -63.1302377 -0.626714E-06  0.687E-05    0.36     224.4  T
  21    -63.1302377  0.612616E-09  0.976E-05    0.36     158.1  T

   *** convergence criteria satisfied after 21 iterations ***

         #    Occupation            Energy/Eh            Energy/eV
      -------------------------------------------------------------
         1        2.0000           -0.6911734             -18.8078
       ...           ...                  ...                  ...
        53        2.0000           -0.4068181             -11.0701
        54        2.0000           -0.4047696             -11.0143
        55        2.0000           -0.4028667             -10.9626
        56        1.9983           -0.3933718             -10.7042
        57        1.9586           -0.3903118             -10.6209
        58        1.0431           -0.3843828             -10.4596
        59        0.9991           -0.2458892              -6.6910 (HOMO)
        60        0.0008           -0.2324806              -6.3261 (LUMO)
        61        0.0001           -0.2308255              -6.2811
        62        0.0000           -0.2241159              -6.0985
        63                         -0.2208790              -6.0104
        64                         -0.2077548              -5.6533
       ...                                ...                  ...
       114                          0.6906517              18.7936
      -------------------------------------------------------------
                  HL-Gap            0.0134086 Eh            0.3649 eV
             Fermi-level           -0.3132944 Eh           -8.5252 eV

 transition dipole moment (au) for excitation:          58          59
     X       Y       Z   
   2.0730  -0.0097   0.0879  total (au/Debye):    2.075   5.274
 dE (eV)             :    3.769
 oscillator strength :  0.56214E+00

 SCC (total)                   0 d,  0 h,  0 min,  0.193 sec
 SCC setup                      ...        0 min,  0.000 sec (  0.198%)
 Dispersion                     ...        0 min,  0.001 sec (  0.266%)
 classical contributions        ...        0 min,  0.000 sec (  0.077%)
 integral evaluation            ...        0 min,  0.008 sec (  4.121%)
 iterations                     ...        0 min,  0.096 sec ( 49.979%)
 molecular gradient             ...        0 min,  0.080 sec ( 41.691%)
 printout                       ...        0 min,  0.007 sec (  3.664%)

         :::::::::::::::::::::::::::::::::::::::::::::::::::::
         ::                     SUMMARY                     ::
         :::::::::::::::::::::::::::::::::::::::::::::::::::::
         :: total energy             -61.984427906438 Eh    ::
         :: gradient norm              0.159433099629 Eh/a0 ::
         :: HOMO-LUMO gap              0.364867649259 eV    ::
         ::.................................................::
         :: SCC energy               -63.130007779423 Eh    ::
         :: -> isotropic ES            0.011055955868 Eh    ::
         :: -> anisotropic ES          0.007974240009 Eh    ::
         :: -> anisotropic XC          0.041261811041 Eh    ::
         :: -> dispersion             -0.049938488770 Eh    ::
         :: repulsion energy           1.145579872984 Eh    ::
         :: add. restraining           0.000000000000 Eh    ::
         :: total charge              -0.000000000000 e     ::
         :::::::::::::::::::::::::::::::::::::::::::::::::::::

           -------------------------------------------------
          |                Property Printout                |
           -------------------------------------------------

    * Orbital Energies and Occupations

         #    Occupation            Energy/Eh            Energy/eV
      -------------------------------------------------------------
         1        2.0000           -0.6911734             -18.8078
       ...           ...                  ...                  ...
        47        2.0000           -0.4298438             -11.6966
        48        2.0000           -0.4231331             -11.5140
        49        2.0000           -0.4203824             -11.4392
        50        2.0000           -0.4156092             -11.3093
        51        2.0000           -0.4126666             -11.2292
        52        2.0000           -0.4115887             -11.1999
        53        2.0000           -0.4068181             -11.0701
        54        2.0000           -0.4047696             -11.0143
        55        2.0000           -0.4028667             -10.9626
        56        1.9983           -0.3933718             -10.7042
        57        1.9586           -0.3903118             -10.6209
        58        1.0431           -0.3843828             -10.4596
        59        0.9991           -0.2458892              -6.6910 (HOMO)
        60        0.0008           -0.2324806              -6.3261 (LUMO)
        61        0.0001           -0.2308255              -6.2811
        62        0.0000           -0.2241159              -6.0985
        63                         -0.2208790              -6.0104
        64                         -0.2077548              -5.6533
        65                         -0.2002942              -5.4503
        66                         -0.1721082              -4.6833
        67                         -0.1067147              -2.9039
        68                         -0.1025149              -2.7896
        69                         -0.0753612              -2.0507
        70                          0.0135229               0.3680
       ...                                ...                  ...
       114                          0.6906517              18.7936
      -------------------------------------------------------------
                  HL-Gap            0.0134086 Eh            0.3649 eV
             Fermi-level           -0.3132944 Eh           -8.5252 eV

     #   Z          covCN         q      C6AA      α(0)
     1   7 N        2.863    -0.011    21.465     6.881
     2   6 C        3.801     0.031    20.058     6.376
     3   6 C        2.975    -0.010    28.273     8.722
     4   6 C        2.922    -0.040    28.998     8.831
     5   6 C        2.924    -0.033    28.822     8.804
     6   6 C        2.977     0.000    28.020     8.683
     7   6 C        2.977     0.010    27.800     8.649
     8   6 C        2.925    -0.033    28.826     8.805
     9   6 C        2.919    -0.030    28.738     8.791
    10   6 C        2.920    -0.031    28.767     8.795
    11   6 C        2.919    -0.029    28.736     8.791
    12   6 C        2.925    -0.034    28.840     8.807
    13   6 C        2.925    -0.035    28.870     8.811
    14   6 C        2.921    -0.038    28.951     8.824
    15   6 C        2.974     0.004    27.932     8.669
    16   6 C        2.922    -0.035    28.874     8.812
    17   6 C        2.920    -0.028    28.697     8.785
    18   6 C        2.920    -0.031    28.774     8.797
    19   6 C        2.920    -0.029    28.718     8.788
    20   6 C        2.925    -0.035    28.869     8.811
    21   6 C        3.050    -0.022    28.510     8.757
    22   6 C        3.162     0.016    27.320     8.544
    23   7 N        1.916    -0.235    26.990     7.703
    24   6 C        3.177     0.085    25.724     8.282
    25   1 H        0.923     0.055     2.263     2.353
    26   1 H        0.926     0.023     2.686     2.563
    27   1 H        0.926     0.032     2.551     2.498
    28   1 H        0.926     0.030     2.581     2.513
    29   1 H        0.926     0.029     2.604     2.523
    30   1 H        0.926     0.027     2.624     2.533
    31   1 H        0.926     0.028     2.611     2.527
    32   1 H        0.926     0.029     2.594     2.519
    33   1 H        0.926     0.031     2.568     2.506
    34   1 H        0.926     0.027     2.624     2.533
    35   1 H        0.926     0.032     2.555     2.499
    36   1 H        0.926     0.034     2.527     2.486
    37   1 H        0.926     0.033     2.538     2.491
    38   1 H        0.926     0.034     2.531     2.488
    39   1 H        0.926     0.029     2.599     2.521
    40   1 H        0.926     0.035     2.517     2.481
    41   1 H        0.926     0.039     2.468     2.456
    42   1 H        0.926     0.044     2.397     2.421

 Mol. C6AA /au·bohr⁶  :      23993.817446
 Mol. C8AA /au·bohr⁸  :     595709.056459
 Mol. α(0) /au        :        249.427234


Wiberg/Mayer (AO) data.
largest (>0.10) Wiberg bond orders for each atom

 ---------------------------------------------------------------------------
     #   Z sym  total        # sym  WBO       # sym  WBO       # sym  WBO
 ---------------------------------------------------------------------------
     1   7 N    3.632 --    24 C    1.257    21 C    1.209     2 C    0.954
     2   6 C    3.961 --     3 C    0.981    15 C    0.978     1 N    0.954
                            25 H    0.943
     3   6 C    3.804 --    14 C    1.258     4 C    1.255     2 C    0.981
     4   6 C    3.963 --     5 C    1.578     3 C    1.255    26 H    0.968
     5   6 C    3.954 --     4 C    1.578     6 C    1.186    27 H    0.968
     6   6 C    3.885 --     7 C    1.233     5 C    1.186    13 C    1.184
     7   6 C    3.892 --     6 C    1.233    12 C    1.202     8 C    1.202
     8   6 C    3.951 --     9 C    1.552     7 C    1.202    28 H    0.969
     9   6 C    3.965 --     8 C    1.552    10 C    1.310    29 H    0.970
    10   6 C    3.794 --     9 C    1.310    11 C    1.309    30 H    0.972
    11   6 C    3.965 --    12 C    1.552    10 C    1.309    31 H    0.970
    12   6 C    3.952 --    11 C    1.552     7 C    1.202    32 H    0.969
    13   6 C    3.955 --    14 C    1.577     6 C    1.184    33 H    0.969
    14   6 C    3.965 --    13 C    1.577     3 C    1.258    34 H    0.967
    15   6 C    3.976 --    16 C    1.408    20 C    1.400     2 C    0.978
                            18 C    0.102
    16   6 C    3.983 --    17 C    1.440    15 C    1.408    35 H    0.967
                            19 C    0.107
    17   6 C    3.989 --    16 C    1.440    18 C    1.440    36 H    0.971
                            20 C    0.111
    18   6 C    3.976 --    17 C    1.440    19 C    1.426    37 H    0.971
                            15 C    0.102
    19   6 C    3.985 --    20 C    1.453    18 C    1.426    38 H    0.971
                            16 C    0.107
    20   6 C    3.986 --    19 C    1.453    15 C    1.400    39 H    0.970
                            17 C    0.111
    21   6 C    3.931 --    22 C    1.571     1 N    1.209    40 H    0.970
                            24 C    0.104
    22   6 C    3.957 --    21 C    1.571    23 N    1.291    41 H    0.970
    23   7 N    3.013 --    24 C    1.531    22 C    1.291
    24   6 C    3.950 --    23 N    1.531     1 N    1.257    42 H    0.961
                            21 C    0.104
    25   1 H    0.991 --     2 C    0.943
    26   1 H    0.999 --     4 C    0.968
    27   1 H    0.998 --     5 C    0.968
    28   1 H    0.999 --     8 C    0.969
    29   1 H    0.999 --     9 C    0.970
    30   1 H    0.999 --    10 C    0.972
    31   1 H    0.999 --    11 C    0.970
    32   1 H    0.999 --    12 C    0.969
    33   1 H    0.999 --    13 C    0.969
    34   1 H    0.999 --    14 C    0.967
    35   1 H    0.999 --    16 C    0.967
    36   1 H    0.999 --    17 C    0.971
    37   1 H    0.998 --    18 C    0.971
    38   1 H    0.998 --    19 C    0.971
    39   1 H    0.999 --    20 C    0.970
    40   1 H    0.998 --    21 C    0.970
    41   1 H    0.997 --    22 C    0.970
    42   1 H    0.997 --    24 C    0.961
 ---------------------------------------------------------------------------

Topologies differ in total number of bonds
Writing topology from bond orders to xtbtopo.mol

molecular dipole:
                 x           y           z       tot (Debye)
 q only:        0.204      -0.696      -0.230
   full:        0.256      -1.089      -0.255       2.915
molecular quadrupole (traceless):
                xx          xy          yy          xz          yz          zz
 q only:        3.568      -5.492      -4.804      -1.461      -4.683       1.236
  q+dip:        7.445      -7.827      -8.211      -2.292     -10.602       0.766
   full:        6.554      -8.227      -8.860      -1.620      -8.464       2.305


           -------------------------------------------------
          | TOTAL ENERGY              -61.984427906438 Eh   |
          | GRADIENT NORM               0.159433099629 Eh/α |
          | HOMO-LUMO GAP               0.364867649259 eV   |
           -------------------------------------------------

------------------------------------------------------------------------
 * finished run on 2025/05/15 at 16:33:07.609     
------------------------------------------------------------------------
 total:
 * wall-time:     0 d,  0 h,  0 min,  0.206 sec
 *  cpu-time:     0 d,  0 h,  0 min,  0.098 sec
 * ratio c/w:     0.474 speedup
 SCF:
 * wall-time:     0 d,  0 h,  0 min,  0.193 sec
 *  cpu-time:     0 d,  0 h,  0 min,  0.086 sec
 * ratio c/w:     0.443 speedup


