57
 energy: -87.645560822648 gnorm: 0.000513832876 xtb: 6.7.1 (edcfbbe)
O           -2.92595706153643       -1.67350788258616        0.89788397814026
C           -3.45904295611380       -0.75475411593409        0.29795154631866
C           -2.79417585540332        0.19795191221145       -0.56118885245071
C           -1.31160226420170        0.05118732602897       -0.68219278683426
C           -0.61131430633547        0.78547085244945        0.48672436859107
N            0.82954355589850        0.79029732185755        0.45741351317620
C            1.42068255226636        1.54383512615898       -0.62788121690942
C            2.89594558881532        1.79570364265260       -0.32720132676264
C            3.62590955813497        0.46507371445164       -0.15669242574207
C            2.91721503133310       -0.34604122851176        0.93788786901238
C            1.44329177421174       -0.51440586020118        0.57869164019839
C            5.05679434808154        0.65175780832886        0.20609095511023
N            5.52437627032478        1.75135195041177        0.71222224981429
O            6.86017831841523        1.59889741647903        0.97545572050672
C            7.22406562978581        0.35688324448962        0.61710337998106
C            6.10422226655320       -0.32652888947822        0.10446463585058
C            6.22526599743845       -1.64009703018722       -0.34414827129696
C            7.46141600769393       -2.23753207968636       -0.26413068838079
C            8.55063478208456       -1.53087862327509        0.25370190745115
F            9.73774931665949       -2.16373431958602        0.30990811394304
C            8.47815763743957       -0.23090812073450        0.70511359169268
C           -3.51914576483753        1.18063132464377       -1.17475701534635
N           -4.86571701347920        1.29117364915840       -1.01962909549640
C           -5.47058399873385        0.44585714410469       -0.25447808939590
N           -4.84055412369997       -0.55140323294841        0.40635414069146
C           -5.64483871219947       -1.46553555303072        1.18671016177211
C           -6.79018955564530       -1.98627568052010        0.32086673648914
C           -7.61816378384330       -0.82955680914898       -0.26662009485357
C           -6.94484131757234        0.53186419762792       -0.03614976110377
C           -2.91043425202555        2.20982814490598       -2.07557721324192
H           -0.96134507273360        0.45136106097021       -1.63344158039335
H           -1.06518942997254       -1.01023596722341       -0.62032730415127
H           -0.92423944496702        0.31211642487757        1.42111759848038
H           -0.94450172196363        1.82766151633043        0.50661062432728
H            0.89551766225963        2.49787043149056       -0.71422568059819
H            1.33693975579967        1.01506510024441       -1.59585458137195
H            3.34878262642858        2.37288834408554       -1.13401078123416
H            2.98851147462716        2.36691392313501        0.59529446477658
H            3.58093020124446       -0.10207734946497       -1.09518799065223
H            3.38690560990065       -1.32436179184510        1.05561256674812
H            2.99420509211028        0.19446148051791        1.88188571954462
H            0.92946568366317       -1.06691122139250        1.36793722564673
H            1.36594810089761       -1.09800624532335       -0.35692192664119
H            5.37487575441567       -2.17063047719611       -0.74223275042893
H            7.61635917941712       -3.25231934927030       -0.59486245470532
H            9.33658883158859        0.28670983822791        1.09714025335771
H           -6.03180802997982       -0.95036347929643        2.07209816559867
H           -4.98466571846802       -2.27452644099579        1.50944535184420
H           -6.35968779243588       -2.58161855931137       -0.48607135163691
H           -7.41608681461835       -2.64578559973929        0.92142970450599
H           -7.74569662816384       -0.98032625103361       -1.33896295317288
H           -8.61228011950096       -0.80478699786326        0.18079570639634
H           -7.35556879623893        1.28939694316892       -0.70154333373036
H           -7.11778644333423        0.85374211809939        0.99485273681359
H           -3.68539116092677        2.90047328024057       -2.39382952299976
H           -2.12594947586128        2.75972966650720       -1.56049441702220
H           -2.47402099268746        1.73695425193686       -2.95425116019658
