41
 energy: -72.630034601353 gnorm: 0.000948398720 xtb: 6.7.1 (edcfbbe)
C            0.27794207126433       -3.10394641517335        1.63091670776406
C            0.46461402749852       -1.80131264873635        0.94850069759005
C            1.58424827073352       -1.02846821318635        0.87235733136590
C            1.26580248264464        0.12488624098126        0.08078161434010
C           -0.09505637310792        0.02350428927472       -0.26370170051786
N           -0.59101402549429       -1.15342284604197        0.29811581342998
C           -1.89006324242873       -1.63510526040828        0.22405839690173
C           -2.95678041553386       -0.60217458306019        0.11999348393678
C           -4.06111202320133       -0.84670989156836       -0.69027087312022
C           -5.10492929171069        0.05715797686032       -0.74339295126394
C           -5.05431052889755        1.19857443241275        0.04317530712525
Cl          -6.35515213180185        2.33074964596291       -0.01335193712272
C           -3.97555719316677        1.43896510644508        0.88274471738503
C           -2.92836520162550        0.53933499668628        0.91817530030543
O           -2.15337640536013       -2.81415367751839        0.29450941012921
C           -0.67198640832291        0.95259640580831       -1.11857927836874
C            0.10745268129395        1.99945853989660       -1.55912920360712
C            1.45449506652887        2.13224508784992       -1.18602850510626
O            2.09193502155282        3.22102320744378       -1.70233242353706
C            3.44875008977835        3.41220494215447       -1.38524376793420
C            2.04729113150923        1.18527237716441       -0.36855377445438
C            2.93617472130875       -1.31497519281334        1.45255419181824
C            3.73638735222764       -2.03951425750455        0.39413117788129
O            4.41561860764829       -1.18757169303289       -0.38513232089868
O            3.75569312496773       -3.22682736008709        0.22490565588287
H            0.06294401054292       -3.88283649330851        0.90147594897572
H            1.18084890982104       -3.37449739765826        2.16970032039258
H           -0.56287158529260       -3.06627005536272        2.32254711294510
H           -4.08798868298377       -1.74800761689255       -1.28325830220387
H           -5.95538763121602       -0.12185793416748       -1.38195902056677
H           -3.95992797329479        2.32239648980703        1.50089028311387
H           -2.08913750489981        0.72142963525830        1.57258413392608
H           -1.69406818688947        0.87020390205101       -1.45013561452095
H           -0.30295671688188        2.74423904044168       -2.22142221794730
H            4.06625892030832        2.58047338915261       -1.73964824456096
H            3.59542644635868        3.53895039013316       -0.30749940458432
H            3.74564362584946        4.32540822903709       -1.89841717294018
H            3.08985525579587        1.22932512653504       -0.10139231031692
H            2.85281460851343       -1.95187062496184        2.33206492332015
H            3.43513285935660       -0.38085863338230        1.70702442017020
H            4.87481223660695       -1.66791865649109       -1.09205792512728
