57
 energy: -90.579142937517 gnorm: 0.000205725609 xtb: 6.7.1 (edcfbbe)
C           -3.73263019308632        1.20029237078589       -1.78465312458445
N           -3.51759293084149        1.21539118245923       -0.35640157011464
C           -4.38543611597704        1.83832991328832        0.47254465395953
N           -4.17805047650060        1.80583058442170        1.76687417841719
C           -5.06794176374565        2.43618612216846        2.55678121561552
C           -6.16342878005567        3.10294162915273        2.11045418938271
C           -6.42322571459748        3.16825627883391        0.70228718724757
N           -5.45332526593292        2.48852337582499       -0.06084228552712
O           -7.33953643326604        3.71726187610131        0.12487182259134
C           -2.38170481900222        0.51014240721749        0.21394065665397
C           -2.44472529728277       -0.99959063374413       -0.03227393333703
C           -1.25655770332830       -1.67171564060303        0.65009391576134
C           -1.04230555915633        1.05663612030781       -0.28724279680223
C            0.08856407146751        0.30294345668733        0.40767994768040
N           -0.02745562016542       -1.11631695675853        0.10677140164316
C            1.08421676267375       -1.90841477964676        0.28300249072191
N            1.14323450360735       -2.94580285009978        1.07038067600278
C            2.38724481973783       -3.49190523533003        0.87441318184021
C            3.08934466898320       -2.72937858582138       -0.08607873113770
N            2.22823527612529       -1.71887001881711       -0.46175249681671
C            2.42386937562943       -0.81008004747938       -1.55612967739727
C            3.09061566227732        0.49188373728758       -1.17129488554919
C            3.96806797632582        0.55827378858389       -0.09579629800856
C            4.58627454733320        1.75039355457984        0.23654209134713
C            4.32035365899269        2.87396941100220       -0.52385466498538
F            4.91805183183177        4.03946006200640       -0.20612771720212
C            3.45480359868493        2.83612510021169       -1.60235772128152
C            2.84218876962692        1.63811752467709       -1.91853241127114
C            4.37833453217783       -3.04839836983102       -0.47314932631203
C            4.95656151530040       -4.15564399483051        0.12041295963905
C            4.27294836959724       -4.91335403500910        1.06977905408620
C            2.98644892287300       -4.59847818472695        1.46035942722884
H           -2.94880001992664        0.61278513045670       -2.25213991242251
H           -4.69285967332600        0.74158504323913       -2.03880466359910
H           -3.69407667320134        2.21048092334376       -2.20379373908354
H           -4.83992027442425        2.36852363355335        3.61224336321880
H           -6.85274649610752        3.59172588273212        2.77675747804018
H           -5.60660178257838        2.51756854464521       -1.06002990077030
H           -2.45283699905554        0.69149755327682        1.29047735718067
H           -3.37452688737954       -1.40120065722598        0.37046357314999
H           -2.40632804524697       -1.21704937851580       -1.10089220586773
H           -1.25240078489102       -2.74491901549456        0.46020036449236
H           -1.31054796146387       -1.51927752572864        1.73637620412869
H           -0.96562980089227        2.12124761843699       -0.06449822437752
H           -0.94834082014182        0.92023082496252       -1.36585658215894
H            1.05623397478011        0.67708539511238        0.07405925108367
H            0.01786323748199        0.46756427330202        1.49428853605097
H            1.44952575983291       -0.60868776914482       -2.01325853859872
H            3.04863456157999       -1.31784934323170       -2.30220380554944
H            4.16773776281202       -0.32506025170023        0.49150874543404
H            5.26705361272894        1.81422718916364        1.07015991437778
H            3.26948625482822        3.73106563188468       -2.17454459557777
H            2.16250660218618        1.59275373272840       -2.75685140025060
H            4.91619347591135       -2.46017665232249       -1.20292211386483
H            5.96145977207410       -4.43806589175947       -0.15632409408682
H            4.76667418295762       -5.76769047051525        1.50886126736552
H            2.45650483115960       -5.18207358410062        2.19552231217583
