----- Optimization -----
      -----------------------------------------------------------      
     |                   =====================                   |     
     |                           x T B                           |     
     |                   =====================                   |     
     |                         S. Grimme                         |     
     |          Mulliken Center for Theoretical Chemistry        |     
     |                    University of Bonn                     |     
      -----------------------------------------------------------      

   * xtb version 6.7.1 (edcfbbe) compiled by 'conda@3ef47c1a292c' on 2024-11-25

   xtb is free software: you can redistribute it and/or modify it under
   the terms of the GNU Lesser General Public License as published by
   the Free Software Foundation, either version 3 of the License, or
   (at your option) any later version.
   
   xtb is distributed in the hope that it will be useful,
   but WITHOUT ANY WARRANTY; without even the implied warranty of
   MERCHANTABILITY or FITNESS FOR A PARTICULAR PURPOSE.  See the
   GNU Lesser General Public License for more details.
   
   Cite this work as:
   * C. Bannwarth, E. Caldeweyher, S. Ehlert, A. Hansen, P. Pracht,
     J. Seibert, S. Spicher, S. Grimme, WIREs Comput. Mol. Sci., 2020, 11,
     e01493. DOI: 10.1002/wcms.1493
   
   for GFN2-xTB:
   * C. Bannwarth, S. Ehlert and S. Grimme., J. Chem. Theory Comput., 2019,
     15, 1652-1671. DOI: 10.1021/acs.jctc.8b01176
   for GFN1-xTB:
   * S. Grimme, C. Bannwarth, P. Shushkov, J. Chem. Theory Comput., 2017,
     13, 1989-2009. DOI: 10.1021/acs.jctc.7b00118
   for GFN0-xTB:
   * P. Pracht, E. Caldeweyher, S. Ehlert, S. Grimme, ChemRxiv, 2019, preprint.
     DOI: 10.26434/chemrxiv.8326202.v1
   for GFN-FF:
   * S. Spicher and S. Grimme, Angew. Chem. Int. Ed., 2020, 59, 15665-15673.
     DOI: 10.1002/anie.202004239
   
   for ALPB and GBSA implicit solvation:
   * S. Ehlert, M. Stahn, S. Spicher, S. Grimme, J. Chem. Theory Comput.,
     2021, 17, 4250-4261. DOI: 10.1021/acs.jctc.1c00471
   
   for ddCOSMO and CPCM-X implicit solvation:
   * M. Stahn, S. Ehlert, S. Grimme, J. Phys. Chem. A,
     2023, XX, XXXX-XXXX. DOI: 10.1021/acs.jpca.3c04382
   
   for DFT-D4:
   * E. Caldeweyher, C. Bannwarth and S. Grimme, J. Chem. Phys., 2017,
     147, 034112. DOI: 10.1063/1.4993215
   * E. Caldeweyher, S. Ehlert, A. Hansen, H. Neugebauer, S. Spicher,
     C. Bannwarth and S. Grimme, J. Chem. Phys., 2019, 150, 154122.
     DOI: 10.1063/1.5090222
   * E. Caldeweyher, J.-M. Mewes, S. Ehlert and S. Grimme, Phys. Chem. Chem. Phys.
     2020, 22, 8499-8512. DOI: 10.1039/D0CP00502A
   
   for sTDA-xTB:
   * S. Grimme and C. Bannwarth, J. Chem. Phys., 2016, 145, 054103.
     DOI: 10.1063/1.4959605
   
   in the mass-spec context:
   * V. Asgeirsson, C. Bauer and S. Grimme, Chem. Sci., 2017, 8, 4879.
     DOI: 10.1039/c7sc00601b
   * J. Koopman and S. Grimme, ACS Omega 2019, 4, 12, 15120-15133.
     DOI: 10.1021/acsomega.9b02011
   
   for metadynamics refer to:
   * S. Grimme, J. Chem. Theory Comput., 2019, 155, 2847-2862
     DOI: 10.1021/acs.jctc.9b00143
   
   for SPH calculations refer to:
   * S. Spicher and S. Grimme, J. Chem. Theory Comput., 2021, 17, 1701-1714
     DOI: 10.1021/acs.jctc.0c01306
   
   for ONIOM refer to:
   * C. Plett, A. Katbashev, S. Ehlert, S. Grimme, M. Bursch,
     Phys. Chem. Chem. Phys., 2023, 25, 17860-17868. DOI: 10.1039/D3CP02178E
   
   for DIPRO refer to:
   * J. Kohn, N. Gildemeister, S. Grimme, D. Fazzi, A. Hansen,
     J. Chem. Phys., 2023, just accepted.
   
   for PTB refer to:
   * S. Grimme, M. Mueller, A. Hansen, J. Chem. Phys., 2023, 158, 124111.
     DOI: 10.1063/5.0137838
   
   with help from (in alphabetical order)
   P. Atkinson, C. Bannwarth, F. Bohle, G. Brandenburg, E. Caldeweyher
   M. Checinski, S. Dohm, S. Ehlert, S. Ehrlich, I. Gerasimov, C. Hölzer
   A. Katbashev, J. Kohn, J. Koopman, C. Lavigne, S. Lehtola, F. März, M. Müller,
   F. Musil, H. Neugebauer, J. Pisarek, C. Plett, P. Pracht, F. Pultar,
   J. Seibert, P. Shushkov, S. Spicher, M. Stahn, M. Steiner, T. Strunk,
   J. Stückrath, T. Rose, and J. Unsleber
   
 * started run on 2025/05/15 at 16:21:16.119     
   ID    Z sym.   atoms
    1    6 C      1, 3, 5-7, 10-14, 16, 18, 19, 21-25, 27-32
    2    7 N      2, 4, 8, 15, 17, 20
    3    8 O      9
    4    9 F      26
    5    1 H      33-57

           -------------------------------------------------
          |                Calculation Setup                |
           -------------------------------------------------

          program call               : xtb /rds/general/user/hgt20/home/callum/QDESCP/Mizolastine_rdkit_conf_3/Mizolastine_rdkit_conf_3.xyz --opt normal --acc 1 --gfn 2 --chrg 0 --uhf 0 -P 1
          hostname                   : login-c
          coordinate file            : /rds/general/user/hgt20/home/callum/QDESCP/Mizolastine_rdkit_conf_3/Mizolastine_rdkit_conf_3.xyz
          omp threads                :                     1


           -------------------------------------------------
          |                 G F N 2 - x T B                 |
           -------------------------------------------------

        Reference                      10.1021/acs.jctc.8b01176
      * Hamiltonian:
        H0-scaling (s, p, d)           1.850000    2.230000    2.230000
        zeta-weighting                 0.500000
      * Dispersion:
        s8                             2.700000
        a1                             0.520000
        a2                             5.000000
        s9                             5.000000
      * Repulsion:
        kExp                           1.500000    1.000000
        rExp                           1.000000
      * Coulomb:
        alpha                          2.000000
        third order                    shell-resolved
        anisotropic                    true
        a3                             3.000000
        a5                             4.000000
        cn-shift                       1.200000
        cn-exp                         4.000000
        max-rad                        5.000000


          ...................................................
          :                      SETUP                      :
          :.................................................:
          :  # basis functions                 153          :
          :  # atomic orbitals                 153          :
          :  # shells                           89          :
          :  # electrons                       164          :
          :  max. iterations                   250          :
          :  Hamiltonian                  GFN2-xTB          :
          :  restarted?                      false          :
          :  GBSA solvation                  false          :
          :  PC potential                    false          :
          :  electronic temp.          300.0000000     K    :
          :  accuracy                    1.0000000          :
          :  -> integral cutoff          0.2500000E+02      :
          :  -> integral neglect         0.1000000E-07      :
          :  -> SCF convergence          0.1000000E-05 Eh   :
          :  -> wf. convergence          0.1000000E-03 e    :
          :  Broyden damping             0.4000000          :
          :  net charge                          0          :
          :  unpaired electrons                  0          :
          ...................................................

 iter      E             dE          RMSdq      gap      omega  full diag
   1    -91.6390276 -0.916390E+02  0.374E+00    2.88       0.0  T
   2    -91.7957218 -0.156694E+00  0.230E+00    3.21       1.0  T
   3    -91.8014591 -0.573735E-02  0.119E+00    3.28       1.0  T
   4    -91.8097579 -0.829877E-02  0.403E-01    3.14       1.0  T
   5    -91.8167539 -0.699602E-02  0.101E-01    3.15       1.0  T
   6    -91.8169406 -0.186666E-03  0.516E-02    3.14       1.0  T
   7    -91.8170025 -0.618722E-04  0.200E-02    3.15       1.0  T
   8    -91.8170041 -0.167708E-05  0.931E-03    3.15       1.4  T
   9    -91.8170058 -0.167557E-05  0.328E-03    3.15       4.0  T
  10    -91.8170060 -0.207774E-06  0.131E-03    3.15      10.1  T
  11    -91.8170061 -0.331052E-07  0.619E-04    3.15      21.4  T
  12    -91.8170061 -0.531480E-08  0.275E-04    3.15      48.1  T

   *** convergence criteria satisfied after 12 iterations ***

         #    Occupation            Energy/Eh            Energy/eV
      -------------------------------------------------------------
         1        2.0000           -0.8289444             -22.5567
       ...           ...                  ...                  ...
        76        2.0000           -0.3947662             -10.7421
        77        2.0000           -0.3909185             -10.6374
        78        2.0000           -0.3851684             -10.4810
        79        2.0000           -0.3825098             -10.4086
        80        2.0000           -0.3812145             -10.3734
        81        2.0000           -0.3782840             -10.2936
        82        2.0000           -0.3733542             -10.1595 (HOMO)
        83                         -0.2575933              -7.0095 (LUMO)
        84                         -0.2531715              -6.8891
        85                         -0.2476955              -6.7401
        86                         -0.2439356              -6.6378
        87                         -0.2209645              -6.0127
       ...                                ...                  ...
       153                          0.7078444              19.2614
      -------------------------------------------------------------
                  HL-Gap            0.1157609 Eh            3.1500 eV
             Fermi-level           -0.3154737 Eh           -8.5845 eV

 SCC (total)                   0 d,  0 h,  0 min,  0.139 sec
 SCC setup                      ...        0 min,  0.001 sec (  0.431%)
 Dispersion                     ...        0 min,  0.001 sec (  0.629%)
 classical contributions        ...        0 min,  0.000 sec (  0.191%)
 integral evaluation            ...        0 min,  0.012 sec (  8.959%)
 iterations                     ...        0 min,  0.080 sec ( 57.481%)
 molecular gradient             ...        0 min,  0.045 sec ( 32.084%)
 printout                       ...        0 min,  0.000 sec (  0.220%)

         :::::::::::::::::::::::::::::::::::::::::::::::::::::
         ::                     SUMMARY                     ::
         :::::::::::::::::::::::::::::::::::::::::::::::::::::
         :: total energy             -90.559365613163 Eh    ::
         :: gradient norm              0.102707539308 Eh/a0 ::
         :: HOMO-LUMO gap              3.150014086914 eV    ::
         ::.................................................::
         :: SCC energy               -91.816272026622 Eh    ::
         :: -> isotropic ES            0.094472239630 Eh    ::
         :: -> anisotropic ES          0.008323278907 Eh    ::
         :: -> anisotropic XC          0.045843832061 Eh    ::
         :: -> dispersion             -0.067223117639 Eh    ::
         :: repulsion energy           1.256906413459 Eh    ::
         :: add. restraining           0.000000000000 Eh    ::
         :: total charge               0.000000000000 e     ::
         :::::::::::::::::::::::::::::::::::::::::::::::::::::

      ----------------------------------------------------------- 
     |                   =====================                   |
     |                        A N C O P T                        |
     |                   =====================                   |
     |               Approximate Normal Coordinate               |
     |                Rational Function Optimizer                |
      ----------------------------------------------------------- 
      ----------------------------------------------------------- 
     |                   =====================                   |
     |                        A N C O P T                        |
     |                   =====================                   |
     |               Approximate Normal Coordinate               |
     |                Rational Function Optimizer                |
      ----------------------------------------------------------- 

          ...................................................
          :                      SETUP                      :
          :.................................................:
          :   optimization level            normal          :
          :   max. optcycles                   200          :
          :   ANC micro-cycles                  20          :
          :   degrees of freedom               165          :
          :.................................................:
          :   RF solver                   davidson          :
          :   write xtbopt.log                true          :
          :   linear?                        false          :
          :   energy convergence         0.5000000E-05 Eh   :
          :   grad. convergence          0.1000000E-02 Eh/α :
          :   maxmium RF displ.          1.0000000          :
          :   Hlow (freq-cutoff)         0.1000000E-01      :
          :   Hmax (freq-cutoff)         5.0000000          :
          :   S6 in model hess.         20.0000000          :
          ...................................................

generating ANC from exact Hessian ...
Using Lindh-Hessian (1995)
 Shifting diagonal of input Hessian by    9.8186920939459122E-003
 Lowest  eigenvalues of input Hessian
    0.000000    0.000000    0.000000    0.000000    0.000000    0.000000
    0.010000    0.010121    0.010147    0.010594    0.010775    0.011025
    0.011396    0.011945    0.012113    0.013581    0.014232    0.014751
 Highest eigenvalues
    2.034175    2.072445    2.181442    2.221290    2.285491    2.444115


........................................................................
.............................. CYCLE    1 ..............................
........................................................................

 iter      E             dE          RMSdq      gap      omega  full diag
   1    -91.8170061 -0.918170E+02  0.109E-04    3.15       0.0  T
   2    -91.8170061 -0.107264E-09  0.703E-05    3.15     188.4  T
   3    -91.8170061 -0.755023E-10  0.464E-05    3.15     285.2  T
     SCC iter.                  ...        0 min,  0.012 sec
     gradient                   ...        0 min,  0.066 sec
 * total energy  :   -90.5593656 Eh     change       -0.2425296E-08 Eh
   gradient norm :     0.1027073 Eh/α   predicted     0.0000000E+00 (-100.00%)
   displ. norm   :     0.3372279 α      lambda       -0.1631637E-01
   maximum displ.:     0.1431278 α      in ANC's #42, #33, #48, ...

........................................................................
.............................. CYCLE    2 ..............................
........................................................................

 iter      E             dE          RMSdq      gap      omega  full diag
   1    -91.8579739 -0.918580E+02  0.190E-01    3.23       0.0  T
   2    -91.8582280 -0.254083E-03  0.119E-01    3.22       1.0  T
   3    -91.8582333 -0.531801E-05  0.647E-02    3.22       1.0  T
   4    -91.8583017 -0.683233E-04  0.176E-02    3.21       1.0  T
   5    -91.8583163 -0.145922E-04  0.427E-03    3.21       3.1  T
   6    -91.8583166 -0.302441E-06  0.189E-03    3.21       7.0  T
   7    -91.8583166 -0.324877E-07  0.697E-04    3.21      19.0  T
   8    -91.8583166 -0.115893E-07  0.218E-04    3.21      60.8  T
     SCC iter.                  ...        0 min,  0.075 sec
     gradient                   ...        0 min,  0.046 sec
 * total energy  :   -90.5706070 Eh     change       -0.1124135E-01 Eh
   gradient norm :     0.0493311 Eh/α   predicted    -0.9094737E-02 ( -19.10%)
   displ. norm   :     0.2805487 α      lambda       -0.4872328E-02
   maximum displ.:     0.0903579 α      in ANC's #33, #13, #42, ...

........................................................................
.............................. CYCLE    3 ..............................
........................................................................

 iter      E             dE          RMSdq      gap      omega  full diag
   1    -91.8791208 -0.918791E+02  0.120E-01    3.25       0.0  T
   2    -91.8792578 -0.137060E-03  0.753E-02    3.24       1.0  T
   3    -91.8792820 -0.241434E-04  0.435E-02    3.24       1.0  T
   4    -91.8793023 -0.203469E-04  0.129E-02    3.24       1.0  T
   5    -91.8793100 -0.764144E-05  0.257E-03    3.24       5.2  T
   6    -91.8793101 -0.112784E-06  0.115E-03    3.24      11.5  T
   7    -91.8793101 -0.106137E-07  0.408E-04    3.24      32.5  T
   8    -91.8793101 -0.356242E-08  0.145E-04    3.24      91.7  T
     SCC iter.                  ...        0 min,  0.039 sec
     gradient                   ...        0 min,  0.045 sec
 * total energy  :   -90.5735146 Eh     change       -0.2907637E-02 Eh
   gradient norm :     0.0181529 Eh/α   predicted    -0.2628925E-02 (  -9.59%)
   displ. norm   :     0.1960151 α      lambda       -0.7983735E-03
   maximum displ.:     0.0899052 α      in ANC's #7, #9, #13, ...

........................................................................
.............................. CYCLE    4 ..............................
........................................................................

 iter      E             dE          RMSdq      gap      omega  full diag
   1    -91.8815139 -0.918815E+02  0.484E-02    3.24       0.0  T
   2    -91.8815256 -0.117538E-04  0.290E-02    3.24       1.0  T
   3    -91.8815250  0.650935E-06  0.173E-02    3.24       1.0  T
   4    -91.8815314 -0.645574E-05  0.342E-03    3.24       3.9  T
   5    -91.8815320 -0.566764E-06  0.829E-04    3.24      16.0  T
   6    -91.8815320 -0.716165E-08  0.416E-04    3.24      31.8  T
     SCC iter.                  ...        0 min,  0.038 sec
     gradient                   ...        0 min,  0.046 sec
 * total energy  :   -90.5741087 Eh     change       -0.5940905E-03 Eh
   gradient norm :     0.0096342 Eh/α   predicted    -0.4145284E-03 ( -30.22%)
   displ. norm   :     0.3057444 α      lambda       -0.6906600E-03
   maximum displ.:     0.1569995 α      in ANC's #7, #9, #5, ...

........................................................................
.............................. CYCLE    5 ..............................
........................................................................

 iter      E             dE          RMSdq      gap      omega  full diag
   1    -91.8811008 -0.918811E+02  0.635E-02    3.24       0.0  T
   2    -91.8811097 -0.894359E-05  0.373E-02    3.24       1.0  T
   3    -91.8811008  0.887496E-05  0.196E-02    3.24       1.0  T
   4    -91.8811143 -0.134537E-04  0.294E-03    3.24       4.5  T
   5    -91.8811147 -0.397477E-06  0.101E-03    3.24      13.1  T
   6    -91.8811147 -0.653100E-08  0.487E-04    3.24      27.2  T
   7    -91.8811147 -0.477641E-08  0.127E-04    3.24     104.3  T
     SCC iter.                  ...        0 min,  0.053 sec
     gradient                   ...        0 min,  0.046 sec
 * total energy  :   -90.5745943 Eh     change       -0.4856298E-03 Eh
   gradient norm :     0.0071846 Eh/α   predicted    -0.3776144E-03 ( -22.24%)
   displ. norm   :     0.3166940 α      lambda       -0.4201556E-03
   maximum displ.:     0.1683493 α      in ANC's #7, #5, #9, ...

........................................................................
.............................. CYCLE    6 ..............................
........................................................................

 iter      E             dE          RMSdq      gap      omega  full diag
   1    -91.8800075 -0.918800E+02  0.593E-02    3.23       0.0  T
   2    -91.8800119 -0.435438E-05  0.345E-02    3.23       1.0  T
   3    -91.8800062  0.570698E-05  0.129E-02    3.23       1.0  T
   4    -91.8800134 -0.723667E-05  0.228E-03    3.23       5.8  T
   5    -91.8800136 -0.208836E-06  0.890E-04    3.23      14.9  T
   6    -91.8800136 -0.440237E-08  0.391E-04    3.23      33.9  T
     SCC iter.                  ...        0 min,  0.023 sec
     gradient                   ...        0 min,  0.046 sec
 * total energy  :   -90.5749189 Eh     change       -0.3245457E-03 Eh
   gradient norm :     0.0092707 Eh/α   predicted    -0.2311496E-03 ( -28.78%)
   displ. norm   :     0.3760602 α      lambda       -0.4279792E-03
   maximum displ.:     0.1940723 α      in ANC's #7, #5, #9, ...

........................................................................
.............................. CYCLE    7 ..............................
........................................................................

 iter      E             dE          RMSdq      gap      omega  full diag
   1    -91.8790584 -0.918791E+02  0.679E-02    3.22       0.0  T
   2    -91.8790622 -0.383229E-05  0.394E-02    3.22       1.0  T
   3    -91.8790601  0.219639E-05  0.832E-03    3.22       1.6  T
   4    -91.8790631 -0.300373E-05  0.231E-03    3.22       5.7  T
   5    -91.8790632 -0.176639E-06  0.962E-04    3.22      13.8  T
   6    -91.8790632 -0.764065E-08  0.375E-04    3.22      35.3  T
     SCC iter.                  ...        0 min,  0.048 sec
     gradient                   ...        0 min,  0.046 sec
 * total energy  :   -90.5752599 Eh     change       -0.3409832E-03 Eh
   gradient norm :     0.0098644 Eh/α   predicted    -0.2442540E-03 ( -28.37%)
   displ. norm   :     0.4401242 α      lambda       -0.4535759E-03
   maximum displ.:     0.2221975 α      in ANC's #7, #8, #5, ...

........................................................................
.............................. CYCLE    8 ..............................
........................................................................

 iter      E             dE          RMSdq      gap      omega  full diag
   1    -91.8786877 -0.918787E+02  0.801E-02    3.20       0.0  T
   2    -91.8786924 -0.469010E-05  0.465E-02    3.20       1.0  T
   3    -91.8786921  0.324278E-06  0.573E-03    3.20       2.3  T
   4    -91.8786933 -0.114226E-05  0.222E-03    3.20       6.0  T
   5    -91.8786934 -0.115626E-06  0.103E-03    3.20      12.8  T
   6    -91.8786934 -0.104104E-07  0.411E-04    3.20      32.2  T
   7    -91.8786934 -0.440097E-08  0.134E-04    3.20      99.1  T
     SCC iter.                  ...        0 min,  0.027 sec
     gradient                   ...        0 min,  0.046 sec
 * total energy  :   -90.5756070 Eh     change       -0.3471532E-03 Eh
   gradient norm :     0.0094172 Eh/α   predicted    -0.2707190E-03 ( -22.02%)
   displ. norm   :     0.4159569 α      lambda       -0.3803697E-03
   maximum displ.:     0.2044363 α      in ANC's #7, #8, #5, ...

........................................................................
.............................. CYCLE    9 ..............................
........................................................................

 iter      E             dE          RMSdq      gap      omega  full diag
   1    -91.8796228 -0.918796E+02  0.787E-02    3.18       0.0  T
   2    -91.8796277 -0.483550E-05  0.457E-02    3.18       1.0  T
   3    -91.8796276  0.102395E-06  0.513E-03    3.18       2.6  T
   4    -91.8796284 -0.799449E-06  0.202E-03    3.18       6.5  T
   5    -91.8796285 -0.105088E-06  0.976E-04    3.18      13.6  T
   6    -91.8796285 -0.646928E-08  0.368E-04    3.18      36.0  T
     SCC iter.                  ...        0 min,  0.024 sec
     gradient                   ...        0 min,  0.046 sec
 * total energy  :   -90.5758946 Eh     change       -0.2876343E-03 Eh
   gradient norm :     0.0083985 Eh/α   predicted    -0.2230923E-03 ( -22.44%)
   displ. norm   :     0.3773860 α      lambda       -0.3238006E-03
   maximum displ.:     0.1757029 α      in ANC's #8, #7, #6, ...

........................................................................
.............................. CYCLE   10 ..............................
........................................................................

 iter      E             dE          RMSdq      gap      omega  full diag
   1    -91.8817219 -0.918817E+02  0.753E-02    3.16       0.0  T
   2    -91.8817265 -0.461503E-05  0.439E-02    3.17       1.0  T
   3    -91.8817257  0.822181E-06  0.615E-03    3.17       2.2  T
   4    -91.8817271 -0.133024E-05  0.232E-03    3.17       5.7  T
   5    -91.8817273 -0.213803E-06  0.937E-04    3.17      14.1  T
   6    -91.8817273 -0.600568E-08  0.378E-04    3.17      35.1  T
     SCC iter.                  ...        0 min,  0.026 sec
     gradient                   ...        0 min,  0.046 sec
 * total energy  :   -90.5761413 Eh     change       -0.2466307E-03 Eh
   gradient norm :     0.0067132 Eh/α   predicted    -0.1849595E-03 ( -25.01%)
   displ. norm   :     0.3991353 α      lambda       -0.2811680E-03
   maximum displ.:     0.1941672 α      in ANC's #8, #6, #7, ...

........................................................................
.............................. CYCLE   11 ..............................
........................................................................

 iter      E             dE          RMSdq      gap      omega  full diag
   1    -91.8826129 -0.918826E+02  0.811E-02    3.15       0.0  T
   2    -91.8826173 -0.443931E-05  0.473E-02    3.15       1.0  T
   3    -91.8826152  0.216211E-05  0.777E-03    3.15       1.7  T
   4    -91.8826181 -0.288624E-05  0.220E-03    3.15       6.0  T
   5    -91.8826183 -0.177639E-06  0.918E-04    3.15      14.4  T
   6    -91.8826183 -0.425096E-08  0.427E-04    3.15      31.0  T
     SCC iter.                  ...        0 min,  0.023 sec
     gradient                   ...        0 min,  0.056 sec
 * total energy  :   -90.5763576 Eh     change       -0.2163161E-03 Eh
   gradient norm :     0.0058662 Eh/α   predicted    -0.1629836E-03 ( -24.65%)
   displ. norm   :     0.3601779 α      lambda       -0.2468365E-03
   maximum displ.:     0.1876022 α      in ANC's #6, #8, #7, ...

........................................................................
.............................. CYCLE   12 ..............................
........................................................................

 iter      E             dE          RMSdq      gap      omega  full diag
   1    -91.8844734 -0.918845E+02  0.755E-02    3.13       0.0  T
   2    -91.8844771 -0.369325E-05  0.441E-02    3.14       1.0  T
   3    -91.8844724  0.463057E-05  0.101E-02    3.14       1.3  T
   4    -91.8844781 -0.561454E-05  0.183E-03    3.14       7.2  T
   5    -91.8844782 -0.100451E-06  0.817E-04    3.14      16.2  T
   6    -91.8844782 -0.735309E-08  0.417E-04    3.14      31.8  T
     SCC iter.                  ...        0 min,  0.023 sec
     gradient                   ...        0 min,  0.066 sec
 * total energy  :   -90.5765474 Eh     change       -0.1898320E-03 Eh
   gradient norm :     0.0063777 Eh/α   predicted    -0.1394310E-03 ( -26.55%)
   displ. norm   :     0.4649206 α      lambda       -0.2451864E-03
   maximum displ.:     0.2400209 α      in ANC's #8, #6, #7, ...

........................................................................
.............................. CYCLE   13 ..............................
........................................................................

 iter      E             dE          RMSdq      gap      omega  full diag
   1    -91.8814137 -0.918814E+02  0.941E-02    3.12       0.0  T
   2    -91.8814190 -0.533505E-05  0.549E-02    3.12       1.0  T
   3    -91.8814140  0.501030E-05  0.108E-02    3.12       1.2  T
   4    -91.8814203 -0.628893E-05  0.220E-03    3.12       6.0  T
   5    -91.8814205 -0.146833E-06  0.951E-04    3.12      13.9  T
   6    -91.8814205 -0.429280E-08  0.475E-04    3.12      27.9  T
     SCC iter.                  ...        0 min,  0.050 sec
     gradient                   ...        0 min,  0.046 sec
 * total energy  :   -90.5767281 Eh     change       -0.1807132E-03 Eh
   gradient norm :     0.0074368 Eh/α   predicted    -0.1491023E-03 ( -17.49%)
   displ. norm   :     0.4369391 α      lambda       -0.3461454E-03
   maximum displ.:     0.2464494 α      in ANC's #6, #8, #3, ...

........................................................................
.............................. CYCLE   14 ..............................
........................................................................

 iter      E             dE          RMSdq      gap      omega  full diag
   1    -91.8847819 -0.918848E+02  0.955E-02    3.11       0.0  T
   2    -91.8847881 -0.619432E-05  0.559E-02    3.12       1.0  T
   3    -91.8847817  0.638340E-05  0.119E-02    3.11       1.1  T
   4    -91.8847894 -0.772198E-05  0.242E-03    3.12       5.5  T
   5    -91.8847896 -0.211431E-06  0.922E-04    3.12      14.4  T
   6    -91.8847896 -0.721222E-08  0.502E-04    3.12      26.4  T
     SCC iter.                  ...        0 min,  0.023 sec
     gradient                   ...        0 min,  0.055 sec
 * total energy  :   -90.5769401 Eh     change       -0.2119806E-03 Eh
   gradient norm :     0.0094175 Eh/α   predicted    -0.2061207E-03 (  -2.76%)
   displ. norm   :     0.4269936 α      lambda       -0.2423369E-03
   maximum displ.:     0.2226756 α      in ANC's #6, #8, #7, ...

........................................................................
.............................. CYCLE   15 ..............................
........................................................................

 iter      E             dE          RMSdq      gap      omega  full diag
   1    -91.8812216 -0.918812E+02  0.876E-02    3.10       0.0  T
   2    -91.8812264 -0.489038E-05  0.511E-02    3.10       1.0  T
   3    -91.8812241  0.231281E-05  0.812E-03    3.10       1.6  T
   4    -91.8812271 -0.297953E-05  0.224E-03    3.10       5.9  T
   5    -91.8812273 -0.203158E-06  0.813E-04    3.10      16.3  T
   6    -91.8812273 -0.290410E-08  0.368E-04    3.10      36.0  T
     SCC iter.                  ...        0 min,  0.023 sec
     gradient                   ...        0 min,  0.055 sec
 * total energy  :   -90.5771219 Eh     change       -0.1817773E-03 Eh
   gradient norm :     0.0081649 Eh/α   predicted    -0.1433483E-03 ( -21.14%)
   displ. norm   :     0.3463876 α      lambda       -0.3448554E-03
   maximum displ.:     0.1659310 α      in ANC's #6, #3, #8, ...

........................................................................
.............................. CYCLE   16 ..............................
........................................................................

 iter      E             dE          RMSdq      gap      omega  full diag
   1    -91.8832728 -0.918833E+02  0.753E-02    3.09       0.0  T
   2    -91.8832781 -0.535478E-05  0.439E-02    3.09       1.0  T
   3    -91.8832714  0.672683E-05  0.131E-02    3.09       1.0  T
   4    -91.8832795 -0.805282E-05  0.250E-03    3.09       5.3  T
   5    -91.8832797 -0.237259E-06  0.939E-04    3.09      14.1  T
   6    -91.8832797 -0.708314E-08  0.418E-04    3.09      31.7  T
     SCC iter.                  ...        0 min,  0.023 sec
     gradient                   ...        0 min,  0.062 sec
 * total energy  :   -90.5773301 Eh     change       -0.2082161E-03 Eh
   gradient norm :     0.0062272 Eh/α   predicted    -0.1931188E-03 (  -7.25%)
   displ. norm   :     0.4552392 α      lambda       -0.2033917E-03
   maximum displ.:     0.2365865 α      in ANC's #6, #8, #3, ...

........................................................................
.............................. CYCLE   17 ..............................
........................................................................

 iter      E             dE          RMSdq      gap      omega  full diag
   1    -91.8796869 -0.918797E+02  0.953E-02    3.08       0.0  T
   2    -91.8796925 -0.567262E-05  0.556E-02    3.08       1.0  T
   3    -91.8796908  0.170250E-05  0.764E-03    3.08       1.7  T
   4    -91.8796931 -0.227569E-05  0.254E-03    3.08       5.2  T
   5    -91.8796934 -0.250049E-06  0.910E-04    3.08      14.6  T
   6    -91.8796934 -0.236479E-08  0.412E-04    3.08      32.1  T
     SCC iter.                  ...        0 min,  0.023 sec
     gradient                   ...        0 min,  0.055 sec
 * total energy  :   -90.5774452 Eh     change       -0.1151211E-03 Eh
   gradient norm :     0.0076578 Eh/α   predicted    -0.1227724E-03 (   6.65%)
   displ. norm   :     0.1544045 α      lambda       -0.1444292E-03
   maximum displ.:     0.0861803 α      in ANC's #3, #5, #6, ...

........................................................................
.............................. CYCLE   18 ..............................
........................................................................

 iter      E             dE          RMSdq      gap      omega  full diag
   1    -91.8831580 -0.918832E+02  0.316E-02    3.08       0.0  T
   2    -91.8831591 -0.118382E-05  0.184E-02    3.08       1.0  T
   3    -91.8831582  0.962048E-06  0.497E-03    3.08       2.7  T
   4    -91.8831593 -0.115949E-05  0.126E-03    3.08      10.5  T
   5    -91.8831594 -0.613133E-07  0.434E-04    3.08      30.5  T
   6    -91.8831594 -0.913886E-09  0.215E-04    3.08      61.5  T
     SCC iter.                  ...        0 min,  0.023 sec
     gradient                   ...        0 min,  0.060 sec
 * total energy  :   -90.5775520 Eh     change       -0.1067461E-03 Eh
   gradient norm :     0.0052987 Eh/α   predicted    -0.7394397E-04 ( -30.73%)
   displ. norm   :     0.3789857 α      lambda       -0.1819347E-03
   maximum displ.:     0.2018399 α      in ANC's #3, #6, #5, ...

........................................................................
.............................. CYCLE   19 ..............................
........................................................................

 iter      E             dE          RMSdq      gap      omega  full diag
   1    -91.8833983 -0.918834E+02  0.756E-02    3.07       0.0  T
   2    -91.8834021 -0.375001E-05  0.442E-02    3.07       1.0  T
   3    -91.8834001  0.199180E-05  0.700E-03    3.07       1.9  T
   4    -91.8834026 -0.247383E-05  0.220E-03    3.07       6.0  T
   5    -91.8834027 -0.193041E-06  0.761E-04    3.07      17.4  T
   6    -91.8834027 -0.138546E-08  0.361E-04    3.07      36.7  T
     SCC iter.                  ...        0 min,  0.023 sec
     gradient                   ...        0 min,  0.055 sec
 * total energy  :   -90.5776871 Eh     change       -0.1350912E-03 Eh
   gradient norm :     0.0049766 Eh/α   predicted    -0.1040351E-03 ( -22.99%)
   displ. norm   :     0.4347493 α      lambda       -0.1754372E-03
   maximum displ.:     0.2562301 α      in ANC's #3, #6, #5, ...

........................................................................
.............................. CYCLE   20 ..............................
........................................................................

 iter      E             dE          RMSdq      gap      omega  full diag
   1    -91.8841930 -0.918842E+02  0.820E-02    3.05       0.0  T
   2    -91.8841972 -0.418529E-05  0.480E-02    3.06       1.0  T
   3    -91.8841953  0.182045E-05  0.702E-03    3.06       1.9  T
   4    -91.8841977 -0.239238E-05  0.200E-03    3.06       6.6  T
   5    -91.8841979 -0.150134E-06  0.771E-04    3.06      17.2  T
   6    -91.8841979  0.488015E-09  0.367E-04    3.06      36.1  T
     SCC iter.                  ...        0 min,  0.023 sec
     gradient                   ...        0 min,  0.055 sec
 * total energy  :   -90.5778179 Eh     change       -0.1308427E-03 Eh
   gradient norm :     0.0057374 Eh/α   predicted    -0.1043007E-03 ( -20.29%)
   displ. norm   :     0.4069380 α      lambda       -0.1542128E-03
   maximum displ.:     0.2523888 α      in ANC's #3, #6, #5, ...
 * RMSD in coord.:     0.7585243 α      energy gain  -0.1845230E-01 Eh

generating ANC from exact Hessian ...
Using Lindh-Hessian (1995)
 Shifting diagonal of input Hessian by    9.7872734665720666E-003
 Lowest  eigenvalues of input Hessian
    0.000000    0.000000    0.000000    0.000000    0.000000    0.000000
    0.010000    0.010067    0.010136    0.010616    0.010862    0.011088
    0.011555    0.011971    0.012250    0.013834    0.014513    0.015169
 Highest eigenvalues
    2.113662    2.145888    2.206101    2.238044    2.318690    2.449382


........................................................................
.............................. CYCLE   21 ..............................
........................................................................

 iter      E             dE          RMSdq      gap      omega  full diag
   1    -91.8841690 -0.918842E+02  0.752E-02    3.05       0.0  T
   2    -91.8841735 -0.450048E-05  0.439E-02    3.05       1.0  T
   3    -91.8841692  0.436121E-05  0.103E-02    3.05       1.3  T
   4    -91.8841744 -0.527744E-05  0.221E-03    3.05       6.0  T
   5    -91.8841746 -0.186254E-06  0.829E-04    3.05      16.0  T
   6    -91.8841746 -0.494821E-08  0.425E-04    3.05      31.1  T
     SCC iter.                  ...        0 min,  0.023 sec
     gradient                   ...        0 min,  0.047 sec
 * total energy  :   -90.5779352 Eh     change       -0.1172785E-03 Eh
   gradient norm :     0.0056908 Eh/α   predicted     0.0000000E+00 (-100.00%)
   displ. norm   :     0.0497786 α      lambda       -0.5917373E-04
   maximum displ.:     0.0311905 α      in ANC's #3, #10, #5, ...

........................................................................
.............................. CYCLE   22 ..............................
........................................................................

 iter      E             dE          RMSdq      gap      omega  full diag
   1    -91.8851342 -0.918851E+02  0.126E-02    3.05       0.0  T
   2    -91.8851346 -0.397473E-06  0.732E-03    3.05       1.8  T
   3    -91.8851345  0.157318E-06  0.248E-03    3.05       5.3  T
   4    -91.8851347 -0.203708E-06  0.746E-04    3.05      17.8  T
   5    -91.8851347 -0.256758E-07  0.209E-04    3.05      63.2  T
     SCC iter.                  ...        0 min,  0.019 sec
     gradient                   ...        0 min,  0.060 sec
 * total energy  :   -90.5779943 Eh     change       -0.5912216E-04 Eh
   gradient norm :     0.0028110 Eh/α   predicted    -0.3700199E-04 ( -37.41%)
   displ. norm   :     0.1274559 α      lambda       -0.1031457E-03
   maximum displ.:     0.0809204 α      in ANC's #3, #10, #5, ...

........................................................................
.............................. CYCLE   23 ..............................
........................................................................

 iter      E             dE          RMSdq      gap      omega  full diag
   1    -91.8859833 -0.918860E+02  0.250E-02    3.05       0.0  T
   2    -91.8859846 -0.135789E-05  0.146E-02    3.05       1.0  T
   3    -91.8859841  0.551613E-06  0.447E-03    3.05       3.0  T
   4    -91.8859848 -0.709311E-06  0.134E-03    3.05       9.9  T
   5    -91.8859849 -0.844461E-07  0.390E-04    3.05      34.0  T
   6    -91.8859849 -0.785448E-09  0.172E-04    3.05      77.2  T
     SCC iter.                  ...        0 min,  0.023 sec
     gradient                   ...        0 min,  0.053 sec
 * total energy  :   -90.5780637 Eh     change       -0.6934485E-04 Eh
   gradient norm :     0.0024218 Eh/α   predicted    -0.5241120E-04 ( -24.42%)
   displ. norm   :     0.1136643 α      lambda       -0.4781196E-04
   maximum displ.:     0.0753324 α      in ANC's #3, #5, #10, ...

........................................................................
.............................. CYCLE   24 ..............................
........................................................................

 iter      E             dE          RMSdq      gap      omega  full diag
   1    -91.8859238 -0.918859E+02  0.190E-02    3.05       0.0  T
   2    -91.8859242 -0.381707E-06  0.111E-02    3.05       1.2  T
   3    -91.8859240  0.209312E-06  0.238E-03    3.05       5.6  T
   4    -91.8859243 -0.272110E-06  0.698E-04    3.05      19.0  T
   5    -91.8859243 -0.196749E-07  0.264E-04    3.05      50.3  T
     SCC iter.                  ...        0 min,  0.019 sec
     gradient                   ...        0 min,  0.047 sec
 * total energy  :   -90.5781026 Eh     change       -0.3896269E-04 Eh
   gradient norm :     0.0035629 Eh/α   predicted    -0.2421499E-04 ( -37.85%)
   displ. norm   :     0.1468426 α      lambda       -0.5785676E-04
   maximum displ.:     0.0965108 α      in ANC's #3, #5, #9, ...

........................................................................
.............................. CYCLE   25 ..............................
........................................................................

 iter      E             dE          RMSdq      gap      omega  full diag
   1    -91.8855408 -0.918855E+02  0.235E-02    3.05       0.0  T
   2    -91.8855410 -0.273388E-06  0.138E-02    3.05       1.0  T
   3    -91.8855408  0.187778E-06  0.220E-03    3.05       6.0  T
   4    -91.8855411 -0.268156E-06  0.583E-04    3.05      22.7  T
   5    -91.8855411 -0.632315E-08  0.293E-04    3.05      45.2  T
     SCC iter.                  ...        0 min,  0.019 sec
     gradient                   ...        0 min,  0.046 sec
 * total energy  :   -90.5781512 Eh     change       -0.4855718E-04 Eh
   gradient norm :     0.0031733 Eh/α   predicted    -0.2955262E-04 ( -39.14%)
   displ. norm   :     0.1798822 α      lambda       -0.6371891E-04
   maximum displ.:     0.1198248 α      in ANC's #3, #5, #2, ...

........................................................................
.............................. CYCLE   26 ..............................
........................................................................

 iter      E             dE          RMSdq      gap      omega  full diag
   1    -91.8851680 -0.918852E+02  0.284E-02    3.04       0.0  T
   2    -91.8851683 -0.315371E-06  0.166E-02    3.05       1.0  T
   3    -91.8851681  0.170831E-06  0.225E-03    3.05       5.9  T
   4    -91.8851684 -0.272139E-06  0.647E-04    3.05      20.5  T
   5    -91.8851684 -0.523630E-08  0.340E-04    3.05      39.0  T
     SCC iter.                  ...        0 min,  0.020 sec
     gradient                   ...        0 min,  0.046 sec
 * total energy  :   -90.5782034 Eh     change       -0.5219917E-04 Eh
   gradient norm :     0.0021121 Eh/α   predicted    -0.3289127E-04 ( -36.99%)
   displ. norm   :     0.1771878 α      lambda       -0.5423954E-04
   maximum displ.:     0.1209186 α      in ANC's #3, #2, #5, ...

........................................................................
.............................. CYCLE   27 ..............................
........................................................................

 iter      E             dE          RMSdq      gap      omega  full diag
   1    -91.8850892 -0.918851E+02  0.279E-02    3.04       0.0  T
   2    -91.8850895 -0.337298E-06  0.163E-02    3.04       1.0  T
   3    -91.8850894  0.939246E-07  0.190E-03    3.04       7.0  T
   4    -91.8850896 -0.177895E-06  0.641E-04    3.04      20.7  T
   5    -91.8850896 -0.792075E-08  0.326E-04    3.04      40.6  T
     SCC iter.                  ...        0 min,  0.019 sec
     gradient                   ...        0 min,  0.062 sec
 * total energy  :   -90.5782492 Eh     change       -0.4577475E-04 Eh
   gradient norm :     0.0020003 Eh/α   predicted    -0.2797168E-04 ( -38.89%)
   displ. norm   :     0.1707215 α      lambda       -0.5116507E-04
   maximum displ.:     0.1187476 α      in ANC's #3, #2, #5, ...

........................................................................
.............................. CYCLE   28 ..............................
........................................................................

 iter      E             dE          RMSdq      gap      omega  full diag
   1    -91.8852968 -0.918853E+02  0.270E-02    3.04       0.0  T
   2    -91.8852972 -0.379177E-06  0.158E-02    3.04       1.0  T
   3    -91.8852971  0.615116E-07  0.171E-03    3.04       7.7  T
   4    -91.8852973 -0.131031E-06  0.643E-04    3.04      20.6  T
   5    -91.8852973 -0.113035E-07  0.310E-04    3.04      42.8  T
     SCC iter.                  ...        0 min,  0.019 sec
     gradient                   ...        0 min,  0.062 sec
 * total energy  :   -90.5782940 Eh     change       -0.4489786E-04 Eh
   gradient norm :     0.0023957 Eh/α   predicted    -0.2633217E-04 ( -41.35%)
   displ. norm   :     0.1899392 α      lambda       -0.5768103E-04
   maximum displ.:     0.1331713 α      in ANC's #3, #2, #5, ...

........................................................................
.............................. CYCLE   29 ..............................
........................................................................

 iter      E             dE          RMSdq      gap      omega  full diag
   1    -91.8856077 -0.918856E+02  0.304E-02    3.04       0.0  T
   2    -91.8856083 -0.523773E-06  0.178E-02    3.04       1.0  T
   3    -91.8856082  0.923143E-07  0.199E-03    3.04       6.7  T
   4    -91.8856083 -0.172607E-06  0.768E-04    3.04      17.2  T
   5    -91.8856084 -0.197627E-07  0.344E-04    3.04      38.5  T
     SCC iter.                  ...        0 min,  0.019 sec
     gradient                   ...        0 min,  0.054 sec
 * total energy  :   -90.5783448 Eh     change       -0.5079937E-04 Eh
   gradient norm :     0.0024930 Eh/α   predicted    -0.2988175E-04 ( -41.18%)
   displ. norm   :     0.2218092 α      lambda       -0.6385145E-04
   maximum displ.:     0.1556298 α      in ANC's #3, #2, #5, ...

........................................................................
.............................. CYCLE   30 ..............................
........................................................................

 iter      E             dE          RMSdq      gap      omega  full diag
   1    -91.8858012 -0.918858E+02  0.359E-02    3.04       0.0  T
   2    -91.8858019 -0.695588E-06  0.210E-02    3.04       1.0  T
   3    -91.8858017  0.180171E-06  0.249E-03    3.04       5.3  T
   4    -91.8858020 -0.289998E-06  0.923E-04    3.04      14.3  T
   5    -91.8858021 -0.298640E-07  0.396E-04    3.04      33.5  T
     SCC iter.                  ...        0 min,  0.019 sec
     gradient                   ...        0 min,  0.067 sec
 * total energy  :   -90.5784009 Eh     change       -0.5609862E-04 Eh
   gradient norm :     0.0022326 Eh/α   predicted    -0.3349675E-04 ( -40.29%)
   displ. norm   :     0.2443351 α      lambda       -0.6512224E-04
   maximum displ.:     0.1711466 α      in ANC's #3, #2, #5, ...

........................................................................
.............................. CYCLE   31 ..............................
........................................................................

 iter      E             dE          RMSdq      gap      omega  full diag
   1    -91.8858436 -0.918858E+02  0.400E-02    3.04       0.0  T
   2    -91.8858443 -0.759669E-06  0.234E-02    3.04       1.0  T
   3    -91.8858441  0.274632E-06  0.287E-03    3.04       4.6  T
   4    -91.8858445 -0.415272E-06  0.990E-04    3.04      13.4  T
   5    -91.8858445 -0.328493E-07  0.430E-04    3.04      30.8  T
     SCC iter.                  ...        0 min,  0.019 sec
     gradient                   ...        0 min,  0.049 sec
 * total energy  :   -90.5784588 Eh     change       -0.5788688E-04 Eh
   gradient norm :     0.0019445 Eh/α   predicted    -0.3450596E-04 ( -40.39%)
   displ. norm   :     0.3876252 α      lambda       -0.6596593E-04
   maximum displ.:     0.2708057 α      in ANC's #3, #2, #5, ...

........................................................................
.............................. CYCLE   32 ..............................
........................................................................

 iter      E             dE          RMSdq      gap      omega  full diag
   1    -91.8855989 -0.918856E+02  0.642E-02    3.04       0.0  T
   2    -91.8856006 -0.169538E-05  0.376E-02    3.04       1.0  T
   3    -91.8855998  0.807956E-06  0.474E-03    3.04       2.8  T
   4    -91.8856010 -0.118627E-05  0.151E-03    3.04       8.8  T
   5    -91.8856011 -0.699639E-07  0.681E-04    3.04      19.4  T
   6    -91.8856011 -0.119928E-08  0.253E-04    3.04      52.4  T
     SCC iter.                  ...        0 min,  0.023 sec
     gradient                   ...        0 min,  0.045 sec
 * total energy  :   -90.5785430 Eh     change       -0.8418576E-04 Eh
   gradient norm :     0.0021006 Eh/α   predicted    -0.3518598E-04 ( -58.20%)
   displ. norm   :     0.2313419 α      lambda       -0.5637758E-04
   maximum displ.:     0.1625574 α      in ANC's #3, #2, #6, ...

........................................................................
.............................. CYCLE   33 ..............................
........................................................................

 iter      E             dE          RMSdq      gap      omega  full diag
   1    -91.8857566 -0.918858E+02  0.385E-02    3.04       0.0  T
   2    -91.8857571 -0.530735E-06  0.226E-02    3.04       1.0  T
   3    -91.8857568  0.317082E-06  0.292E-03    3.04       4.5  T
   4    -91.8857573 -0.461243E-06  0.850E-04    3.04      15.6  T
   5    -91.8857573 -0.196253E-07  0.404E-04    3.04      32.8  T
     SCC iter.                  ...        0 min,  0.019 sec
     gradient                   ...        0 min,  0.046 sec
 * total energy  :   -90.5785947 Eh     change       -0.5167806E-04 Eh
   gradient norm :     0.0018988 Eh/α   predicted    -0.2969991E-04 ( -42.53%)
   displ. norm   :     0.3927129 α      lambda       -0.6519598E-04
   maximum displ.:     0.2761855 α      in ANC's #3, #2, #6, ...

........................................................................
.............................. CYCLE   34 ..............................
........................................................................

 iter      E             dE          RMSdq      gap      omega  full diag
   1    -91.8858539 -0.918859E+02  0.661E-02    3.04       0.0  T
   2    -91.8858554 -0.149081E-05  0.387E-02    3.05       1.0  T
   3    -91.8858544  0.956849E-06  0.506E-03    3.04       2.6  T
   4    -91.8858558 -0.140148E-05  0.140E-03    3.04       9.4  T
   5    -91.8858559 -0.478905E-07  0.692E-04    3.04      19.1  T
   6    -91.8858559 -0.268939E-08  0.252E-04    3.04      52.7  T
     SCC iter.                  ...        0 min,  0.032 sec
     gradient                   ...        0 min,  0.046 sec
 * total energy  :   -90.5786777 Eh     change       -0.8303726E-04 Eh
   gradient norm :     0.0015417 Eh/α   predicted    -0.3483309E-04 ( -58.05%)
   displ. norm   :     0.3474107 α      lambda       -0.4844225E-04
   maximum displ.:     0.2482231 α      in ANC's #3, #2, #6, ...

........................................................................
.............................. CYCLE   35 ..............................
........................................................................

 iter      E             dE          RMSdq      gap      omega  full diag
   1    -91.8855523 -0.918856E+02  0.580E-02    3.04       0.0  T
   2    -91.8855536 -0.123339E-05  0.340E-02    3.04       1.0  T
   3    -91.8855528  0.764988E-06  0.446E-03    3.04       3.0  T
   4    -91.8855539 -0.111960E-05  0.128E-03    3.04      10.4  T
   5    -91.8855540 -0.415313E-07  0.612E-04    3.04      21.6  T
   6    -91.8855540 -0.199321E-08  0.228E-04    3.04      58.1  T
     SCC iter.                  ...        0 min,  0.038 sec
     gradient                   ...        0 min,  0.046 sec
 * total energy  :   -90.5787404 Eh     change       -0.6267746E-04 Eh
   gradient norm :     0.0015022 Eh/α   predicted    -0.2552215E-04 ( -59.28%)
   displ. norm   :     0.2746522 α      lambda       -0.3712028E-04
   maximum displ.:     0.2008982 α      in ANC's #3, #2, #6, ...

........................................................................
.............................. CYCLE   36 ..............................
........................................................................

 iter      E             dE          RMSdq      gap      omega  full diag
   1    -91.8862396 -0.918862E+02  0.453E-02    3.04       0.0  T
   2    -91.8862404 -0.845074E-06  0.265E-02    3.04       1.0  T
   3    -91.8862399  0.468373E-06  0.354E-03    3.04       3.7  T
   4    -91.8862406 -0.695712E-06  0.104E-03    3.04      12.7  T
   5    -91.8862407 -0.280186E-07  0.479E-04    3.04      27.6  T
   6    -91.8862407 -0.635254E-09  0.196E-04    3.04      67.7  T
     SCC iter.                  ...        0 min,  0.044 sec
     gradient                   ...        0 min,  0.046 sec
 * total energy  :   -90.5787892 Eh     change       -0.4881769E-04 Eh
   gradient norm :     0.0013918 Eh/α   predicted    -0.1918386E-04 ( -60.70%)
   displ. norm   :     0.2561779 α      lambda       -0.3325467E-04
   maximum displ.:     0.1904331 α      in ANC's #3, #2, #6, ...

........................................................................
.............................. CYCLE   37 ..............................
........................................................................

 iter      E             dE          RMSdq      gap      omega  full diag
   1    -91.8859355 -0.918859E+02  0.427E-02    3.04       0.0  T
   2    -91.8859364 -0.937618E-06  0.249E-02    3.04       1.0  T
   3    -91.8859357  0.669346E-06  0.397E-03    3.04       3.3  T
   4    -91.8859366 -0.906686E-06  0.111E-03    3.04      12.0  T
   5    -91.8859367 -0.369279E-07  0.487E-04    3.04      27.2  T
   6    -91.8859367 -0.614989E-09  0.203E-04    3.04      65.1  T
     SCC iter.                  ...        0 min,  0.026 sec
     gradient                   ...        0 min,  0.046 sec
 * total energy  :   -90.5788334 Eh     change       -0.4412671E-04 Eh
   gradient norm :     0.0012846 Eh/α   predicted    -0.1711517E-04 ( -61.21%)
   displ. norm   :     0.2267270 α      lambda       -0.3025121E-04
   maximum displ.:     0.1729637 α      in ANC's #3, #2, #6, ...

........................................................................
.............................. CYCLE   38 ..............................
........................................................................

 iter      E             dE          RMSdq      gap      omega  full diag
   1    -91.8865069 -0.918865E+02  0.369E-02    3.04       0.0  T
   2    -91.8865078 -0.861598E-06  0.215E-02    3.04       1.0  T
   3    -91.8865074  0.420113E-06  0.344E-03    3.04       3.9  T
   4    -91.8865080 -0.599416E-06  0.997E-04    3.04      13.3  T
   5    -91.8865080 -0.310381E-07  0.427E-04    3.04      31.0  T
     SCC iter.                  ...        0 min,  0.036 sec
     gradient                   ...        0 min,  0.046 sec
 * total energy  :   -90.5788728 Eh     change       -0.3946048E-04 Eh
   gradient norm :     0.0009822 Eh/α   predicted    -0.1547155E-04 ( -60.79%)
   displ. norm   :     0.2219816 α      lambda       -0.2719654E-04
   maximum displ.:     0.1719486 α      in ANC's #3, #2, #6, ...

........................................................................
.............................. CYCLE   39 ..............................
........................................................................

 iter      E             dE          RMSdq      gap      omega  full diag
   1    -91.8865409 -0.918865E+02  0.358E-02    3.03       0.0  T
   2    -91.8865417 -0.821714E-06  0.209E-02    3.03       1.0  T
   3    -91.8865412  0.558803E-06  0.370E-03    3.03       3.6  T
   4    -91.8865419 -0.746926E-06  0.102E-03    3.03      12.9  T
   5    -91.8865419 -0.343261E-07  0.433E-04    3.03      30.6  T
   6    -91.8865419 -0.520657E-09  0.187E-04    3.03      70.9  T
     SCC iter.                  ...        0 min,  0.023 sec
     gradient                   ...        0 min,  0.048 sec
 * total energy  :   -90.5789087 Eh     change       -0.3591674E-04 Eh
   gradient norm :     0.0008612 Eh/α   predicted    -0.1389643E-04 ( -61.31%)
   displ. norm   :     0.1880488 α      lambda       -0.2229177E-04
   maximum displ.:     0.1476067 α      in ANC's #3, #4, #2, ...

........................................................................
.............................. CYCLE   40 ..............................
........................................................................

 iter      E             dE          RMSdq      gap      omega  full diag
   1    -91.8864434 -0.918864E+02  0.302E-02    3.03       0.0  T
   2    -91.8864441 -0.632315E-06  0.176E-02    3.03       1.0  T
   3    -91.8864438  0.316803E-06  0.292E-03    3.03       4.5  T
   4    -91.8864442 -0.432294E-06  0.873E-04    3.03      15.2  T
   5    -91.8864442 -0.288111E-07  0.356E-04    3.03      37.2  T
     SCC iter.                  ...        0 min,  0.019 sec
     gradient                   ...        0 min,  0.059 sec
 * total energy  :   -90.5789386 Eh     change       -0.2988703E-04 Eh
   gradient norm :     0.0007993 Eh/α   predicted    -0.1132220E-04 ( -62.12%)
   displ. norm   :     0.1811194 α      lambda       -0.2171834E-04
   maximum displ.:     0.1425208 α      in ANC's #3, #4, #2, ...

........................................................................
.............................. CYCLE   41 ..............................
........................................................................

 iter      E             dE          RMSdq      gap      omega  full diag
   1    -91.8869582 -0.918870E+02  0.282E-02    3.03       0.0  T
   2    -91.8869587 -0.508744E-06  0.164E-02    3.03       1.0  T
   3    -91.8869584  0.267042E-06  0.269E-03    3.03       4.9  T
   4    -91.8869588 -0.369623E-06  0.768E-04    3.03      17.2  T
   5    -91.8869588 -0.208306E-07  0.323E-04    3.03      41.0  T
     SCC iter.                  ...        0 min,  0.019 sec
     gradient                   ...        0 min,  0.055 sec
 * total energy  :   -90.5789677 Eh     change       -0.2907521E-04 Eh
   gradient norm :     0.0009060 Eh/α   predicted    -0.1101874E-04 ( -62.10%)
   displ. norm   :     0.1993916 α      lambda       -0.2257687E-04
   maximum displ.:     0.1559398 α      in ANC's #3, #4, #2, ...

........................................................................
.............................. CYCLE   42 ..............................
........................................................................

 iter      E             dE          RMSdq      gap      omega  full diag
   1    -91.8868009 -0.918868E+02  0.321E-02    3.02       0.0  T
   2    -91.8868015 -0.540800E-06  0.187E-02    3.02       1.0  T
   3    -91.8868012  0.311303E-06  0.280E-03    3.02       4.7  T
   4    -91.8868016 -0.421821E-06  0.841E-04    3.02      15.8  T
   5    -91.8868016 -0.270696E-07  0.348E-04    3.02      38.0  T
     SCC iter.                  ...        0 min,  0.019 sec
     gradient                   ...        0 min,  0.046 sec
 * total energy  :   -90.5789978 Eh     change       -0.3010613E-04 Eh
   gradient norm :     0.0007805 Eh/α   predicted    -0.1149093E-04 ( -61.83%)
   displ. norm   :     0.1946238 α      lambda       -0.2039121E-04
   maximum displ.:     0.1519145 α      in ANC's #3, #4, #7, ...
 * RMSD in coord.:     0.5682199 α      energy gain  -0.1179891E-02 Eh

generating ANC from exact Hessian ...
Using Lindh-Hessian (1995)
 Shifting diagonal of input Hessian by    9.7834092878699153E-003
 Lowest  eigenvalues of input Hessian
    0.000000    0.000000    0.000000    0.000000    0.000000    0.000000
    0.010000    0.010060    0.010129    0.010558    0.010897    0.011036
    0.011551    0.012013    0.012270    0.013895    0.014651    0.015255
 Highest eigenvalues
    2.117725    2.146161    2.207112    2.242999    2.315368    2.448194


........................................................................
.............................. CYCLE   43 ..............................
........................................................................

 iter      E             dE          RMSdq      gap      omega  full diag
   1    -91.8868336 -0.918868E+02  0.314E-02    3.02       0.0  T
   2    -91.8868341 -0.482318E-06  0.183E-02    3.02       1.0  T
   3    -91.8868338  0.215421E-06  0.247E-03    3.02       5.4  T
   4    -91.8868342 -0.314819E-06  0.744E-04    3.02      17.8  T
   5    -91.8868342 -0.191538E-07  0.322E-04    3.02      41.1  T
     SCC iter.                  ...        0 min,  0.019 sec
     gradient                   ...        0 min,  0.054 sec
 * total energy  :   -90.5790242 Eh     change       -0.2643456E-04 Eh
   gradient norm :     0.0007901 Eh/α   predicted     0.0000000E+00 (-100.00%)
   displ. norm   :     0.0264751 α      lambda       -0.6543270E-06
   maximum displ.:     0.0213446 α      in ANC's #3, #10, #6, ...

........................................................................
.............................. CYCLE   44 ..............................
........................................................................

 iter      E             dE          RMSdq      gap      omega  full diag
   1    -91.8869925 -0.918870E+02  0.550E-03    3.02       0.0  T
   2    -91.8869925 -0.164650E-07  0.325E-03    3.02       4.1  T
   3    -91.8869925  0.910633E-08  0.501E-04    3.02      26.4  T
   4    -91.8869925 -0.131678E-07  0.114E-04    3.02     115.9  T
     SCC iter.                  ...        0 min,  0.016 sec
     gradient                   ...        0 min,  0.060 sec
 * total energy  :   -90.5790303 Eh     change       -0.6106254E-05 Eh
   gradient norm :     0.0003544 Eh/α   predicted    -0.2510691E-05 ( -58.88%)
   displ. norm   :     0.0581265 α      lambda       -0.7759691E-05
   maximum displ.:     0.0429348 α      in ANC's #3, #10, #6, ...

........................................................................
.............................. CYCLE   45 ..............................
........................................................................

 iter      E             dE          RMSdq      gap      omega  full diag
   1    -91.8870687 -0.918871E+02  0.108E-02    3.02       0.0  T
   2    -91.8870688 -0.317595E-07  0.630E-03    3.02       2.1  T
   3    -91.8870687  0.153433E-07  0.680E-04    3.02      19.5  T
   4    -91.8870688 -0.267997E-07  0.196E-04    3.02      67.5  T
     SCC iter.                  ...        0 min,  0.015 sec
     gradient                   ...        0 min,  0.045 sec
 * total energy  :   -90.5790399 Eh     change       -0.9533953E-05 Eh
   gradient norm :     0.0007175 Eh/α   predicted    -0.3886354E-05 ( -59.24%)
   displ. norm   :     0.0777077 α      lambda       -0.7903455E-05
   maximum displ.:     0.0570213 α      in ANC's #3, #6, #10, ...

........................................................................
.............................. CYCLE   46 ..............................
........................................................................

 iter      E             dE          RMSdq      gap      omega  full diag
   1    -91.8869498 -0.918869E+02  0.141E-02    3.02       0.0  T
   2    -91.8869498 -0.522831E-07  0.822E-03    3.02       1.6  T
   3    -91.8869498  0.313379E-07  0.960E-04    3.02      13.8  T
   4    -91.8869499 -0.505971E-07  0.260E-04    3.02      51.0  T
     SCC iter.                  ...        0 min,  0.015 sec
     gradient                   ...        0 min,  0.046 sec
 * total energy  :   -90.5790495 Eh     change       -0.9672957E-05 Eh
   gradient norm :     0.0006774 Eh/α   predicted    -0.3982546E-05 ( -58.83%)
   displ. norm   :     0.0741095 α      lambda       -0.6302018E-05
   maximum displ.:     0.0549516 α      in ANC's #3, #6, #4, ...

........................................................................
.............................. CYCLE   47 ..............................
........................................................................

 iter      E             dE          RMSdq      gap      omega  full diag
   1    -91.8868928 -0.918869E+02  0.135E-02    3.02       0.0  T
   2    -91.8868929 -0.533932E-07  0.791E-03    3.01       1.7  T
   3    -91.8868928  0.307752E-07  0.960E-04    3.01      13.8  T
   4    -91.8868929 -0.477153E-07  0.264E-04    3.01      50.2  T
     SCC iter.                  ...        0 min,  0.030 sec
     gradient                   ...        0 min,  0.046 sec
 * total energy  :   -90.5790578 Eh     change       -0.8237888E-05 Eh
   gradient norm :     0.0005467 Eh/α   predicted    -0.3166235E-05 ( -61.56%)
   displ. norm   :     0.0740298 α      lambda       -0.6361000E-05
   maximum displ.:     0.0542760 α      in ANC's #3, #6, #4, ...

........................................................................
.............................. CYCLE   48 ..............................
........................................................................

 iter      E             dE          RMSdq      gap      omega  full diag
   1    -91.8868501 -0.918869E+02  0.135E-02    3.01       0.0  T
   2    -91.8868502 -0.618678E-07  0.786E-03    3.01       1.7  T
   3    -91.8868502  0.227104E-07  0.905E-04    3.01      14.6  T
   4    -91.8868502 -0.400671E-07  0.257E-04    3.01      51.6  T
     SCC iter.                  ...        0 min,  0.015 sec
     gradient                   ...        0 min,  0.045 sec
 * total energy  :   -90.5790666 Eh     change       -0.8778165E-05 Eh
   gradient norm :     0.0004159 Eh/α   predicted    -0.3188580E-05 ( -63.68%)
   displ. norm   :     0.0950225 α      lambda       -0.8432219E-05
   maximum displ.:     0.0676144 α      in ANC's #3, #6, #4, ...

........................................................................
.............................. CYCLE   49 ..............................
........................................................................

 iter      E             dE          RMSdq      gap      omega  full diag
   1    -91.8868184 -0.918868E+02  0.179E-02    3.01       0.0  T
   2    -91.8868185 -0.110517E-06  0.104E-02    3.01       1.3  T
   3    -91.8868185  0.317210E-07  0.114E-03    3.01      11.6  T
   4    -91.8868186 -0.625316E-07  0.326E-04    3.01      40.6  T
   5    -91.8868186 -0.207767E-08  0.159E-04    3.01      83.1  T
     SCC iter.                  ...        0 min,  0.019 sec
     gradient                   ...        0 min,  0.077 sec
 * total energy  :   -90.5790781 Eh     change       -0.1154576E-04 Eh
   gradient norm :     0.0004485 Eh/α   predicted    -0.4234344E-05 ( -63.33%)
   displ. norm   :     0.1318836 α      lambda       -0.1081058E-04
   maximum displ.:     0.0918606 α      in ANC's #3, #6, #4, ...

........................................................................
.............................. CYCLE   50 ..............................
........................................................................

 iter      E             dE          RMSdq      gap      omega  full diag
   1    -91.8867861 -0.918868E+02  0.255E-02    3.01       0.0  T
   2    -91.8867864 -0.207794E-06  0.149E-02    3.01       1.0  T
   3    -91.8867863  0.436587E-07  0.149E-03    3.01       8.9  T
   4    -91.8867864 -0.104731E-06  0.461E-04    3.01      28.8  T
   5    -91.8867864 -0.373410E-08  0.225E-04    3.01      58.9  T
     SCC iter.                  ...        0 min,  0.019 sec
     gradient                   ...        0 min,  0.086 sec
 * total energy  :   -90.5790925 Eh     change       -0.1434985E-04 Eh
   gradient norm :     0.0005118 Eh/α   predicted    -0.5449129E-05 ( -62.03%)
   displ. norm   :     0.1539447 α      lambda       -0.1074618E-04
   maximum displ.:     0.1067264 α      in ANC's #3, #6, #4, ...

........................................................................
.............................. CYCLE   51 ..............................
........................................................................

 iter      E             dE          RMSdq      gap      omega  full diag
   1    -91.8867393 -0.918867E+02  0.304E-02    3.01       0.0  T
   2    -91.8867396 -0.265430E-06  0.177E-02    3.01       1.0  T
   3    -91.8867395  0.374657E-07  0.161E-03    3.01       8.2  T
   4    -91.8867396 -0.121830E-06  0.526E-04    3.01      25.2  T
   5    -91.8867396 -0.419250E-08  0.250E-04    3.01      52.9  T
     SCC iter.                  ...        0 min,  0.068 sec
     gradient                   ...        0 min,  0.046 sec
 * total energy  :   -90.5791065 Eh     change       -0.1401895E-04 Eh
   gradient norm :     0.0005870 Eh/α   predicted    -0.5430303E-05 ( -61.26%)
   displ. norm   :     0.1478448 α      lambda       -0.8780894E-05
   maximum displ.:     0.1030996 α      in ANC's #3, #6, #1, ...

........................................................................
.............................. CYCLE   52 ..............................
........................................................................

 iter      E             dE          RMSdq      gap      omega  full diag
   1    -91.8867704 -0.918868E+02  0.296E-02    3.00       0.0  T
   2    -91.8867706 -0.234807E-06  0.172E-02    3.00       1.0  T
   3    -91.8867706  0.245950E-07  0.149E-03    3.00       8.9  T
   4    -91.8867707 -0.105114E-06  0.507E-04    3.00      26.1  T
   5    -91.8867707 -0.336898E-08  0.233E-04    3.00      56.8  T
     SCC iter.                  ...        0 min,  0.019 sec
     gradient                   ...        0 min,  0.091 sec
 * total energy  :   -90.5791180 Eh     change       -0.1148975E-04 Eh
   gradient norm :     0.0005347 Eh/α   predicted    -0.4436958E-05 ( -61.38%)
   displ. norm   :     0.1287140 α      lambda       -0.6809422E-05
   maximum displ.:     0.0912758 α      in ANC's #3, #1, #6, ...

........................................................................
.............................. CYCLE   53 ..............................
........................................................................

 iter      E             dE          RMSdq      gap      omega  full diag
   1    -91.8868435 -0.918868E+02  0.259E-02    3.00       0.0  T
   2    -91.8868437 -0.172242E-06  0.151E-02    3.00       1.0  T
   3    -91.8868437  0.964542E-08  0.124E-03    3.00      10.7  T
   4    -91.8868437 -0.719444E-07  0.448E-04    3.00      29.6  T
   5    -91.8868437 -0.229350E-08  0.205E-04    3.00      64.7  T
     SCC iter.                  ...        0 min,  0.019 sec
     gradient                   ...        0 min,  0.084 sec
 * total energy  :   -90.5791269 Eh     change       -0.8915736E-05 Eh
   gradient norm :     0.0003850 Eh/α   predicted    -0.3431223E-05 ( -61.51%)
   displ. norm   :     0.1069387 α      lambda       -0.5153267E-05
   maximum displ.:     0.0776588 α      in ANC's #3, #1, #6, ...

........................................................................
.............................. CYCLE   54 ..............................
........................................................................

 iter      E             dE          RMSdq      gap      omega  full diag
   1    -91.8869052 -0.918869E+02  0.214E-02    3.00       0.0  T
   2    -91.8869053 -0.113297E-06  0.125E-02    3.00       1.1  T
   3    -91.8869053  0.760143E-08  0.104E-03    3.00      12.7  T
   4    -91.8869053 -0.516219E-07  0.374E-04    3.00      35.4  T
   5    -91.8869053 -0.133817E-08  0.170E-04    3.00      77.8  T
     SCC iter.                  ...        0 min,  0.064 sec
     gradient                   ...        0 min,  0.091 sec
 * total energy  :   -90.5791336 Eh     change       -0.6738728E-05 Eh
   gradient norm :     0.0002564 Eh/α   predicted    -0.2591466E-05 ( -61.54%)
   displ. norm   :     0.0846979 α      lambda       -0.3822835E-05
   maximum displ.:     0.0631578 α      in ANC's #3, #1, #7, ...

........................................................................
.............................. CYCLE   55 ..............................
........................................................................

 iter      E             dE          RMSdq      gap      omega  full diag
   1    -91.8869687 -0.918870E+02  0.168E-02    3.00       0.0  T
   2    -91.8869688 -0.665489E-07  0.980E-03    3.00       1.4  T
   3    -91.8869688  0.124641E-08  0.777E-04    3.00      17.0  T
   4    -91.8869688 -0.279351E-07  0.299E-04    3.00      44.3  T
     SCC iter.                  ...        0 min,  0.015 sec
     gradient                   ...        0 min,  0.091 sec
 * total energy  :   -90.5791387 Eh     change       -0.5080484E-05 Eh
   gradient norm :     0.0001858 Eh/α   predicted    -0.1921090E-05 ( -62.19%)
   displ. norm   :     0.0692434 α      lambda       -0.3071908E-05
   maximum displ.:     0.0526096 α      in ANC's #3, #1, #7, ...

........................................................................
.............................. CYCLE   56 ..............................
........................................................................

 iter      E             dE          RMSdq      gap      omega  full diag
   1    -91.8869902 -0.918870E+02  0.132E-02    3.00       0.0  T
   2    -91.8869902 -0.363837E-07  0.772E-03    3.00       1.7  T
   3    -91.8869902  0.275776E-08  0.653E-04    3.00      20.3  T
   4    -91.8869903 -0.195373E-07  0.237E-04    3.00      55.9  T
     SCC iter.                  ...        0 min,  0.015 sec
     gradient                   ...        0 min,  0.090 sec
 * total energy  :   -90.5791429 Eh     change       -0.4232700E-05 Eh
   gradient norm :     0.0002060 Eh/α   predicted    -0.1543861E-05 ( -63.53%)
   displ. norm   :     0.0671266 α      lambda       -0.3064692E-05
   maximum displ.:     0.0510026 α      in ANC's #3, #1, #7, ...

   *** GEOMETRY OPTIMIZATION CONVERGED AFTER 56 ITERATIONS ***

------------------------------------------------------------------------
 total energy gain   :        -0.0197773 Eh      -12.4105 kcal/mol
 total RMSD          :         1.1839288 a0        0.6265 Å
 total power (kW/mol):        -0.9272385 (step)   -9.2045 (real)
------------------------------------------------------------------------

 ANCopt (total)                0 d,  0 h,  0 min,  5.641 sec
 optimizer setup                ...        0 min,  0.000 sec (  0.002%)
 model hessian                  ...        0 min,  0.088 sec (  1.564%)
 ANC generation                 ...        0 min,  0.008 sec (  0.148%)
 coordinate transformation      ...        0 min,  0.001 sec (  0.013%)
 single point calculation       ...        0 min,  5.525 sec ( 97.937%)
 optimization log               ...        0 min,  0.011 sec (  0.187%)
 hessian update                 ...        0 min,  0.001 sec (  0.019%)
 rational function              ...        0 min,  0.004 sec (  0.073%)

================
 final structure:
================
57
 xtb: 6.7.1 (edcfbbe)
C           -3.73263019308632        1.20029237078589       -1.78465312458445
N           -3.51759293084149        1.21539118245923       -0.35640157011464
C           -4.38543611597704        1.83832991328832        0.47254465395953
N           -4.17805047650060        1.80583058442170        1.76687417841719
C           -5.06794176374565        2.43618612216846        2.55678121561552
C           -6.16342878005567        3.10294162915273        2.11045418938271
C           -6.42322571459748        3.16825627883391        0.70228718724757
N           -5.45332526593292        2.48852337582499       -0.06084228552712
O           -7.33953643326604        3.71726187610131        0.12487182259134
C           -2.38170481900222        0.51014240721749        0.21394065665397
C           -2.44472529728277       -0.99959063374413       -0.03227393333703
C           -1.25655770332830       -1.67171564060303        0.65009391576134
C           -1.04230555915633        1.05663612030781       -0.28724279680223
C            0.08856407146751        0.30294345668733        0.40767994768040
N           -0.02745562016542       -1.11631695675853        0.10677140164316
C            1.08421676267375       -1.90841477964676        0.28300249072191
N            1.14323450360735       -2.94580285009978        1.07038067600278
C            2.38724481973783       -3.49190523533003        0.87441318184021
C            3.08934466898320       -2.72937858582138       -0.08607873113770
N            2.22823527612529       -1.71887001881711       -0.46175249681671
C            2.42386937562943       -0.81008004747938       -1.55612967739727
C            3.09061566227732        0.49188373728758       -1.17129488554919
C            3.96806797632582        0.55827378858389       -0.09579629800856
C            4.58627454733320        1.75039355457984        0.23654209134713
C            4.32035365899269        2.87396941100220       -0.52385466498538
F            4.91805183183177        4.03946006200640       -0.20612771720212
C            3.45480359868493        2.83612510021169       -1.60235772128152
C            2.84218876962692        1.63811752467709       -1.91853241127114
C            4.37833453217783       -3.04839836983102       -0.47314932631203
C            4.95656151530040       -4.15564399483051        0.12041295963905
C            4.27294836959724       -4.91335403500910        1.06977905408620
C            2.98644892287300       -4.59847818472695        1.46035942722884
H           -2.94880001992664        0.61278513045670       -2.25213991242251
H           -4.69285967332600        0.74158504323913       -2.03880466359910
H           -3.69407667320134        2.21048092334376       -2.20379373908354
H           -4.83992027442425        2.36852363355335        3.61224336321880
H           -6.85274649610752        3.59172588273212        2.77675747804018
H           -5.60660178257838        2.51756854464521       -1.06002990077030
H           -2.45283699905554        0.69149755327682        1.29047735718067
H           -3.37452688737954       -1.40120065722598        0.37046357314999
H           -2.40632804524697       -1.21704937851580       -1.10089220586773
H           -1.25240078489102       -2.74491901549456        0.46020036449236
H           -1.31054796146387       -1.51927752572864        1.73637620412869
H           -0.96562980089227        2.12124761843699       -0.06449822437752
H           -0.94834082014182        0.92023082496252       -1.36585658215894
H            1.05623397478011        0.67708539511238        0.07405925108367
H            0.01786323748199        0.46756427330202        1.49428853605097
H            1.44952575983291       -0.60868776914482       -2.01325853859872
H            3.04863456157999       -1.31784934323170       -2.30220380554944
H            4.16773776281202       -0.32506025170023        0.49150874543404
H            5.26705361272894        1.81422718916364        1.07015991437778
H            3.26948625482822        3.73106563188468       -2.17454459557777
H            2.16250660218618        1.59275373272840       -2.75685140025060
H            4.91619347591135       -2.46017665232249       -1.20292211386483
H            5.96145977207410       -4.43806589175947       -0.15632409408682
H            4.76667418295762       -5.76769047051525        1.50886126736552
[...]
   A. Katbashev, J. Kohn, J. Koopman, C. Lavigne, S. Lehtola, F. März, M. Müller,
   F. Musil, H. Neugebauer, J. Pisarek, C. Plett, P. Pracht, F. Pultar,
   J. Seibert, P. Shushkov, S. Spicher, M. Stahn, M. Steiner, T. Strunk,
   J. Stückrath, T. Rose, and J. Unsleber
   
 * started run on 2025/05/15 at 16:21:26.112     
   ID    Z sym.   atoms
    1    6 C      1, 3, 5-7, 10-14, 16, 18, 19, 21-25, 27-32
    2    7 N      2, 4, 8, 15, 17, 20
    3    8 O      9
    4    9 F      26
    5    1 H      33-57

           -------------------------------------------------
          |                Calculation Setup                |
           -------------------------------------------------

          program call               : xtb /rds/general/user/hgt20/home/callum/QDESCP/Mizolastine_rdkit_conf_3/Mizolastine_rdkit_conf_3.xyz --acc 1 --gfn 2 --chrg 0 --uhf 2 --etemp 300 --input /rds/general/user/hgt20/home/callum/QDESCP/Mizolastine_rdkit_conf_3/Mizolastine_rdkit_conf_3_xtb.inp -P 1
          hostname                   : login-c
          coordinate file            : /rds/general/user/hgt20/home/callum/QDESCP/Mizolastine_rdkit_conf_3/Mizolastine_rdkit_conf_3.xyz
          omp threads                :                     1


           -------------------------------------------------
          |                 G F N 2 - x T B                 |
           -------------------------------------------------

        Reference                      10.1021/acs.jctc.8b01176
      * Hamiltonian:
        H0-scaling (s, p, d)           1.850000    2.230000    2.230000
        zeta-weighting                 0.500000
      * Dispersion:
        s8                             2.700000
        a1                             0.520000
        a2                             5.000000
        s9                             5.000000
      * Repulsion:
        kExp                           1.500000    1.000000
        rExp                           1.000000
      * Coulomb:
        alpha                          2.000000
        third order                    shell-resolved
        anisotropic                    true
        a3                             3.000000
        a5                             4.000000
        cn-shift                       1.200000
        cn-exp                         4.000000
        max-rad                        5.000000


          ...................................................
          :                      SETUP                      :
          :.................................................:
          :  # basis functions                 153          :
          :  # atomic orbitals                 153          :
          :  # shells                           89          :
          :  # electrons                       164          :
          :  max. iterations                   250          :
          :  Hamiltonian                  GFN2-xTB          :
          :  restarted?                      false          :
          :  GBSA solvation                  false          :
          :  PC potential                    false          :
          :  electronic temp.          300.0000000     K    :
          :  accuracy                    1.0000000          :
          :  -> integral cutoff          0.2500000E+02      :
          :  -> integral neglect         0.1000000E-07      :
          :  -> SCF convergence          0.1000000E-05 Eh   :
          :  -> wf. convergence          0.1000000E-03 e    :
          :  Broyden damping             0.4000000          :
          :  net charge                          0          :
          :  unpaired electrons                  2          :
          ...................................................

 iter      E             dE          RMSdq      gap      omega  full diag
   1    -91.3164660 -0.913165E+02  0.365E+00    0.19       0.0  T
   2    -91.3224271 -0.596111E-02  0.308E+00    0.98       1.0  T
   3    -91.4756729 -0.153246E+00  0.210E+00    0.14       1.0  T
   4    -91.3429214  0.132752E+00  0.196E+00    1.09       1.0  T
   5    -91.5749294 -0.232008E+00  0.122E+00    0.17       1.0  T
   6    -91.4991692  0.757603E-01  0.131E+00    0.80       1.0  T
   7    -91.7406437 -0.241475E+00  0.496E-01    0.05       1.0  T
   8    -91.7371412  0.350248E-02  0.505E-01    0.03       1.0  T
   9    -91.6564530  0.806883E-01  0.728E-01    0.09       1.0  T
  10    -91.5536550  0.102798E+00  0.103E+00    0.15       1.0  T
  11    -91.7245932 -0.170938E+00  0.410E-01    0.06       1.0  T
  12    -91.7515862 -0.269930E-01  0.192E-01    0.06       1.0  T
  13    -91.7507917  0.794451E-03  0.194E-01    0.02       1.0  T
  14    -91.7428397  0.795204E-02  0.269E-01    0.07       1.0  T
  15    -91.7547622 -0.119225E-01  0.114E-01    0.03       1.0  T
  16    -91.7567952 -0.203302E-02  0.408E-02    0.03       1.0  T
  17    -91.7571026 -0.307418E-03  0.155E-02    0.03       1.0  T
  18    -91.7570066  0.959971E-04  0.246E-02    0.03       1.0  T
  19    -91.7571274 -0.120800E-03  0.336E-03    0.03       3.9  T
  20    -91.7571296 -0.219157E-05  0.654E-04    0.03      20.2  T
  21    -91.7571297 -0.632632E-07  0.351E-04    0.03      37.7  T
  22    -91.7571295  0.148929E-06  0.895E-04    0.03      14.8  T

   *** convergence criteria satisfied after 22 iterations ***

         #    Occupation            Energy/Eh            Energy/eV
      -------------------------------------------------------------
         1        2.0000           -0.8137868             -22.1443
       ...           ...                  ...                  ...
        77        2.0000           -0.3952177             -10.7544
        78        2.0000           -0.3920359             -10.6678
        79        1.9997           -0.3886262             -10.5751
        80        1.9995           -0.3880453             -10.5593
        81        1.6065           -0.3812258             -10.3737
        82        1.3943           -0.3804069             -10.3514
        83        0.6057           -0.2424363              -6.5970 (HOMO)
        84        0.2902           -0.2411788              -6.5628 (LUMO)
        85        0.0960           -0.2398979              -6.5280
        86        0.0080           -0.2374528              -6.4614
        87                         -0.2142913              -5.8312
        88                         -0.2129753              -5.7954
       ...                                ...                  ...
       153                          0.7080544              19.2671
      -------------------------------------------------------------
                  HL-Gap            0.0012575 Eh            0.0342 eV
             Fermi-level           -0.3114216 Eh           -8.4742 eV

 transition dipole moment (au) for excitation:          82          83
     X       Y       Z   
   1.3692  -0.9089  -0.2388  total (au/Debye):    1.661   4.221
 dE (eV)             :    3.754
 oscillator strength :  0.35874E+00

 SCC (total)                   0 d,  0 h,  0 min,  0.286 sec
 SCC setup                      ...        0 min,  0.001 sec (  0.205%)
 Dispersion                     ...        0 min,  0.001 sec (  0.294%)
 classical contributions        ...        0 min,  0.000 sec (  0.092%)
 integral evaluation            ...        0 min,  0.012 sec (  4.375%)
 iterations                     ...        0 min,  0.174 sec ( 60.996%)
 molecular gradient             ...        0 min,  0.087 sec ( 30.402%)
 printout                       ...        0 min,  0.010 sec (  3.633%)

         :::::::::::::::::::::::::::::::::::::::::::::::::::::
         ::                     SUMMARY                     ::
         :::::::::::::::::::::::::::::::::::::::::::::::::::::
         :: total energy             -90.449282204451 Eh    ::
         :: gradient norm              0.100952297705 Eh/a0 ::
         :: HOMO-LUMO gap              0.034218874929 eV    ::
         ::.................................................::
         :: SCC energy               -91.756671136517 Eh    ::
         :: -> isotropic ES            0.088380446251 Eh    ::
         :: -> anisotropic ES          0.005504247940 Eh    ::
         :: -> anisotropic XC          0.041448521518 Eh    ::
         :: -> dispersion             -0.067504754988 Eh    ::
         :: repulsion energy           1.307388932066 Eh    ::
         :: add. restraining           0.000000000000 Eh    ::
         :: total charge               0.000000000002 e     ::
         :::::::::::::::::::::::::::::::::::::::::::::::::::::

           -------------------------------------------------
          |                Property Printout                |
           -------------------------------------------------

    * Orbital Energies and Occupations

         #    Occupation            Energy/Eh            Energy/eV
      -------------------------------------------------------------
         1        2.0000           -0.8137868             -22.1443
       ...           ...                  ...                  ...
        71        2.0000           -0.4357012             -11.8560
        72        2.0000           -0.4347163             -11.8292
        73        2.0000           -0.4215693             -11.4715
        74        2.0000           -0.4213634             -11.4659
        75        2.0000           -0.4164748             -11.3329
        76        2.0000           -0.4077606             -11.0957
        77        2.0000           -0.3952177             -10.7544
        78        2.0000           -0.3920359             -10.6678
        79        1.9997           -0.3886262             -10.5751
        80        1.9995           -0.3880453             -10.5593
        81        1.6065           -0.3812258             -10.3737
        82        1.3943           -0.3804069             -10.3514
        83        0.6057           -0.2424363              -6.5970 (HOMO)
        84        0.2902           -0.2411788              -6.5628 (LUMO)
        85        0.0960           -0.2398979              -6.5280
        86        0.0080           -0.2374528              -6.4614
        87                         -0.2142913              -5.8312
        88                         -0.2129753              -5.7954
        89                         -0.1838562              -5.0030
        90                         -0.1098715              -2.9898
        91                         -0.1092446              -2.9727
        92                         -0.0850383              -2.3140
        93                         -0.0536893              -1.4610
        94                         -0.0306526              -0.8341
       ...                                ...                  ...
       153                          0.7080544              19.2671
      -------------------------------------------------------------
                  HL-Gap            0.0012575 Eh            0.0342 eV
             Fermi-level           -0.3114216 Eh           -8.4742 eV

     #   Z          covCN         q      C6AA      α(0)
     1   6 C        3.694    -0.053    21.714     6.666
     2   7 N        2.746    -0.077    22.741     7.083
     3   6 C        2.835     0.198    23.789     7.993
     4   7 N        1.845    -0.278    28.072     7.852
     5   6 C        2.903     0.029    27.358     8.576
     6   6 C        2.904    -0.080    29.991     8.980
     7   6 C        2.767     0.267    22.494     7.767
     8   7 N        2.705    -0.197    25.282     7.468
     9   8 O        0.859    -0.435    22.386     6.344
    10   6 C        3.806     0.021    20.211     6.400
    11   6 C        3.808    -0.072    21.869     6.657
    12   6 C        3.772    -0.001    20.636     6.473
    13   6 C        3.808    -0.071    21.847     6.654
    14   6 C        3.762     0.001    20.609     6.471
    15   7 N        2.737    -0.112    23.446     7.192
    16   6 C        3.142     0.186    23.821     7.986
    17   7 N        1.883    -0.317    29.076     7.994
    18   6 C        3.196     0.073    25.862     8.291
    19   6 C        3.091     0.041    26.977     8.513
    20   7 N        2.815    -0.075    22.689     7.075
    21   6 C        3.744     0.001    20.640     6.481
    22   6 C        2.967    -0.008    28.222     8.714
    23   6 C        2.927    -0.043    29.080     8.844
    24   6 C        2.916    -0.058    29.439     8.897
    25   6 C        2.788     0.166    24.409     8.093
    26   9 F        0.787    -0.229    11.543     4.013
    27   6 C        2.916    -0.057    29.426     8.895
    28   6 C        2.928    -0.051    29.264     8.872
    29   6 C        2.908    -0.063    29.570     8.917
    30   6 C        2.926    -0.032    28.790     8.799
    31   6 C        2.923    -0.037    28.920     8.819
    32   6 C        2.911    -0.051    29.272     8.872
    33   1 H        0.925     0.069     2.091     2.262
    34   1 H        0.924     0.059     2.208     2.324
    35   1 H        0.924     0.059     2.210     2.325
    36   1 H        0.925     0.032     2.554     2.499
    37   1 H        0.926     0.054     2.265     2.354
    38   1 H        0.860     0.181     1.210     1.723
    39   1 H        0.924     0.094     1.842     2.123
    40   1 H        0.925     0.056     2.243     2.342
    41   1 H        0.924     0.051     2.311     2.377
    42   1 H        0.925     0.072     2.061     2.245
    43   1 H        0.923     0.053     2.282     2.363
    44   1 H        0.924     0.055     2.261     2.352
    45   1 H        0.924     0.049     2.333     2.389
    46   1 H        0.925     0.060     2.199     2.319
    47   1 H        0.923     0.045     2.389     2.417
    48   1 H        0.924     0.053     2.281     2.362
    49   1 H        0.924     0.061     2.184     2.311
    50   1 H        0.926     0.041     2.440     2.443
    51   1 H        0.926     0.053     2.285     2.364
    52   1 H        0.926     0.052     2.299     2.371
    53   1 H        0.926     0.030     2.590     2.516
    54   1 H        0.926     0.026     2.648     2.545
    55   1 H        0.926     0.034     2.530     2.487
    56   1 H        0.926     0.034     2.524     2.484
    57   1 H        0.926     0.043     2.407     2.426

 Mol. C6AA /au·bohr⁶  :      38609.172899
 Mol. C8AA /au·bohr⁸  :     915389.058792
 Mol. α(0) /au        :        305.370656


Wiberg/Mayer (AO) data.
largest (>0.10) Wiberg bond orders for each atom

 ---------------------------------------------------------------------------
     #   Z sym  total        # sym  WBO       # sym  WBO       # sym  WBO
 ---------------------------------------------------------------------------
     1   6 C    3.969 --     2 N    1.006    33 H    0.974    35 H    0.970
                            34 H    0.970
     2   7 N    3.404 --     3 C    1.195     1 C    1.006    10 C    0.976
     3   6 C    3.859 --     4 N    1.370     2 N    1.195     8 N    1.153
     4   7 N    2.940 --     3 C    1.370     5 C    1.322
     5   6 C    3.732 --     4 N    1.322     6 C    1.315    36 H    0.964
     6   6 C    3.660 --     5 C    1.315     7 C    1.197    37 H    0.967
     7   6 C    3.897 --     9 O    1.612     6 C    1.197     8 N    1.020
     8   7 N    3.390 --     3 C    1.153     7 C    1.020    38 H    0.927
                             9 O    0.103
     9   8 O    1.892 --     7 C    1.612     8 N    0.103
    10   6 C    3.958 --    13 C    0.985    11 C    0.983     2 N    0.976
                            39 H    0.945
    11   6 C    3.981 --    12 C    1.000    10 C    0.983    40 H    0.973
                            41 H    0.972
    12   6 C    3.967 --    11 C    1.000    15 N    0.988    42 H    0.969
                            43 H    0.959
    13   6 C    3.985 --    14 C    1.002    10 C    0.985    44 H    0.974
                            45 H    0.971
    14   6 C    3.961 --    13 C    1.002    15 N    0.977    46 H    0.961
                            47 H    0.958
    15   7 N    3.250 --    16 C    1.128    12 C    0.988    14 C    0.977
    16   6 C    3.822 --    17 N    1.416    20 N    1.136    15 N    1.128
    17   7 N    2.931 --    16 C    1.416    18 C    1.250
    18   6 C    3.892 --    32 C    1.273    17 N    1.250    19 C    1.210
    19   6 C    3.900 --    29 C    1.364    18 C    1.210    20 N    1.138
    20   7 N    3.539 --    19 C    1.138    16 C    1.136    21 C    0.991
    21   6 C    3.971 --    20 N    0.991    22 C    0.990    48 H    0.963
                            49 H    0.952
    22   6 C    3.978 --    23 C    1.417    28 C    1.398    21 C    0.990
    23   6 C    3.942 --    22 C    1.417    24 C    1.403    50 H    0.967
    24   6 C    3.927 --    23 C    1.403    25 C    1.393    51 H    0.968
    25   6 C    3.878 --    27 C    1.395    24 C    1.393    26 F    0.956
    26   9 F    1.085 --    25 C    0.956
    27   6 C    3.937 --    28 C    1.408    25 C    1.395    52 H    0.968
    28   6 C    3.925 --    27 C    1.408    22 C    1.398    53 H    0.970
    29   6 C    3.901 --    30 C    1.399    19 C    1.364    54 H    0.967
    30   6 C    3.854 --    29 C    1.399    31 C    1.376    55 H    0.972
    31   6 C    3.962 --    32 C    1.484    30 C    1.376    56 H    0.971
    32   6 C    3.869 --    31 C    1.484    18 C    1.273    57 H    0.969
    33   1 H    0.995 --     1 C    0.974
    34   1 H    0.991 --     1 C    0.970
    35   1 H    0.991 --     1 C    0.970
    36   1 H    0.998 --     5 C    0.964
    37   1 H    0.997 --     6 C    0.967
    38   1 H    0.967 --     8 N    0.927
    39   1 H    0.991 --    10 C    0.945
    40   1 H    0.996 --    11 C    0.973
    41   1 H    0.997 --    11 C    0.972
    42   1 H    0.993 --    12 C    0.969
    43   1 H    0.987 --    12 C    0.959
    44   1 H    0.996 --    13 C    0.974
    45   1 H    0.997 --    13 C    0.971
    46   1 H    0.995 --    14 C    0.961
    47   1 H    0.987 --    14 C    0.958
    48   1 H    0.995 --    21 C    0.963
    49   1 H    0.995 --    21 C    0.952
    50   1 H    0.998 --    23 C    0.967
    51   1 H    0.997 --    24 C    0.968
    52   1 H    0.997 --    27 C    0.968
    53   1 H    0.999 --    28 C    0.970
    54   1 H    0.999 --    29 C    0.967
    55   1 H    0.998 --    30 C    0.972
    56   1 H    0.998 --    31 C    0.971
    57   1 H    0.998 --    32 C    0.969
 ---------------------------------------------------------------------------

Topologies differ in total number of bonds
Writing topology from bond orders to xtbtopo.mol

molecular dipole:
                 x           y           z       tot (Debye)
 q only:        0.837      -1.808      -1.352
   full:        0.937      -1.586      -1.742       6.444
molecular quadrupole (traceless):
                xx          xy          yy          xz          yz          zz
 q only:      -37.308      21.110      -1.412       6.397      -1.022      38.720
  q+dip:      -34.934      18.104      -5.529       6.992      -1.153      40.463
   full:      -34.668      19.513      -4.705       6.571       0.835      39.374


           -------------------------------------------------
          | TOTAL ENERGY              -90.449282204451 Eh   |
          | GRADIENT NORM               0.100952297705 Eh/α |
          | HOMO-LUMO GAP               0.034218874929 eV   |
           -------------------------------------------------

------------------------------------------------------------------------
 * finished run on 2025/05/15 at 16:21:26.415     
------------------------------------------------------------------------
 total:
 * wall-time:     0 d,  0 h,  0 min,  0.303 sec
 *  cpu-time:     0 d,  0 h,  0 min,  0.167 sec
 * ratio c/w:     0.552 speedup
 SCF:
 * wall-time:     0 d,  0 h,  0 min,  0.286 sec
 *  cpu-time:     0 d,  0 h,  0 min,  0.151 sec
 * ratio c/w:     0.529 speedup


