98
 energy: -148.199158515945 gnorm: 0.000439184650 xtb: 6.7.1 (edcfbbe)
O            5.40060967163352       -2.22057021104998        1.52109347069573
C            5.36917075896995       -1.20678396248957        0.85675794324858
N            4.44391623044253       -0.86712404780342       -0.05243093019267
C            3.42652883243140       -1.74498237660904       -0.61908616085355
C            4.06522339183148       -2.81455909693103       -1.52477004990013
C            4.93699258438541       -2.16918787943282       -2.56149479233269
C            6.31048556417991       -2.08118134007076       -2.37356668592121
C            7.11096988468487       -1.44493673028412       -3.30606201774763
C            6.54550906987775       -0.88645564569690       -4.43930823942149
C            5.17700900224904       -0.96834200459620       -4.63534700359459
C            4.37879187430953       -1.60355390553358       -3.70146299244675
C            2.52467434991279       -2.40775575868020        0.45687248781812
C            2.13428215343605       -1.43199650431825        1.58299799242150
C            1.48840367751973       -0.13783831695294        1.08694174886001
N            0.35602071377213       -0.42744800231963        0.23429278018670
C            0.28790237378369       -0.01327228338843       -1.03700943890432
C           -1.07302108126785       -0.32029544874107       -1.68393252530212
N           -2.08097301615803        0.57150974723145       -1.13571799293224
C           -2.68805922806167        0.28427380359577        0.05377288507918
N           -3.65925955052173        1.15125929480140        0.44456902044886
C           -4.20433376139019        2.16237263273809       -0.43060836591176
C           -4.39819730483443        0.84456786624428        1.65641190455799
C           -5.66764720512154        0.11317575097997        1.34383167549802
C           -5.77991202339171       -1.23276970582133        1.17874995473847
S           -7.39203770704575       -1.65601742481552        0.76418305172885
C           -7.80800992291386        0.04707485341174        0.83898543497556
C           -9.20189910086957        0.51392521967179        0.59278173235409
C           -9.81789080792559        0.98173455486206        1.91485023161062
C           -9.19999176553913        1.64586102733659       -0.43555280043404
N           -6.81890832559832        0.80765498114569        1.14193872010252
O           -2.39139136902967       -0.70611249643329        0.71494608438541
C           -1.02150689074831       -0.21161190551937       -3.21288666640097
C           -0.05703561436134       -1.25458747670869       -3.77316302825874
C           -2.41023605917284       -0.39924482522274       -3.81794438839431
O            1.20040899895553        0.54819342236611       -1.62013061849033
C            1.04474566847455        0.74345102647748        2.26605165373010
C            0.22600272165106        1.92145623386524        1.81099866126880
C            0.69110119012180        2.78056496908722        0.82144638754827
C           -0.07869601906954        3.84678030890578        0.39370320975537
C           -1.31854751413315        4.08433982212802        0.96300874402808
C           -1.78439214830206        3.24428387372914        1.95903997603752
C           -1.02148916839330        2.16560034307913        2.37014631771279
O            3.07638541328599       -3.57664531951756        0.98993237102633
O            6.28318051571442       -0.20981135838366        0.97987624098969
C            7.19051991012308       -0.33286550872955        2.07450608870954
C            6.55773721848871        0.15146887679583        3.33596372682759
C            5.67363127344559       -0.50961878185268        4.13780676102381
N            5.19786352018834        0.19804644206443        5.18573400296323
C            5.68414033868011        1.38244475166643        5.21759969661073
S            6.79163601552098        1.76044400563852        3.93559976470829
H            4.62991193453070       -0.01545458780370       -0.55927454705263
H            2.79749174752390       -1.09412918738927       -1.23084746980343
H            3.26042374493944       -3.38154863603841       -1.99444858219020
H            4.64980541726147       -3.49723906307457       -0.90735634835767
H            6.75603393927121       -2.51985167604460       -1.49153849612348
H            8.17817892612640       -1.38617728908184       -3.14839816352106
H            7.16946033136651       -0.39123353868700       -5.16870679579934
H            4.73063283387028       -0.53550844750016       -5.51862446112916
H            3.31141870913470       -1.66505160513191       -3.85767000100727
H            1.61273408020627       -2.73350832110798       -0.05864968079749
H            1.43739066759983       -1.96068246654881        2.23693615341546
H            3.02041110481649       -1.18776098013136        2.17108976940829
H            2.20052755312330        0.41404653071712        0.46700474222131
H           -0.48651537488159       -0.80584374191104        0.66306891727369
H           -1.37028875526804       -1.33453440281833       -1.39321602662070
H           -2.03941452047120        1.52806603005138       -1.44646988860948
H           -5.16974394941004        2.47253345977413       -0.03648648293787
H           -3.54505863750195        3.03439576854892       -0.48100732088531
H           -4.35857555694792        1.76898583219840       -1.43803969086848
H           -4.63301635424924        1.77660699665926        2.17420306710154
H           -3.75414704889249        0.21940485120965        2.27639483659887
H           -5.01259741982150       -1.97332068269785        1.27212097029905
H           -9.78389103036386       -0.32902310992401        0.20636304144681
H           -9.23174335903389        1.79988690129527        2.32515434860116
H          -10.83689271034315        1.32330968878205        1.75160572637398
H           -9.83479606736087        0.16909060024787        2.63757687745628
H           -8.59794495920302        2.47300434067555       -0.06987481880170
H          -10.21478085268740        1.99482424438679       -0.60869971980807
H           -8.78333890272828        1.30344894030285       -1.37993361623382
H           -0.64188584748001        0.78384420686762       -3.46655542113070
H            0.94444525926893       -1.08056795120867       -3.39170346868226
H           -0.02821395784446       -1.19295920194318       -4.85834864045842
H           -0.37245392197190       -2.25730793493090       -3.49163327410575
H           -2.35875121155006       -0.32416383498617       -4.90138723537492
H           -2.80275926900239       -1.38019574549060       -3.55887917922049
H           -3.10471213534191        0.35356081787623       -3.45422284644691
H            0.45453927618937        0.14140435877426        2.95972543885156
H            1.93599632854404        1.09042778313711        2.79561111320619
H            1.65892655416851        2.61549021003644        0.37355209146784
H            0.29426453367956        4.49869244839307       -0.38287467713631
H           -1.91312816308070        4.92680432929835        0.63852235422139
H           -2.74351875844229        3.43163732614850        2.41874103106829
H           -1.39706148479315        1.50831225035588        3.14102969083001
H            3.94199430561423       -3.34088891878356        1.37326920155006
H            7.47919052949200       -1.38467216904604        2.18443084735460
H            8.05607591472471        0.27395518430695        1.80603130104154
H            5.35016695413570       -1.52425996668928        3.99131989285638
H            5.44460226886633        2.11083486915668        5.96617941618860
