----- Optimization -----
      -----------------------------------------------------------      
     |                   =====================                   |     
     |                           x T B                           |     
     |                   =====================                   |     
     |                         S. Grimme                         |     
     |          Mulliken Center for Theoretical Chemistry        |     
     |                    University of Bonn                     |     
      -----------------------------------------------------------      

   * xtb version 6.7.1 (edcfbbe) compiled by 'conda@3ef47c1a292c' on 2024-11-25

   xtb is free software: you can redistribute it and/or modify it under
   the terms of the GNU Lesser General Public License as published by
   the Free Software Foundation, either version 3 of the License, or
   (at your option) any later version.
   
   xtb is distributed in the hope that it will be useful,
   but WITHOUT ANY WARRANTY; without even the implied warranty of
   MERCHANTABILITY or FITNESS FOR A PARTICULAR PURPOSE.  See the
   GNU Lesser General Public License for more details.
   
   Cite this work as:
   * C. Bannwarth, E. Caldeweyher, S. Ehlert, A. Hansen, P. Pracht,
     J. Seibert, S. Spicher, S. Grimme, WIREs Comput. Mol. Sci., 2020, 11,
     e01493. DOI: 10.1002/wcms.1493
   
   for GFN2-xTB:
   * C. Bannwarth, S. Ehlert and S. Grimme., J. Chem. Theory Comput., 2019,
     15, 1652-1671. DOI: 10.1021/acs.jctc.8b01176
   for GFN1-xTB:
   * S. Grimme, C. Bannwarth, P. Shushkov, J. Chem. Theory Comput., 2017,
     13, 1989-2009. DOI: 10.1021/acs.jctc.7b00118
   for GFN0-xTB:
   * P. Pracht, E. Caldeweyher, S. Ehlert, S. Grimme, ChemRxiv, 2019, preprint.
     DOI: 10.26434/chemrxiv.8326202.v1
   for GFN-FF:
   * S. Spicher and S. Grimme, Angew. Chem. Int. Ed., 2020, 59, 15665-15673.
     DOI: 10.1002/anie.202004239
   
   for ALPB and GBSA implicit solvation:
   * S. Ehlert, M. Stahn, S. Spicher, S. Grimme, J. Chem. Theory Comput.,
     2021, 17, 4250-4261. DOI: 10.1021/acs.jctc.1c00471
   
   for ddCOSMO and CPCM-X implicit solvation:
   * M. Stahn, S. Ehlert, S. Grimme, J. Phys. Chem. A,
     2023, XX, XXXX-XXXX. DOI: 10.1021/acs.jpca.3c04382
   
   for DFT-D4:
   * E. Caldeweyher, C. Bannwarth and S. Grimme, J. Chem. Phys., 2017,
     147, 034112. DOI: 10.1063/1.4993215
   * E. Caldeweyher, S. Ehlert, A. Hansen, H. Neugebauer, S. Spicher,
     C. Bannwarth and S. Grimme, J. Chem. Phys., 2019, 150, 154122.
     DOI: 10.1063/1.5090222
   * E. Caldeweyher, J.-M. Mewes, S. Ehlert and S. Grimme, Phys. Chem. Chem. Phys.
     2020, 22, 8499-8512. DOI: 10.1039/D0CP00502A
   
   for sTDA-xTB:
   * S. Grimme and C. Bannwarth, J. Chem. Phys., 2016, 145, 054103.
     DOI: 10.1063/1.4959605
   
   in the mass-spec context:
   * V. Asgeirsson, C. Bauer and S. Grimme, Chem. Sci., 2017, 8, 4879.
     DOI: 10.1039/c7sc00601b
   * J. Koopman and S. Grimme, ACS Omega 2019, 4, 12, 15120-15133.
     DOI: 10.1021/acsomega.9b02011
   
   for metadynamics refer to:
   * S. Grimme, J. Chem. Theory Comput., 2019, 155, 2847-2862
     DOI: 10.1021/acs.jctc.9b00143
   
   for SPH calculations refer to:
   * S. Spicher and S. Grimme, J. Chem. Theory Comput., 2021, 17, 1701-1714
     DOI: 10.1021/acs.jctc.0c01306
   
   for ONIOM refer to:
   * C. Plett, A. Katbashev, S. Ehlert, S. Grimme, M. Bursch,
     Phys. Chem. Chem. Phys., 2023, 25, 17860-17868. DOI: 10.1039/D3CP02178E
   
   for DIPRO refer to:
   * J. Kohn, N. Gildemeister, S. Grimme, D. Fazzi, A. Hansen,
     J. Chem. Phys., 2023, just accepted.
   
   for PTB refer to:
   * S. Grimme, M. Mueller, A. Hansen, J. Chem. Phys., 2023, 158, 124111.
     DOI: 10.1063/5.0137838
   
   with help from (in alphabetical order)
   P. Atkinson, C. Bannwarth, F. Bohle, G. Brandenburg, E. Caldeweyher
   M. Checinski, S. Dohm, S. Ehlert, S. Ehrlich, I. Gerasimov, C. Hölzer
   A. Katbashev, J. Kohn, J. Koopman, C. Lavigne, S. Lehtola, F. März, M. Müller,
   F. Musil, H. Neugebauer, J. Pisarek, C. Plett, P. Pracht, F. Pultar,
   J. Seibert, P. Shushkov, S. Spicher, M. Stahn, M. Steiner, T. Strunk,
   J. Stückrath, T. Rose, and J. Unsleber
   
 * started run on 2025/05/15 at 16:18:35.336     
   ID    Z sym.   atoms
    1    8 O      1, 13, 15-17
    2    6 C      2-6, 8, 10, 11
    3    7 N      7, 9, 12, 14
    4    1 H      18-29

           -------------------------------------------------
          |                Calculation Setup                |
           -------------------------------------------------

          program call               : xtb /rds/general/user/hgt20/home/callum/QDESCP/Ribavirin_rdkit_conf_11/Ribavirin_rdkit_conf_11.xyz --opt normal --acc 1 --gfn 2 --chrg 0 --uhf 0 -P 1
          hostname                   : login-c
          coordinate file            : /rds/general/user/hgt20/home/callum/QDESCP/Ribavirin_rdkit_conf_11/Ribavirin_rdkit_conf_11.xyz
          omp threads                :                     1


           -------------------------------------------------
          |                 G F N 2 - x T B                 |
           -------------------------------------------------

        Reference                      10.1021/acs.jctc.8b01176
      * Hamiltonian:
        H0-scaling (s, p, d)           1.850000    2.230000    2.230000
        zeta-weighting                 0.500000
      * Dispersion:
        s8                             2.700000
        a1                             0.520000
        a2                             5.000000
        s9                             5.000000
      * Repulsion:
        kExp                           1.500000    1.000000
        rExp                           1.000000
      * Coulomb:
        alpha                          2.000000
        third order                    shell-resolved
        anisotropic                    true
        a3                             3.000000
        a5                             4.000000
        cn-shift                       1.200000
        cn-exp                         4.000000
        max-rad                        5.000000


          ...................................................
          :                      SETUP                      :
          :.................................................:
          :  # basis functions                  80          :
          :  # atomic orbitals                  80          :
          :  # shells                           46          :
          :  # electrons                        94          :
          :  max. iterations                   250          :
          :  Hamiltonian                  GFN2-xTB          :
          :  restarted?                      false          :
          :  GBSA solvation                  false          :
          :  PC potential                    false          :
          :  electronic temp.          300.0000000     K    :
          :  accuracy                    1.0000000          :
          :  -> integral cutoff          0.2500000E+02      :
          :  -> integral neglect         0.1000000E-07      :
          :  -> SCF convergence          0.1000000E-05 Eh   :
          :  -> wf. convergence          0.1000000E-03 e    :
          :  Broyden damping             0.4000000          :
          :  net charge                          0          :
          :  unpaired electrons                  0          :
          ...................................................

 iter      E             dE          RMSdq      gap      omega  full diag
   1    -55.5515335 -0.555515E+02  0.471E+00    3.43       0.0  T
   2    -55.6914961 -0.139963E+00  0.288E+00    3.05       1.0  T
   3    -55.7238225 -0.323263E-01  0.157E+00    3.40       1.0  T
   4    -55.7354072 -0.115848E-01  0.501E-01    3.23       1.0  T
   5    -55.7386206 -0.321340E-02  0.110E-01    3.21       1.0  T
   6    -55.7386611 -0.404407E-04  0.486E-02    3.26       1.0  T
   7    -55.7386714 -0.103419E-04  0.217E-02    3.25       1.0  T
   8    -55.7386730 -0.154739E-05  0.675E-03    3.25       2.8  T
   9    -55.7386732 -0.236586E-06  0.272E-03    3.25       6.8  T
  10    -55.7386732 -0.364463E-07  0.128E-03    3.25      14.5  T
  11    -55.7386733 -0.182721E-07  0.406E-04    3.25      45.8  T
  12    -55.7386733 -0.107966E-08  0.156E-04    3.25     118.7  T

   *** convergence criteria satisfied after 12 iterations ***

         #    Occupation            Energy/Eh            Energy/eV
      -------------------------------------------------------------
         1        2.0000           -0.7404976             -20.1500
       ...           ...                  ...                  ...
        41        2.0000           -0.4460136             -12.1366
        42        2.0000           -0.4420155             -12.0279
        43        2.0000           -0.4366029             -11.8806
        44        2.0000           -0.4320752             -11.7574
        45        2.0000           -0.4199314             -11.4269
        46        2.0000           -0.4075434             -11.0898
        47        2.0000           -0.4000110             -10.8849 (HOMO)
        48                         -0.2805960              -7.6354 (LUMO)
        49                         -0.2400478              -6.5320
        50                         -0.1551437              -4.2217
        51                         -0.0807434              -2.1971
        52                         -0.0565978              -1.5401
       ...                                ...                  ...
        80                          0.6209371              16.8966
      -------------------------------------------------------------
                  HL-Gap            0.1194150 Eh            3.2494 eV
             Fermi-level           -0.3403035 Eh           -9.2601 eV

 SCC (total)                   0 d,  0 h,  0 min,  0.059 sec
 SCC setup                      ...        0 min,  0.000 sec (  0.387%)
 Dispersion                     ...        0 min,  0.000 sec (  0.378%)
 classical contributions        ...        0 min,  0.000 sec (  0.125%)
 integral evaluation            ...        0 min,  0.005 sec (  7.640%)
 iterations                     ...        0 min,  0.042 sec ( 70.841%)
 molecular gradient             ...        0 min,  0.012 sec ( 20.444%)
 printout                       ...        0 min,  0.000 sec (  0.176%)

         :::::::::::::::::::::::::::::::::::::::::::::::::::::
         ::                     SUMMARY                     ::
         :::::::::::::::::::::::::::::::::::::::::::::::::::::
         :: total energy             -55.271036344370 Eh    ::
         :: gradient norm              0.095195039181 Eh/a0 ::
         :: HOMO-LUMO gap              3.249447641414 eV    ::
         ::.................................................::
         :: SCC energy               -55.738387469636 Eh    ::
         :: -> isotropic ES            0.145978860575 Eh    ::
         :: -> anisotropic ES          0.001304448550 Eh    ::
         :: -> anisotropic XC          0.010988379719 Eh    ::
         :: -> dispersion             -0.026503034238 Eh    ::
         :: repulsion energy           0.467351125266 Eh    ::
         :: add. restraining           0.000000000000 Eh    ::
         :: total charge              -0.000000000000 e     ::
         :::::::::::::::::::::::::::::::::::::::::::::::::::::

      ----------------------------------------------------------- 
     |                   =====================                   |
     |                        A N C O P T                        |
     |                   =====================                   |
     |               Approximate Normal Coordinate               |
     |                Rational Function Optimizer                |
      ----------------------------------------------------------- 
      ----------------------------------------------------------- 
     |                   =====================                   |
     |                        A N C O P T                        |
     |                   =====================                   |
     |               Approximate Normal Coordinate               |
     |                Rational Function Optimizer                |
      ----------------------------------------------------------- 

          ...................................................
          :                      SETUP                      :
          :.................................................:
          :   optimization level            normal          :
          :   max. optcycles                   200          :
          :   ANC micro-cycles                  20          :
          :   degrees of freedom                81          :
          :.................................................:
          :   RF solver                   davidson          :
          :   write xtbopt.log                true          :
          :   linear?                        false          :
          :   energy convergence         0.5000000E-05 Eh   :
          :   grad. convergence          0.1000000E-02 Eh/α :
          :   maxmium RF displ.          1.0000000          :
          :   Hlow (freq-cutoff)         0.1000000E-01      :
          :   Hmax (freq-cutoff)         5.0000000          :
          :   S6 in model hess.         20.0000000          :
          ...................................................

generating ANC from exact Hessian ...
Using Lindh-Hessian (1995)
 Shifting diagonal of input Hessian by    9.3808544062038268E-003
 Lowest  eigenvalues of input Hessian
    0.000000    0.000000    0.000000    0.000000    0.000000    0.000000
    0.010000    0.010637    0.011670    0.013509    0.014790    0.015017
    0.017055    0.018135    0.019580    0.025743    0.027220    0.031527
 Highest eigenvalues
    1.716223    1.768121    1.948888    2.009040    2.113490    2.325112


........................................................................
.............................. CYCLE    1 ..............................
........................................................................

 iter      E             dE          RMSdq      gap      omega  full diag
   1    -55.7386733 -0.557387E+02  0.646E-05    3.25       0.0  T
   2    -55.7386733 -0.174865E-10  0.373E-05    3.25     497.8  T
   3    -55.7386733 -0.181899E-11  0.225E-05    3.25     827.1  T
     SCC iter.                  ...        0 min,  0.004 sec
     gradient                   ...        0 min,  0.012 sec
 * total energy  :   -55.2710363 Eh     change       -0.2080895E-09 Eh
   gradient norm :     0.0951950 Eh/α   predicted     0.0000000E+00 (-100.00%)
   displ. norm   :     0.2349518 α      lambda       -0.1171094E-01
   maximum displ.:     0.0899825 α      in ANC's #13, #20, #25, ...

........................................................................
.............................. CYCLE    2 ..............................
........................................................................

 iter      E             dE          RMSdq      gap      omega  full diag
   1    -55.7699602 -0.557700E+02  0.205E-01    3.41       0.0  T
   2    -55.7700321 -0.719217E-04  0.119E-01    3.41       1.0  T
   3    -55.7700226  0.950538E-05  0.397E-02    3.43       1.0  T
   4    -55.7700423 -0.196773E-04  0.101E-02    3.42       1.8  T
   5    -55.7700438 -0.155203E-05  0.411E-03    3.42       4.5  T
   6    -55.7700439 -0.943848E-07  0.181E-03    3.42      10.3  T
   7    -55.7700439 -0.181484E-07  0.660E-04    3.42      28.1  T
   8    -55.7700439 -0.323167E-08  0.280E-04    3.42      66.3  T
     SCC iter.                  ...        0 min,  0.009 sec
     gradient                   ...        0 min,  0.040 sec
 * total energy  :   -55.2788955 Eh     change       -0.7859199E-02 Eh
   gradient norm :     0.0419727 Eh/α   predicted    -0.6179975E-02 ( -21.37%)
   displ. norm   :     0.1822883 α      lambda       -0.3145880E-02
   maximum displ.:     0.0807516 α      in ANC's #13, #15, #2, ...

........................................................................
.............................. CYCLE    3 ..............................
........................................................................

 iter      E             dE          RMSdq      gap      omega  full diag
   1    -55.7851311 -0.557851E+02  0.115E-01    3.51       0.0  T
   2    -55.7851515 -0.204865E-04  0.679E-02    3.51       1.0  T
   3    -55.7851486  0.295209E-05  0.200E-02    3.51       1.0  T
   4    -55.7851544 -0.576929E-05  0.542E-03    3.51       3.4  T
   5    -55.7851548 -0.402693E-06  0.205E-03    3.51       9.1  T
   6    -55.7851548 -0.475584E-07  0.929E-04    3.51      20.0  T
   7    -55.7851548 -0.208487E-08  0.353E-04    3.51      52.6  T
     SCC iter.                  ...        0 min,  0.008 sec
     gradient                   ...        0 min,  0.012 sec
 * total energy  :   -55.2806791 Eh     change       -0.1783574E-02 Eh
   gradient norm :     0.0129298 Eh/α   predicted    -0.1625868E-02 (  -8.84%)
   displ. norm   :     0.1026707 α      lambda       -0.3647882E-03
   maximum displ.:     0.0628432 α      in ANC's #2, #6, #13, ...

........................................................................
.............................. CYCLE    4 ..............................
........................................................................

 iter      E             dE          RMSdq      gap      omega  full diag
   1    -55.7847702 -0.557848E+02  0.416E-02    3.51       0.0  T
   2    -55.7847720 -0.185010E-05  0.245E-02    3.52       1.0  T
   3    -55.7847717  0.333910E-06  0.645E-03    3.52       2.9  T
   4    -55.7847723 -0.615933E-06  0.206E-03    3.52       9.0  T
   5    -55.7847723 -0.500036E-07  0.729E-04    3.52      25.5  T
   6    -55.7847723 -0.325416E-08  0.302E-04    3.52      61.5  T
     SCC iter.                  ...        0 min,  0.007 sec
     gradient                   ...        0 min,  0.012 sec
 * total energy  :   -55.2809330 Eh     change       -0.2539001E-03 Eh
   gradient norm :     0.0054698 Eh/α   predicted    -0.1843304E-03 ( -27.40%)
   displ. norm   :     0.1380593 α      lambda       -0.2086657E-03
   maximum displ.:     0.0943393 α      in ANC's #2, #6, #4, ...

........................................................................
.............................. CYCLE    5 ..............................
........................................................................

 iter      E             dE          RMSdq      gap      omega  full diag
   1    -55.7829966 -0.557830E+02  0.395E-02    3.51       0.0  T
   2    -55.7829979 -0.127420E-05  0.236E-02    3.51       1.0  T
   3    -55.7829976  0.312693E-06  0.539E-03    3.51       3.4  T
   4    -55.7829981 -0.557536E-06  0.163E-03    3.51      11.4  T
   5    -55.7829982 -0.272196E-07  0.683E-04    3.51      27.2  T
   6    -55.7829982 -0.412383E-08  0.281E-04    3.51      66.0  T
     SCC iter.                  ...        0 min,  0.006 sec
     gradient                   ...        0 min,  0.043 sec
 * total energy  :   -55.2810685 Eh     change       -0.1354514E-03 Eh
   gradient norm :     0.0039230 Eh/α   predicted    -0.1064161E-03 ( -21.44%)
   displ. norm   :     0.1254609 α      lambda       -0.9717287E-04
   maximum displ.:     0.0857706 α      in ANC's #2, #6, #4, ...

........................................................................
.............................. CYCLE    6 ..............................
........................................................................

 iter      E             dE          RMSdq      gap      omega  full diag
   1    -55.7820729 -0.557821E+02  0.296E-02    3.51       0.0  T
   2    -55.7820733 -0.434103E-06  0.176E-02    3.51       1.1  T
   3    -55.7820731  0.190557E-06  0.379E-03    3.51       4.9  T
   4    -55.7820734 -0.329606E-06  0.106E-03    3.51      17.5  T
   5    -55.7820734 -0.478185E-08  0.488E-04    3.51      38.0  T
   6    -55.7820734 -0.974843E-09  0.136E-04    3.51     136.0  T
     SCC iter.                  ...        0 min,  0.007 sec
     gradient                   ...        0 min,  0.012 sec
 * total energy  :   -55.2811452 Eh     change       -0.7676803E-04 Eh
   gradient norm :     0.0047386 Eh/α   predicted    -0.4940280E-04 ( -35.65%)
   displ. norm   :     0.1808293 α      lambda       -0.1203176E-03
   maximum displ.:     0.1207217 α      in ANC's #2, #6, #4, ...

........................................................................
.............................. CYCLE    7 ..............................
........................................................................

 iter      E             dE          RMSdq      gap      omega  full diag
   1    -55.7818316 -0.557818E+02  0.401E-02    3.51       0.0  T
   2    -55.7818326 -0.939090E-06  0.238E-02    3.51       1.0  T
   3    -55.7818321  0.506005E-06  0.661E-03    3.51       2.8  T
   4    -55.7818329 -0.810741E-06  0.156E-03    3.51      11.9  T
   5    -55.7818329 -0.137371E-07  0.752E-04    3.51      24.7  T
   6    -55.7818329 -0.855692E-09  0.206E-04    3.51      90.0  T
     SCC iter.                  ...        0 min,  0.007 sec
     gradient                   ...        0 min,  0.012 sec
 * total energy  :   -55.2812365 Eh     change       -0.9126200E-04 Eh
   gradient norm :     0.0038440 Eh/α   predicted    -0.6213173E-04 ( -31.92%)
   displ. norm   :     0.1707668 α      lambda       -0.8325799E-04
   maximum displ.:     0.1186684 α      in ANC's #2, #6, #4, ...

........................................................................
.............................. CYCLE    8 ..............................
........................................................................

 iter      E             dE          RMSdq      gap      omega  full diag
   1    -55.7824904 -0.557825E+02  0.387E-02    3.51       0.0  T
   2    -55.7824913 -0.939086E-06  0.228E-02    3.51       1.0  T
   3    -55.7824911  0.281903E-06  0.586E-03    3.51       3.2  T
   4    -55.7824916 -0.527767E-06  0.161E-03    3.51      11.5  T
   5    -55.7824916 -0.198889E-07  0.773E-04    3.51      24.0  T
   6    -55.7824916 -0.121394E-08  0.196E-04    3.51      94.9  T
     SCC iter.                  ...        0 min,  0.040 sec
     gradient                   ...        0 min,  0.012 sec
 * total energy  :   -55.2812956 Eh     change       -0.5907982E-04 Eh
   gradient norm :     0.0022196 Eh/α   predicted    -0.4284724E-04 ( -27.48%)
   displ. norm   :     0.1064524 α      lambda       -0.3713576E-04
   maximum displ.:     0.0801223 α      in ANC's #2, #6, #3, ...

........................................................................
.............................. CYCLE    9 ..............................
........................................................................

 iter      E             dE          RMSdq      gap      omega  full diag
   1    -55.7832880 -0.557833E+02  0.263E-02    3.51       0.0  T
   2    -55.7832884 -0.409867E-06  0.154E-02    3.51       1.2  T
   3    -55.7832884  0.218912E-07  0.300E-03    3.51       6.2  T
   4    -55.7832885 -0.119873E-06  0.100E-03    3.51      18.6  T
   5    -55.7832885 -0.491310E-08  0.520E-04    3.51      35.7  T
   6    -55.7832885 -0.147516E-08  0.129E-04    3.51     144.3  T
     SCC iter.                  ...        0 min,  0.007 sec
     gradient                   ...        0 min,  0.012 sec
 * total energy  :   -55.2813243 Eh     change       -0.2876366E-04 Eh
   gradient norm :     0.0013868 Eh/α   predicted    -0.1877948E-04 ( -34.71%)
   displ. norm   :     0.1347145 α      lambda       -0.3022170E-04
   maximum displ.:     0.1037505 α      in ANC's #2, #3, #1, ...

........................................................................
.............................. CYCLE   10 ..............................
........................................................................

 iter      E             dE          RMSdq      gap      omega  full diag
   1    -55.7841618 -0.557842E+02  0.392E-02    3.51       0.0  T
   2    -55.7841625 -0.680995E-06  0.228E-02    3.51       1.0  T
   3    -55.7841626 -0.826604E-07  0.296E-03    3.51       6.3  T
   4    -55.7841627 -0.115618E-06  0.125E-03    3.51      14.9  T
   5    -55.7841627 -0.191914E-08  0.363E-04    3.51      51.1  T
   6    -55.7841627 -0.102176E-08  0.131E-04    3.51     141.5  T
     SCC iter.                  ...        0 min,  0.006 sec
     gradient                   ...        0 min,  0.012 sec
 * total energy  :   -55.2813598 Eh     change       -0.3542514E-04 Eh
   gradient norm :     0.0018729 Eh/α   predicted    -0.1523405E-04 ( -57.00%)
   displ. norm   :     0.1531547 α      lambda       -0.3439662E-04
   maximum displ.:     0.1106906 α      in ANC's #2, #3, #1, ...

........................................................................
.............................. CYCLE   11 ..............................
........................................................................

 iter      E             dE          RMSdq      gap      omega  full diag
   1    -55.7841356 -0.557841E+02  0.488E-02    3.51       0.0  T
   2    -55.7841363 -0.750027E-06  0.282E-02    3.51       1.0  T
   3    -55.7841365 -0.167169E-06  0.289E-03    3.51       6.4  T
   4    -55.7841366 -0.973642E-07  0.147E-03    3.51      12.6  T
   5    -55.7841366 -0.405397E-08  0.517E-04    3.51      35.9  T
   6    -55.7841366 -0.432451E-08  0.159E-04    3.51     117.1  T
     SCC iter.                  ...        0 min,  0.006 sec
     gradient                   ...        0 min,  0.039 sec
 * total energy  :   -55.2814062 Eh     change       -0.4646344E-04 Eh
   gradient norm :     0.0023376 Eh/α   predicted    -0.1737809E-04 ( -62.60%)
   displ. norm   :     0.1710322 α      lambda       -0.5960134E-04
   maximum displ.:     0.1168573 α      in ANC's #2, #3, #6, ...

........................................................................
.............................. CYCLE   12 ..............................
........................................................................

 iter      E             dE          RMSdq      gap      omega  full diag
   1    -55.7838851 -0.557839E+02  0.548E-02    3.51       0.0  T
   2    -55.7838860 -0.878527E-06  0.317E-02    3.51       1.0  T
   3    -55.7838862 -0.237970E-06  0.298E-03    3.51       6.2  T
   4    -55.7838863 -0.725262E-07  0.158E-03    3.51      11.8  T
   5    -55.7838863 -0.815364E-08  0.584E-04    3.51      31.8  T
   6    -55.7838863 -0.436637E-08  0.161E-04    3.51     115.0  T
     SCC iter.                  ...        0 min,  0.006 sec
     gradient                   ...        0 min,  0.012 sec
 * total energy  :   -55.2814607 Eh     change       -0.5450051E-04 Eh
   gradient norm :     0.0023404 Eh/α   predicted    -0.3067617E-04 ( -43.71%)
   displ. norm   :     0.2952063 α      lambda       -0.9288039E-04
   maximum displ.:     0.2016453 α      in ANC's #2, #3, #6, ...

........................................................................
.............................. CYCLE   13 ..............................
........................................................................

 iter      E             dE          RMSdq      gap      omega  full diag
   1    -55.7827851 -0.557828E+02  0.936E-02    3.50       0.0  T
   2    -55.7827878 -0.272669E-05  0.542E-02    3.51       1.0  T
   3    -55.7827883 -0.556750E-06  0.567E-03    3.50       3.3  T
   4    -55.7827887 -0.362922E-06  0.278E-03    3.51       6.7  T
   5    -55.7827887 -0.247844E-07  0.119E-03    3.51      15.7  T
   6    -55.7827887 -0.122542E-07  0.294E-04    3.51      63.3  T
   7    -55.7827887 -0.361283E-09  0.149E-04    3.51     124.4  T
     SCC iter.                  ...        0 min,  0.008 sec
     gradient                   ...        0 min,  0.012 sec
 * total energy  :   -55.2815374 Eh     change       -0.7669881E-04 Eh
   gradient norm :     0.0026902 Eh/α   predicted    -0.5049201E-04 ( -34.17%)
   displ. norm   :     0.2781954 α      lambda       -0.6983860E-04
   maximum displ.:     0.1953677 α      in ANC's #2, #3, #6, ...

........................................................................
.............................. CYCLE   14 ..............................
........................................................................

 iter      E             dE          RMSdq      gap      omega  full diag
   1    -55.7820637 -0.557821E+02  0.843E-02    3.50       0.0  T
   2    -55.7820659 -0.214880E-05  0.489E-02    3.50       1.0  T
   3    -55.7820662 -0.357298E-06  0.547E-03    3.50       3.4  T
   4    -55.7820666 -0.386040E-06  0.259E-03    3.50       7.2  T
   5    -55.7820666 -0.246536E-07  0.109E-03    3.50      17.0  T
   6    -55.7820667 -0.821616E-08  0.281E-04    3.50      66.1  T
   7    -55.7820667 -0.358384E-09  0.139E-04    3.50     133.8  T
     SCC iter.                  ...        0 min,  0.008 sec
     gradient                   ...        0 min,  0.012 sec
 * total energy  :   -55.2815930 Eh     change       -0.5556935E-04 Eh
   gradient norm :     0.0030483 Eh/α   predicted    -0.3762295E-04 ( -32.30%)
   displ. norm   :     0.2007302 α      lambda       -0.5086399E-04
   maximum displ.:     0.1495597 α      in ANC's #2, #3, #1, ...

........................................................................
.............................. CYCLE   15 ..............................
........................................................................

 iter      E             dE          RMSdq      gap      omega  full diag
   1    -55.7823817 -0.557824E+02  0.577E-02    3.50       0.0  T
   2    -55.7823827 -0.981019E-06  0.335E-02    3.50       1.0  T
   3    -55.7823827  0.143660E-07  0.474E-03    3.50       3.9  T
   4    -55.7823831 -0.390030E-06  0.188E-03    3.50       9.9  T
   5    -55.7823831 -0.961293E-08  0.607E-04    3.50      30.6  T
   6    -55.7823831 -0.257121E-08  0.216E-04    3.50      86.1  T
     SCC iter.                  ...        0 min,  0.007 sec
     gradient                   ...        0 min,  0.012 sec
 * total energy  :   -55.2816364 Eh     change       -0.4339965E-04 Eh
   gradient norm :     0.0022703 Eh/α   predicted    -0.2645745E-04 ( -39.04%)
   displ. norm   :     0.2088434 α      lambda       -0.5478362E-04
   maximum displ.:     0.1660292 α      in ANC's #2, #3, #1, ...

........................................................................
.............................. CYCLE   16 ..............................
........................................................................

 iter      E             dE          RMSdq      gap      omega  full diag
   1    -55.7829502 -0.557830E+02  0.580E-02    3.50       0.0  T
   2    -55.7829512 -0.104981E-05  0.338E-02    3.51       1.0  T
   3    -55.7829511  0.150496E-06  0.545E-03    3.50       3.4  T
   4    -55.7829517 -0.556399E-06  0.193E-03    3.50       9.6  T
   5    -55.7829517 -0.930233E-08  0.679E-04    3.50      27.3  T
   6    -55.7829517 -0.304345E-08  0.231E-04    3.50      80.5  T
     SCC iter.                  ...        0 min,  0.052 sec
     gradient                   ...        0 min,  0.012 sec
 * total energy  :   -55.2816838 Eh     change       -0.4741929E-04 Eh
   gradient norm :     0.0016502 Eh/α   predicted    -0.2858721E-04 ( -39.71%)
   displ. norm   :     0.3176368 α      lambda       -0.5192403E-04
   maximum displ.:     0.2630366 α      in ANC's #2, #3, #1, ...

........................................................................
.............................. CYCLE   17 ..............................
........................................................................

 iter      E             dE          RMSdq      gap      omega  full diag
   1    -55.7834181 -0.557834E+02  0.842E-02    3.50       0.0  T
   2    -55.7834204 -0.230130E-05  0.492E-02    3.51       1.0  T
   3    -55.7834199  0.484978E-06  0.838E-03    3.50       2.2  T
   4    -55.7834212 -0.135777E-05  0.280E-03    3.50       6.6  T
   5    -55.7834213 -0.191333E-07  0.119E-03    3.50      15.6  T
   6    -55.7834213 -0.932787E-08  0.337E-04    3.50      55.1  T
   7    -55.7834213 -0.489649E-09  0.162E-04    3.50     114.4  T
     SCC iter.                  ...        0 min,  0.008 sec
     gradient                   ...        0 min,  0.012 sec
 * total energy  :   -55.2817485 Eh     change       -0.6468904E-04 Eh
   gradient norm :     0.0019337 Eh/α   predicted    -0.2712794E-04 ( -58.06%)
   displ. norm   :     0.2269078 α      lambda       -0.3379253E-04
   maximum displ.:     0.1926099 α      in ANC's #2, #1, #3, ...

........................................................................
.............................. CYCLE   18 ..............................
........................................................................

 iter      E             dE          RMSdq      gap      omega  full diag
   1    -55.7836679 -0.557837E+02  0.587E-02    3.50       0.0  T
   2    -55.7836689 -0.100947E-05  0.344E-02    3.51       1.0  T
   3    -55.7836690 -0.496174E-07  0.435E-03    3.50       4.3  T
   4    -55.7836693 -0.313364E-06  0.183E-03    3.50      10.2  T
   5    -55.7836693 -0.805353E-08  0.801E-04    3.50      23.2  T
   6    -55.7836693 -0.522289E-08  0.221E-04    3.50      84.2  T
     SCC iter.                  ...        0 min,  0.007 sec
     gradient                   ...        0 min,  0.012 sec
 * total energy  :   -55.2817936 Eh     change       -0.4509970E-04 Eh
   gradient norm :     0.0015834 Eh/α   predicted    -0.1728438E-04 ( -61.68%)
   displ. norm   :     0.2272446 α      lambda       -0.3250383E-04
   maximum displ.:     0.1934728 α      in ANC's #2, #1, #3, ...

........................................................................
.............................. CYCLE   19 ..............................
........................................................................

 iter      E             dE          RMSdq      gap      omega  full diag
   1    -55.7840244 -0.557840E+02  0.574E-02    3.50       0.0  T
   2    -55.7840252 -0.805648E-06  0.338E-02    3.51       1.0  T
   3    -55.7840254 -0.121431E-06  0.359E-03    3.50       5.2  T
   4    -55.7840255 -0.176150E-06  0.167E-03    3.51      11.1  T
   5    -55.7840255 -0.658684E-08  0.719E-04    3.51      25.8  T
   6    -55.7840255 -0.438192E-08  0.220E-04    3.51      84.3  T
     SCC iter.                  ...        0 min,  0.035 sec
     gradient                   ...        0 min,  0.012 sec
 * total energy  :   -55.2818357 Eh     change       -0.4207961E-04 Eh
   gradient norm :     0.0014512 Eh/α   predicted    -0.1662665E-04 ( -60.49%)
   displ. norm   :     0.2791979 α      lambda       -0.3424993E-04
   maximum displ.:     0.2339552 α      in ANC's #2, #1, #3, ...

........................................................................
.............................. CYCLE   20 ..............................
........................................................................

 iter      E             dE          RMSdq      gap      omega  full diag
   1    -55.7832237 -0.557832E+02  0.766E-02    3.50       0.0  T
   2    -55.7832253 -0.161093E-05  0.449E-02    3.50       1.0  T
   3    -55.7832255 -0.162195E-06  0.492E-03    3.50       3.8  T
   4    -55.7832259 -0.379078E-06  0.235E-03    3.50       7.9  T
   5    -55.7832259 -0.255281E-07  0.106E-03    3.50      17.5  T
   6    -55.7832259 -0.886753E-08  0.296E-04    3.50      62.7  T
   7    -55.7832259 -0.400632E-09  0.147E-04    3.50     126.4  T
     SCC iter.                  ...        0 min,  0.008 sec
     gradient                   ...        0 min,  0.012 sec
 * total energy  :   -55.2818724 Eh     change       -0.3675046E-04 Eh
   gradient norm :     0.0026613 Eh/α   predicted    -0.1772118E-04 ( -51.78%)
   displ. norm   :     0.3280367 α      lambda       -0.4906830E-04
   maximum displ.:     0.2787127 α      in ANC's #2, #1, #3, ...
 * RMSD in coord.:     0.6393653 α      energy gain  -0.1083609E-01 Eh

generating ANC from exact Hessian ...
Using Lindh-Hessian (1995)
 Shifting diagonal of input Hessian by    9.3442500963509412E-003
 Lowest  eigenvalues of input Hessian
    0.000000    0.000000    0.000000    0.000000    0.000000    0.000000
    0.010000    0.010707    0.011675    0.013645    0.014947    0.015044
    0.017724    0.018801    0.019971    0.025502    0.028279    0.032506
 Highest eigenvalues
    1.804581    1.884004    2.022790    2.100592    2.212511    2.454555


........................................................................
.............................. CYCLE   21 ..............................
........................................................................

 iter      E             dE          RMSdq      gap      omega  full diag
   1    -55.7836027 -0.557836E+02  0.802E-02    3.50       0.0  T
   2    -55.7836040 -0.133230E-05  0.473E-02    3.51       1.0  T
   3    -55.7836044 -0.361983E-06  0.398E-03    3.50       4.7  T
   4    -55.7836045 -0.140093E-06  0.209E-03    3.51       8.9  T
   5    -55.7836045 -0.106356E-07  0.808E-04    3.51      23.0  T
   6    -55.7836045 -0.592257E-08  0.293E-04    3.51      63.4  T
     SCC iter.                  ...        0 min,  0.007 sec
     gradient                   ...        0 min,  0.045 sec
 * total energy  :   -55.2819045 Eh     change       -0.3208387E-04 Eh
   gradient norm :     0.0019650 Eh/α   predicted     0.0000000E+00 (-100.00%)
   displ. norm   :     0.0238881 α      lambda       -0.8675928E-05
   maximum displ.:     0.0166872 α      in ANC's #3, #9, #7, ...

........................................................................
.............................. CYCLE   22 ..............................
........................................................................

 iter      E             dE          RMSdq      gap      omega  full diag
   1    -55.7842719 -0.557843E+02  0.107E-02    3.51       0.0  T
   2    -55.7842720 -0.120255E-06  0.621E-03    3.51       3.0  T
   3    -55.7842720  0.319339E-07  0.214E-03    3.51       8.7  T
   4    -55.7842721 -0.591661E-07  0.431E-04    3.51      43.1  T
   5    -55.7842721 -0.180064E-08  0.199E-04    3.51      93.2  T
     SCC iter.                  ...        0 min,  0.005 sec
     gradient                   ...        0 min,  0.012 sec
 * total energy  :   -55.2819134 Eh     change       -0.8833118E-05 Eh
   gradient norm :     0.0005985 Eh/α   predicted    -0.4474558E-05 ( -49.34%)
   displ. norm   :     0.0420838 α      lambda       -0.6380459E-05
   maximum displ.:     0.0314297 α      in ANC's #3, #9, #7, ...

........................................................................
.............................. CYCLE   23 ..............................
........................................................................

 iter      E             dE          RMSdq      gap      omega  full diag
   1    -55.7843898 -0.557844E+02  0.160E-02    3.51       0.0  T
   2    -55.7843899 -0.109931E-06  0.933E-03    3.51       2.0  T
   3    -55.7843899  0.198887E-07  0.166E-03    3.51      11.2  T
   4    -55.7843899 -0.431737E-07  0.473E-04    3.51      39.2  T
   5    -55.7843899 -0.182924E-08  0.243E-04    3.51      76.3  T
     SCC iter.                  ...        0 min,  0.005 sec
     gradient                   ...        0 min,  0.012 sec
 * total energy  :   -55.2819207 Eh     change       -0.7344568E-05 Eh
   gradient norm :     0.0009022 Eh/α   predicted    -0.3200903E-05 ( -56.42%)
   displ. norm   :     0.0628522 α      lambda       -0.7087394E-05
   maximum displ.:     0.0437246 α      in ANC's #3, #7, #6, ...

........................................................................
.............................. CYCLE   24 ..............................
........................................................................

 iter      E             dE          RMSdq      gap      omega  full diag
   1    -55.7842351 -0.557842E+02  0.257E-02    3.51       0.0  T
   2    -55.7842352 -0.108577E-06  0.151E-02    3.51       1.2  T
   3    -55.7842353 -0.220634E-07  0.115E-03    3.51      16.2  T
   4    -55.7842353 -0.173018E-07  0.543E-04    3.51      34.2  T
   5    -55.7842353 -0.625320E-09  0.271E-04    3.51      68.4  T
     SCC iter.                  ...        0 min,  0.044 sec
     gradient                   ...        0 min,  0.012 sec
 * total energy  :   -55.2819293 Eh     change       -0.8598482E-05 Eh
   gradient norm :     0.0011962 Eh/α   predicted    -0.3551816E-05 ( -58.69%)
   displ. norm   :     0.1007957 α      lambda       -0.9380064E-05
   maximum displ.:     0.0675497 α      in ANC's #3, #7, #6, ...

........................................................................
.............................. CYCLE   25 ..............................
........................................................................

 iter      E             dE          RMSdq      gap      omega  full diag
   1    -55.7840050 -0.557840E+02  0.427E-02    3.51       0.0  T
   2    -55.7840052 -0.214125E-06  0.251E-02    3.51       1.0  T
   3    -55.7840053 -0.590653E-07  0.173E-03    3.51      10.7  T
   4    -55.7840053 -0.412791E-07  0.891E-04    3.51      20.8  T
   5    -55.7840053 -0.216101E-08  0.448E-04    3.51      41.5  T
     SCC iter.                  ...        0 min,  0.005 sec
     gradient                   ...        0 min,  0.012 sec
 * total energy  :   -55.2819398 Eh     change       -0.1053449E-04 Eh
   gradient norm :     0.0012910 Eh/α   predicted    -0.4722198E-05 ( -55.17%)
   displ. norm   :     0.1100171 α      lambda       -0.7971229E-05
   maximum displ.:     0.0725005 α      in ANC's #3, #7, #2, ...

........................................................................
.............................. CYCLE   26 ..............................
........................................................................

 iter      E             dE          RMSdq      gap      omega  full diag
   1    -55.7838270 -0.557838E+02  0.468E-02    3.51       0.0  T
   2    -55.7838272 -0.228315E-06  0.275E-02    3.51       1.0  T
   3    -55.7838273 -0.553965E-07  0.210E-03    3.51       8.8  T
   4    -55.7838273 -0.715379E-07  0.102E-03    3.51      18.2  T
   5    -55.7838273 -0.273742E-08  0.447E-04    3.51      41.6  T
   6    -55.7838273 -0.116763E-08  0.121E-04    3.51     153.6  T
     SCC iter.                  ...        0 min,  0.007 sec
     gradient                   ...        0 min,  0.012 sec
 * total energy  :   -55.2819483 Eh     change       -0.8504041E-05 Eh
   gradient norm :     0.0013332 Eh/α   predicted    -0.4082868E-05 ( -51.99%)
   displ. norm   :     0.1034602 α      lambda       -0.7574309E-05
   maximum displ.:     0.0668250 α      in ANC's #3, #2, #7, ...

........................................................................
.............................. CYCLE   27 ..............................
........................................................................

 iter      E             dE          RMSdq      gap      omega  full diag
   1    -55.7838298 -0.557838E+02  0.446E-02    3.51       0.0  T
   2    -55.7838300 -0.212541E-06  0.263E-02    3.51       1.0  T
   3    -55.7838300 -0.267276E-07  0.223E-03    3.51       8.3  T
   4    -55.7838301 -0.886093E-07  0.975E-04    3.51      19.0  T
   5    -55.7838301 -0.224033E-08  0.464E-04    3.51      40.0  T
     SCC iter.                  ...        0 min,  0.005 sec
     gradient                   ...        0 min,  0.012 sec
 * total energy  :   -55.2819563 Eh     change       -0.7945350E-05 Eh
   gradient norm :     0.0014909 Eh/α   predicted    -0.3806215E-05 ( -52.10%)
   displ. norm   :     0.0891121 α      lambda       -0.8687016E-05
   maximum displ.:     0.0529689 α      in ANC's #3, #2, #1, ...

........................................................................
.............................. CYCLE   28 ..............................
........................................................................

 iter      E             dE          RMSdq      gap      omega  full diag
   1    -55.7842263 -0.557842E+02  0.368E-02    3.51       0.0  T
   2    -55.7842265 -0.224483E-06  0.217E-02    3.51       1.0  T
   3    -55.7842266 -0.393725E-07  0.204E-03    3.51       9.1  T
   4    -55.7842266 -0.623587E-07  0.899E-04    3.51      20.6  T
   5    -55.7842266 -0.746056E-09  0.396E-04    3.51      46.9  T
     SCC iter.                  ...        0 min,  0.005 sec
     gradient                   ...        0 min,  0.012 sec
 * total energy  :   -55.2819654 Eh     change       -0.9075540E-05 Eh
   gradient norm :     0.0014098 Eh/α   predicted    -0.4359336E-05 ( -51.97%)
   displ. norm   :     0.1570153 α      lambda       -0.9386637E-05
   maximum displ.:     0.0945214 α      in ANC's #3, #2, #1, ...

........................................................................
.............................. CYCLE   29 ..............................
........................................................................

 iter      E             dE          RMSdq      gap      omega  full diag
   1    -55.7837472 -0.557837E+02  0.663E-02    3.51       0.0  T
   2    -55.7837480 -0.833327E-06  0.393E-02    3.51       1.0  T
   3    -55.7837482 -0.173254E-06  0.324E-03    3.51       5.7  T
   4    -55.7837483 -0.128394E-06  0.149E-03    3.51      12.5  T
   5    -55.7837483 -0.314388E-08  0.516E-04    3.51      36.0  T
   6    -55.7837483 -0.135778E-08  0.173E-04    3.51     107.2  T
     SCC iter.                  ...        0 min,  0.007 sec
     gradient                   ...        0 min,  0.012 sec
 * total energy  :   -55.2819718 Eh     change       -0.6449163E-05 Eh
   gradient norm :     0.0026619 Eh/α   predicted    -0.4761528E-05 ( -26.17%)
   displ. norm   :     0.0258115 α      lambda       -0.9626367E-05
   maximum displ.:     0.0120820 α      in ANC's #2, #7, #1, ...

........................................................................
.............................. CYCLE   30 ..............................
........................................................................

 iter      E             dE          RMSdq      gap      omega  full diag
   1    -55.7842563 -0.557843E+02  0.102E-02    3.51       0.0  T
   2    -55.7842564 -0.157091E-06  0.611E-03    3.51       3.0  T
   3    -55.7842564  0.298192E-07  0.221E-03    3.51       8.4  T
   4    -55.7842565 -0.675412E-07  0.487E-04    3.51      38.1  T
   5    -55.7842565 -0.127111E-08  0.267E-04    3.51      69.6  T
     SCC iter.                  ...        0 min,  0.006 sec
     gradient                   ...        0 min,  0.051 sec
 * total energy  :   -55.2819775 Eh     change       -0.5648534E-05 Eh
   gradient norm :     0.0011128 Eh/α   predicted    -0.4818390E-05 ( -14.70%)
   displ. norm   :     0.0607619 α      lambda       -0.4124346E-05
   maximum displ.:     0.0375268 α      in ANC's #2, #3, #1, ...

........................................................................
.............................. CYCLE   31 ..............................
........................................................................

 iter      E             dE          RMSdq      gap      omega  full diag
   1    -55.7843339 -0.557843E+02  0.213E-02    3.51       0.0  T
   2    -55.7843341 -0.233262E-06  0.126E-02    3.52       1.5  T
   3    -55.7843340  0.943909E-07  0.283E-03    3.52       6.6  T
   4    -55.7843342 -0.155768E-06  0.768E-04    3.52      24.2  T
   5    -55.7843342 -0.518393E-08  0.399E-04    3.52      46.6  T
     SCC iter.                  ...        0 min,  0.005 sec
     gradient                   ...        0 min,  0.012 sec
 * total energy  :   -55.2819813 Eh     change       -0.3876053E-05 Eh
   gradient norm :     0.0007351 Eh/α   predicted    -0.2068475E-05 ( -46.63%)
   displ. norm   :     0.0495350 α      lambda       -0.1957168E-05
   maximum displ.:     0.0309621 α      in ANC's #3, #2, #1, ...

   *** GEOMETRY OPTIMIZATION CONVERGED AFTER 31 ITERATIONS ***

------------------------------------------------------------------------
 total energy gain   :        -0.0109450 Eh       -6.8681 kcal/mol
 total RMSD          :         0.7287891 a0        0.3857 Å
 total power (kW/mol):        -0.9269696 (step)  -25.9580 (real)
------------------------------------------------------------------------

 ANCopt (total)                0 d,  0 h,  0 min,  1.107 sec
 optimizer setup                ...        0 min,  0.000 sec (  0.007%)
 model hessian                  ...        0 min,  0.020 sec (  1.792%)
 ANC generation                 ...        0 min,  0.002 sec (  0.136%)
 coordinate transformation      ...        0 min,  0.000 sec (  0.012%)
 single point calculation       ...        0 min,  1.079 sec ( 97.428%)
 optimization log               ...        0 min,  0.003 sec (  0.315%)
 hessian update                 ...        0 min,  0.000 sec (  0.022%)
 rational function              ...        0 min,  0.001 sec (  0.128%)

================
 final structure:
================
29
 xtb: 6.7.1 (edcfbbe)
O            3.07857510891462       -1.35102473348775       -0.42637756039395
C            2.51016568693596       -0.06343160174940       -0.29806570335674
C            1.76779730698772       -0.04403056004203        1.03758001675395
C            0.70282174504823       -1.15574010213707        1.10626273303050
C           -0.42593903367378       -0.49263626610732        1.91318676482656
C           -0.26150602303048        0.98322904643376        1.51645329233578
N           -1.05477926954250        1.29992884738542        0.35135364661263
C           -1.62394162194339        2.47618264460387        0.00733207729846
N           -2.17983219435857        2.38622283398982       -1.16881395255047
C           -1.93035818906487        1.11257293259073       -1.54804407943402
C           -2.36458629880891        0.51782204607232       -2.83834656509293
N           -2.11880184226812       -0.81348009744109       -2.89544235824488
O           -2.86985275158168        1.14182173682616       -3.74016114553651
N           -1.24522947538609        0.42915881597117       -0.64541001821657
O            1.09967490404645        1.19029077787495        1.24363185817233
O           -0.24043823372217       -0.63516165594186        3.28814633204967
O            1.15237782884702       -2.31041180147979        1.75813038064321
H            3.60382277605216       -1.38077621941465       -1.23258152252964
H            1.79871089888355        0.13715515335107       -1.11062175544681
H            3.27948085270894        0.71702819133214       -0.29974052216902
H            2.49137174150390       -0.18851047274544        1.85251037251361
H            0.33876757979714       -1.38553700073916        0.09630781803365
H           -1.41442518923936       -0.86874072318938        1.61541663713682
H           -0.56144536505402        1.65676615430507        2.32617869931741
H           -1.61099000580773        3.34428394222444        0.63252836522336
H           -2.38262664185844       -1.32438517031735       -3.72059522223559
H           -1.70828302944382       -1.28838396053485       -2.11177354089122
H            0.23672564711280       -1.46808082823724        3.42218738766615
H            1.93264308794573       -2.62223192939690        1.28346756448192

 Bond Distances (Angstroems)
 ---------------------------
O1-C2=1.4133         O1-H18=0.9627        C2-O1=1.4133         C2-C3=1.5282         C2-H19=1.0985        C2-H20=1.0959        
C3-C2=1.5282         C3-C4=1.5410         C3-O15=1.4186        C3-H21=1.0993        C4-C3=1.5410         C4-C5=1.5378         
C4-O17=1.4001        C4-H22=1.0979        C5-C4=1.5378         C5-C6=1.5371         C5-O16=1.3947        C5-H23=1.0987        
C6-C5=1.5371         C6-N7=1.4447         C6-O15=1.4036        C6-H24=1.0951        N7-C6=1.4447         N7-C8=1.3512         
N7-N14=1.3372        C8-N7=1.3512         C8-N9=1.3040         C8-H25=1.0699        N9-C8=1.3040         N9-C10=1.3521        
C10-N9=1.3521        C10-C11=1.4857       C10-N14=1.3233       C11-C10=1.4857       C11-N12=1.3550       C11-O13=1.2075       
N12-C11=1.3550       N12-H26=1.0057       N12-H27=1.0041       O13-C11=1.2075       N14-N7=1.3372        N14-C10=1.3233       
O15-C3=1.4186        O15-C6=1.4036        O16-C5=1.3947        O16-H28=0.9692       O17-C4=1.4001        O17-H29=0.9651       
H18-O1=0.9627        H19-C2=1.0985        H20-C2=1.0959        H21-C3=1.0993        H22-C4=1.0979        H23-C5=1.0987        
H24-C6=1.0951        H25-C8=1.0699        H26-N12=1.0057       H27-N12=1.0041       H28-O16=0.9692       H29-O17=0.9651       
 C  H  Rav=1.0936 sigma=0.0098  Rmin=1.0699  Rmax=1.0993     7
 C  C  Rav=1.5260 sigma=0.0206  Rmin=1.4857  Rmax=1.5410     5
 N  H  Rav=1.0049 sigma=0.0008  Rmin=1.0041  Rmax=1.0057     2
 N  C  Rav=1.3551 sigma=0.0441  Rmin=1.3040  Rmax=1.4447     6
 N  N  Rav=1.3372 sigma=0.0000  Rmin=1.3372  Rmax=1.3372     1
 O  H  Rav=0.9657 sigma=0.0027  Rmin=0.9627  Rmax=0.9692     3
 O  C  Rav=1.3730 sigma=0.0744  Rmin=1.2075  Rmax=1.4186     6

 selected bond angles (degree)
 --------------------
H18-O1-C2=108.88               C3-C2-O1=106.64                H19-C2-O1=111.08               H19-C2-C3=109.24               
H20-C2-O1=111.49               H20-C2-C3=109.47               H20-C2-H19=108.87              C4-C3-C2=111.44                
O15-C3-C2=111.52               O15-C3-C4=107.20               H21-C3-C2=109.06               H21-C3-C4=109.09               
H21-C3-O15=108.46              C5-C4-C3=102.68                O17-C4-C3=113.19               O17-C4-C5=110.30               
H22-C4-C3=109.83               H22-C4-C5=109.24               H22-C4-O17=111.23              C6-C5-C4=101.54                
O16-C5-C4=112.06               O16-C5-C6=109.78               H23-C5-C4=111.75               H23-C5-C6=110.79               
H23-C5-O16=110.60              N7-C6-C5=111.09                O15-C6-C5=107.19               O15-C6-N7=110.08               
H24-C6-C5=111.74               H24-C6-N7=108.13               H24-C6-O15=108.58              C8-N7-C6=128.86                
N14-N7-C6=122.45               N14-N7-C8=108.49               N9-C8-N7=110.43                H25-C8-N7=123.54               
H25-C8-N9=126.03               C10-N9-C8=103.85               C11-C10-N9=124.52              N14-C10-N9=113.00              
N14-C10-C11=122.48             

 selected dihedral angles (degree)
 ---------------------------------
C3-C2-O1-H18=183.67           H19-C2-O1-H18= 64.73          H20-C2-O1-H18=303.10          C4-C3-C2-O1=302.55            
C4-C3-C2-H19= 62.68           C4-C3-C2-H20=181.81           O15-C3-C2-O1=182.79           O15-C3-C2-H19=302.92          
O15-C3-C2-H20= 62.05          H21-C3-C2-O1= 63.04           H21-C3-C2-H19=183.16          H21-C3-C2-H20=302.30          
C5-C4-C3-C2=215.38            C5-C4-C3-O15=337.66           C5-C4-C3-H21= 94.92           O17-C4-C3-C2= 96.48           
O17-C4-C3-O15=218.76          O17-C4-C3-H21=336.01          H22-C4-C3-C2=331.50           H22-C4-C3-O15= 93.78          
H22-C4-C3-H21=211.03          C6-C5-C4-C3= 30.69            C6-C5-C4-O17=151.59           C6-C5-C4-H22=274.15           
O16-C5-C4-C3=273.60           O16-C5-C4-O17= 34.50          O16-C5-C4-H22=157.06          H23-C5-C4-C3=148.82           
H23-C5-C4-O17=269.73          H23-C5-C4-H22= 32.28          N7-C6-C5-C4= 90.15            N7-C6-C5-O16=208.89           
N7-C6-C5-H23=331.33           O15-C6-C5-C4=329.84           O15-C6-C5-O16= 88.58          O15-C6-C5-H23=211.02          
H24-C6-C5-C4=211.00           H24-C6-C5-O16=329.74          H24-C6-C5-H23= 92.18          C8-N7-C6-C5=150.24            
C8-N7-C6-O15=268.82           C8-N7-C6-H24= 27.28           N14-N7-C6-C5=324.54           N14-N7-C6-O15= 83.12          
N14-N7-C6-H24=201.58          N9-C8-N7-C6=175.40            N9-C8-N7-N14=  0.47           H25-C8-N7-C6=355.11           
H25-C8-N7-N14=180.18          C10-N9-C8-N7=359.70           C10-N9-C8-H25=180.00          C11-C10-N9-C8=180.19          
N14-C10-N9-C8=  0.03          
           -------------------------------------------------
          |                Final Singlepoint                |
           -------------------------------------------------

          ...................................................
          :                      SETUP                      :
          :.................................................:
          :  # basis functions                  80          :
          :  # atomic orbitals                  80          :
          :  # shells                           46          :
          :  # electrons                        94          :
          :  max. iterations                   250          :
          :  Hamiltonian                  GFN2-xTB          :
          :  restarted?                      false          :
          :  GBSA solvation                  false          :
          :  PC potential                    false          :
          :  electronic temp.          300.0000000     K    :
          :  accuracy                    1.0000000          :
          :  -> integral cutoff          0.2500000E+02      :
          :  -> integral neglect         0.1000000E-07      :
          :  -> SCF convergence          0.1000000E-05 Eh   :
          :  -> wf. convergence          0.1000000E-03 e    :
          :  Broyden damping             0.4000000          :
          :  net charge                          0          :
          :  unpaired electrons                  0          :
          ...................................................

 iter      E             dE          RMSdq      gap      omega  full diag
   1    -55.7843342 -0.557843E+02  0.124E-04    3.52       0.0  T
   2    -55.7843342 -0.464340E-10  0.774E-05    3.52     240.0  T
   3    -55.7843342  0.355271E-13  0.378E-05    3.52     491.7  T

   *** convergence criteria satisfied after 3 iterations ***

         #    Occupation            Energy/Eh            Energy/eV
      -------------------------------------------------------------
         1        2.0000           -0.7451505             -20.2766
       ...           ...                  ...                  ...
        41        2.0000           -0.4423249             -12.0363
        42        2.0000           -0.4393673             -11.9558
        43        2.0000           -0.4359356             -11.8624
        44        2.0000           -0.4300098             -11.7012
        45        2.0000           -0.4239736             -11.5369
        46        2.0000           -0.4045886             -11.0094
        47        2.0000           -0.3991773             -10.8622 (HOMO)
        48                         -0.2699773              -7.3465 (LUMO)
        49                         -0.2335544              -6.3553
        50                         -0.1457305              -3.9655
        51                         -0.0566182              -1.5407
        52                         -0.0374635              -1.0194
       ...                                ...                  ...
        80                          0.6900856              18.7782
      -------------------------------------------------------------
                  HL-Gap            0.1292000 Eh            3.5157 eV
             Fermi-level           -0.3345773 Eh           -9.1043 eV

 SCC (total)                   0 d,  0 h,  0 min,  0.020 sec
 SCC setup                      ...        0 min,  0.000 sec (  0.838%)
 Dispersion                     ...        0 min,  0.000 sec (  0.715%)
 classical contributions        ...        0 min,  0.000 sec (  0.335%)
 integral evaluation            ...        0 min,  0.004 sec ( 21.900%)
 iterations                     ...        0 min,  0.003 sec ( 16.248%)
 molecular gradient             ...        0 min,  0.012 sec ( 59.496%)
 printout                       ...        0 min,  0.000 sec (  0.439%)

         :::::::::::::::::::::::::::::::::::::::::::::::::::::
         ::                     SUMMARY                     ::
         :::::::::::::::::::::::::::::::::::::::::::::::::::::
         :: total energy             -55.281981330984 Eh    ::
         :: gradient norm              0.000731320979 Eh/a0 ::
         :: HOMO-LUMO gap              3.515710745473 eV    ::
         ::.................................................::
         :: SCC energy               -55.783926507474 Eh    ::
         :: -> isotropic ES            0.142258298117 Eh    ::
         :: -> anisotropic ES          0.001138671985 Eh    ::
         :: -> anisotropic XC          0.009371606361 Eh    ::
         :: -> dispersion             -0.027409991745 Eh    ::
         :: repulsion energy           0.501945176490 Eh    ::
         :: add. restraining           0.000000000000 Eh    ::
         :: total charge               0.000000000000 e     ::
         :::::::::::::::::::::::::::::::::::::::::::::::::::::

           -------------------------------------------------
          |                Property Printout                |
           -------------------------------------------------

    * Orbital Energies and Occupations

         #    Occupation            Energy/Eh            Energy/eV
      -------------------------------------------------------------
         1        2.0000           -0.7451505             -20.2766
       ...           ...                  ...                  ...
        35        2.0000           -0.4996196             -13.5953
        36        2.0000           -0.4921610             -13.3924
        37        2.0000           -0.4718130             -12.8387
        38        2.0000           -0.4629772             -12.5983
        39        2.0000           -0.4499330             -12.2433
        40        2.0000           -0.4498538             -12.2411
        41        2.0000           -0.4423249             -12.0363
        42        2.0000           -0.4393673             -11.9558
        43        2.0000           -0.4359356             -11.8624
        44        2.0000           -0.4300098             -11.7012
        45        2.0000           -0.4239736             -11.5369
        46        2.0000           -0.4045886             -11.0094
        47        2.0000           -0.3991773             -10.8622 (HOMO)
        48                         -0.2699773              -7.3465 (LUMO)
        49                         -0.2335544              -6.3553
        50                         -0.1457305              -3.9655
        51                         -0.0566182              -1.5407
        52                         -0.0374635              -1.0194
        53                         -0.0020432              -0.0556
        54                          0.0061335               0.1669
        55                          0.0155155               0.4222
        56                          0.0363759               0.9898
        57                          0.0508542               1.3838
        58                          0.0627703               1.7081
       ...                                ...                  ...
        80                          0.6900856              18.7782
      -------------------------------------------------------------
                  HL-Gap            0.1292000 Eh            3.5157 eV
             Fermi-level           -0.3345773 Eh           -9.1043 eV

     #   Z          covCN         q      C6AA      α(0)
     1   8 O        1.656    -0.449    21.815     6.305
     2   6 C        3.674     0.072    19.598     6.344
     3   6 C        3.780     0.096    19.013     6.212
     4   6 C        3.746     0.099    19.018     6.221
     5   6 C        3.742     0.108    18.884     6.200
     6   6 C        3.726     0.158    18.146     6.082
     7   7 N        3.037     0.046    20.435     6.714
     8   6 C        3.149     0.098    25.574     8.272
     9   7 N        1.902    -0.239    27.101     7.718
    10   6 C        3.302     0.128    23.549     7.765
    11   6 C        2.746     0.281    22.250     7.724
    12   7 N        2.645    -0.269    26.970     7.713
    13   8 O        0.859    -0.395    21.589     6.230
    14   7 N        2.016    -0.257    27.461     7.772
    15   8 O        1.702    -0.314    19.240     5.922
    16   8 O        1.656    -0.435    21.542     6.266
    17   8 O        1.656    -0.440    21.643     6.280
    18   1 H        0.805     0.303     0.712     1.325
    19   1 H        0.923     0.038     2.482     2.464
    20   1 H        0.924     0.043     2.405     2.425
    21   1 H        0.923     0.063     2.166     2.302
    22   1 H        0.924     0.042     2.429     2.437
    23   1 H        0.923     0.042     2.427     2.436
    24   1 H        0.924     0.077     2.006     2.215
    25   1 H        0.927     0.061     2.189     2.314
    26   1 H        0.860     0.199     1.109     1.650
    27   1 H        0.860     0.193     1.141     1.673
    28   1 H        0.804     0.331     0.634     1.251
    29   1 H        0.805     0.321     0.661     1.277

 Mol. C6AA /au·bohr⁶  :       8930.091250
 Mol. C8AA /au·bohr⁸  :     198451.298451
 Mol. α(0) /au        :        139.507106


Wiberg/Mayer (AO) data.
largest (>0.10) Wiberg bond orders for each atom

 ---------------------------------------------------------------------------
     #   Z sym  total        # sym  WBO       # sym  WBO       # sym  WBO
 ---------------------------------------------------------------------------
     1   8 O    1.947 --     2 C    0.997    18 H    0.894
     2   6 C    3.955 --     1 O    0.997     3 C    0.986    20 H    0.970
                            19 H    0.969
     3   6 C    3.943 --     2 C    0.986     4 C    0.964    15 O    0.963
                            21 H    0.957
     4   6 C    3.960 --    17 O    1.007     5 C    0.966     3 C    0.964
                            22 H    0.957
     5   6 C    3.968 --    16 O    1.018     4 C    0.966     6 C    0.960
                            23 H    0.956
     6   6 C    3.940 --    15 O    0.986     5 C    0.960     7 N    0.959
                            24 H    0.949
     7   7 N    3.668 --     8 C    1.277    14 N    1.190     6 C    0.959
     8   6 C    3.961 --     9 N    1.537     7 N    1.277    25 H    0.961
                            14 N    0.130
     9   7 N    3.046 --     8 C    1.537    10 C    1.304
    10   6 C    3.965 --    14 N    1.488     9 N    1.304    11 C    0.978
    11   6 C    3.958 --    13 O    1.705    12 N    1.239    10 C    0.978
    12   7 N    3.377 --    11 C    1.239    27 H    0.942    26 H    0.940
                            13 O    0.213
    13   8 O    2.038 --    11 C    1.705    12 N    0.213
    14   7 N    2.972 --    10 C    1.488     7 N    1.190     8 C    0.130
    15   8 O    2.092 --     6 C    0.986     3 C    0.963
    16   8 O    1.960 --     5 C    1.018    28 H    0.862
    17   8 O    1.971 --     4 C    1.007    29 H    0.876
    18   1 H    0.908 --     1 O    0.894
    19   1 H    0.999 --     2 C    0.969
    20   1 H    0.998 --     2 C    0.970
    21   1 H    0.996 --     3 C    0.957
    22   1 H    0.998 --     4 C    0.957
    23   1 H    0.998 --     5 C    0.956
    24   1 H    0.993 --     6 C    0.949
    25   1 H    0.996 --     8 C    0.961
    26   1 H    0.960 --    12 N    0.940
    27   1 H    0.963 --    12 N    0.942
    28   1 H    0.890 --    16 O    0.862
    29   1 H    0.897 --    17 O    0.876
 ---------------------------------------------------------------------------

Topologies differ in total number of bonds
Writing topology from bond orders to xtbtopo.mol

molecular dipole:
                 x           y           z       tot (Debye)
 q only:        1.508      -1.542       0.621
   full:        1.919      -1.657       0.594       6.619
molecular quadrupole (traceless):
                xx          xy          yy          xz          yz          zz
 q only:        2.760       5.880       5.356     -14.483      14.813      -8.117
  q+dip:        5.483       9.799       5.268     -18.942      20.956     -10.751
   full:        6.261       9.445       5.233     -20.463      20.381     -11.493

           -------------------------------------------------
          |                Geometry Summary                 |
           -------------------------------------------------

      molecular mass/u    :      244.2050136
   center of mass at/Å    :       -0.2881749       0.2053687      -0.0554119
  moments of inertia/u·Å² :        0.6932628E+03   0.1641251E+04   0.1868814E+04
rotational constants/cm⁻¹ :        0.2431637E-01   0.1027121E-01   0.9020499E-02

 * 29 selected distances

     #   Z          #   Z                                           value/Å
     1   8 O        2   6 C                                       1.4133116
     2   6 C        3   6 C                                       1.5282137
     3   6 C        4   6 C                                       1.5410350 (max)
     4   6 C        5   6 C                                       1.5378343
     5   6 C        6   6 C                                       1.5370799
     6   6 C        7   7 N                                       1.4446587
     7   7 N        8   6 C                                       1.3512476
     8   6 C        9   7 N                                       1.3040042
     9   7 N       10   6 C                                       1.3521232
    11   6 C       12   7 N                                       1.3550039
    11   6 C       13   8 O                                       1.2074517
     7   7 N       14   7 N                                       1.3371798
    10   6 C       14   7 N                                       1.3233309
     3   6 C       15   8 O                                       1.4185889
     6   6 C       15   8 O                                       1.4036096
     5   6 C       16   8 O                                       1.3947180
     4   6 C       17   8 O                                       1.4001069
     1   8 O       18   1 H                                       0.9626709 (min)
     2   6 C       19   1 H                                       1.0984765
     2   6 C       20   1 H                                       1.0958861
     3   6 C       21   1 H                                       1.0993389
     4   6 C       22   1 H                                       1.0978849
     5   6 C       23   1 H                                       1.0987387
     6   6 C       24   1 H                                       1.0951125
     8   6 C       25   1 H                                       1.0698777
    12   7 N       26   1 H                                       1.0057360
    12   7 N       27   1 H                                       1.0040898
    16   8 O       28   1 H                                       0.9692301
    17   8 O       29   1 H                                       0.9650651

 * 7 distinct bonds (by element types)

   Z      Z             #   av. dist./Å        max./Å        min./Å
   1 H    6 C           7     1.0936165     1.0993389     1.0698777
   6 C    6 C           4     1.5360407     1.5410350     1.5282137
   1 H    7 N           2     1.0049129     1.0057360     1.0040898
   6 C    7 N           6     1.3550614     1.4446587     1.3040042
   7 N    7 N           1     1.3371798     1.3371798     1.3371798
   1 H    8 O           3     0.9656553     0.9692301     0.9626709
   6 C    8 O           6     1.3729644     1.4185889     1.2074517


optimized geometry written to: xtbopt.xyz


           -------------------------------------------------
          | TOTAL ENERGY              -55.281981330984 Eh   |
          | GRADIENT NORM               0.000731320979 Eh/α |
          | HOMO-LUMO GAP               3.515710745473 eV   |
           -------------------------------------------------

------------------------------------------------------------------------
 * finished run on 2025/05/15 at 16:18:36.535     
------------------------------------------------------------------------
 total:
 * wall-time:     0 d,  0 h,  0 min,  1.198 sec
 *  cpu-time:     0 d,  0 h,  0 min,  0.805 sec
 * ratio c/w:     0.672 speedup
 SCF:
 * wall-time:     0 d,  0 h,  0 min,  0.059 sec
 *  cpu-time:     0 d,  0 h,  0 min,  0.031 sec
 * ratio c/w:     0.528 speedup
 ANC optimizer:
 * wall-time:     0 d,  0 h,  0 min,  1.129 sec
 *  cpu-time:     0 d,  0 h,  0 min,  0.765 sec
 * ratio c/w:     0.677 speedup



----- Single-point -----
      -----------------------------------------------------------      
     |                   =====================                   |     
     |                           x T B                           |     
     |                   =====================                   |     
     |                         S. Grimme                         |     
     |          Mulliken Center for Theoretical Chemistry        |     
     |                    University of Bonn                     |     
      -----------------------------------------------------------      

   * xtb version 6.7.1 (edcfbbe) compiled by 'conda@3ef47c1a292c' on 2024-11-25

   xtb is free software: you can redistribute it and/or modify it under
   the terms of the GNU Lesser General Public License as published by
   the Free Software Foundation, either version 3 of the License, or
   (at your option) any later version.
   
   xtb is distributed in the hope that it will be useful,
   but WITHOUT ANY WARRANTY; without even the implied warranty of
   MERCHANTABILITY or FITNESS FOR A PARTICULAR PURPOSE.  See the
   GNU Lesser General Public License for more details.
   
   Cite this work as:
   * C. Bannwarth, E. Caldeweyher, S. Ehlert, A. Hansen, P. Pracht,
     J. Seibert, S. Spicher, S. Grimme, WIREs Comput. Mol. Sci., 2020, 11,
     e01493. DOI: 10.1002/wcms.1493
   
   for GFN2-xTB:
   * C. Bannwarth, S. Ehlert and S. Grimme., J. Chem. Theory Comput., 2019,
     15, 1652-1671. DOI: 10.1021/acs.jctc.8b01176
   for GFN1-xTB:
   * S. Grimme, C. Bannwarth, P. Shushkov, J. Chem. Theory Comput., 2017,
     13, 1989-2009. DOI: 10.1021/acs.jctc.7b00118
   for GFN0-xTB:
   * P. Pracht, E. Caldeweyher, S. Ehlert, S. Grimme, ChemRxiv, 2019, preprint.
     DOI: 10.26434/chemrxiv.8326202.v1
   for GFN-FF:
   * S. Spicher and S. Grimme, Angew. Chem. Int. Ed., 2020, 59, 15665-15673.
     DOI: 10.1002/anie.202004239
   
   for ALPB and GBSA implicit solvation:
   * S. Ehlert, M. Stahn, S. Spicher, S. Grimme, J. Chem. Theory Comput.,
     2021, 17, 4250-4261. DOI: 10.1021/acs.jctc.1c00471
   
   for ddCOSMO and CPCM-X implicit solvation:
   * M. Stahn, S. Ehlert, S. Grimme, J. Phys. Chem. A,
     2023, XX, XXXX-XXXX. DOI: 10.1021/acs.jpca.3c04382
   
   for DFT-D4:
   * E. Caldeweyher, C. Bannwarth and S. Grimme, J. Chem. Phys., 2017,
     147, 034112. DOI: 10.1063/1.4993215
   * E. Caldeweyher, S. Ehlert, A. Hansen, H. Neugebauer, S. Spicher,
     C. Bannwarth and S. Grimme, J. Chem. Phys., 2019, 150, 154122.
     DOI: 10.1063/1.5090222
   * E. Caldeweyher, J.-M. Mewes, S. Ehlert and S. Grimme, Phys. Chem. Chem. Phys.
     2020, 22, 8499-8512. DOI: 10.1039/D0CP00502A
   
   for sTDA-xTB:
   * S. Grimme and C. Bannwarth, J. Chem. Phys., 2016, 145, 054103.
     DOI: 10.1063/1.4959605
   
   in the mass-spec context:
   * V. Asgeirsson, C. Bauer and S. Grimme, Chem. Sci., 2017, 8, 4879.
     DOI: 10.1039/c7sc00601b
   * J. Koopman and S. Grimme, ACS Omega 2019, 4, 12, 15120-15133.
     DOI: 10.1021/acsomega.9b02011
   
   for metadynamics refer to:
   * S. Grimme, J. Chem. Theory Comput., 2019, 155, 2847-2862
     DOI: 10.1021/acs.jctc.9b00143
   
   for SPH calculations refer to:
   * S. Spicher and S. Grimme, J. Chem. Theory Comput., 2021, 17, 1701-1714
     DOI: 10.1021/acs.jctc.0c01306
   
   for ONIOM refer to:
   * C. Plett, A. Katbashev, S. Ehlert, S. Grimme, M. Bursch,
     Phys. Chem. Chem. Phys., 2023, 25, 17860-17868. DOI: 10.1039/D3CP02178E
   
   for DIPRO refer to:
   * J. Kohn, N. Gildemeister, S. Grimme, D. Fazzi, A. Hansen,
     J. Chem. Phys., 2023, just accepted.
   
   for PTB refer to:
   * S. Grimme, M. Mueller, A. Hansen, J. Chem. Phys., 2023, 158, 124111.
     DOI: 10.1063/5.0137838
   
   with help from (in alphabetical order)
   P. Atkinson, C. Bannwarth, F. Bohle, G. Brandenburg, E. Caldeweyher
   M. Checinski, S. Dohm, S. Ehlert, S. Ehrlich, I. Gerasimov, C. Hölzer
   A. Katbashev, J. Kohn, J. Koopman, C. Lavigne, S. Lehtola, F. März, M. Müller,
   F. Musil, H. Neugebauer, J. Pisarek, C. Plett, P. Pracht, F. Pultar,
   J. Seibert, P. Shushkov, S. Spicher, M. Stahn, M. Steiner, T. Strunk,
   J. Stückrath, T. Rose, and J. Unsleber
   
 * started run on 2025/05/15 at 16:18:36.600     
   ID    Z sym.   atoms
    1    8 O      1, 13, 15-17
    2    6 C      2-6, 8, 10, 11
    3    7 N      7, 9, 12, 14
    4    1 H      18-29

           -------------------------------------------------
          |                Calculation Setup                |
           -------------------------------------------------

          program call               : xtb /rds/general/user/hgt20/home/callum/QDESCP/Ribavirin_rdkit_conf_11/Ribavirin_rdkit_conf_11.xyz --acc 1 --gfn 2 --chrg 0 --uhf 0 --etemp 300 --input /rds/general/user/hgt20/home/callum/QDESCP/Ribavirin_rdkit_conf_11/Ribavirin_rdkit_conf_11_xtb.inp -P 1
          hostname                   : login-c
          coordinate file            : /rds/general/user/hgt20/home/callum/QDESCP/Ribavirin_rdkit_conf_11/Ribavirin_rdkit_conf_11.xyz
          omp threads                :                     1


           -------------------------------------------------
          |                 G F N 2 - x T B                 |
           -------------------------------------------------

        Reference                      10.1021/acs.jctc.8b01176
      * Hamiltonian:
        H0-scaling (s, p, d)           1.850000    2.230000    2.230000
        zeta-weighting                 0.500000
      * Dispersion:
        s8                             2.700000
        a1                             0.520000
        a2                             5.000000
        s9                             5.000000
      * Repulsion:
        kExp                           1.500000    1.000000
        rExp                           1.000000
      * Coulomb:
        alpha                          2.000000
        third order                    shell-resolved
        anisotropic                    true
        a3                             3.000000
        a5                             4.000000
        cn-shift                       1.200000
        cn-exp                         4.000000
        max-rad                        5.000000

q/qsh data taken from xtbrestart
CAMM data taken from xtbrestart

          ...................................................
          :                      SETUP                      :
          :.................................................:
          :  # basis functions                  80          :
          :  # atomic orbitals                  80          :
          :  # shells                           46          :
          :  # electrons                        94          :
          :  max. iterations                   250          :
          :  Hamiltonian                  GFN2-xTB          :
          :  restarted?                       true          :
          :  GBSA solvation                  false          :
[...]
     |                    University of Bonn                     |     
      -----------------------------------------------------------      

   * xtb version 6.7.1 (edcfbbe) compiled by 'conda@3ef47c1a292c' on 2024-11-25

   xtb is free software: you can redistribute it and/or modify it under
   the terms of the GNU Lesser General Public License as published by
   the Free Software Foundation, either version 3 of the License, or
   (at your option) any later version.
   
   xtb is distributed in the hope that it will be useful,
   but WITHOUT ANY WARRANTY; without even the implied warranty of
   MERCHANTABILITY or FITNESS FOR A PARTICULAR PURPOSE.  See the
   GNU Lesser General Public License for more details.
   
   Cite this work as:
   * C. Bannwarth, E. Caldeweyher, S. Ehlert, A. Hansen, P. Pracht,
     J. Seibert, S. Spicher, S. Grimme, WIREs Comput. Mol. Sci., 2020, 11,
     e01493. DOI: 10.1002/wcms.1493
   
   for GFN2-xTB:
   * C. Bannwarth, S. Ehlert and S. Grimme., J. Chem. Theory Comput., 2019,
     15, 1652-1671. DOI: 10.1021/acs.jctc.8b01176
   for GFN1-xTB:
   * S. Grimme, C. Bannwarth, P. Shushkov, J. Chem. Theory Comput., 2017,
     13, 1989-2009. DOI: 10.1021/acs.jctc.7b00118
   for GFN0-xTB:
   * P. Pracht, E. Caldeweyher, S. Ehlert, S. Grimme, ChemRxiv, 2019, preprint.
     DOI: 10.26434/chemrxiv.8326202.v1
   for GFN-FF:
   * S. Spicher and S. Grimme, Angew. Chem. Int. Ed., 2020, 59, 15665-15673.
     DOI: 10.1002/anie.202004239
   
   for ALPB and GBSA implicit solvation:
   * S. Ehlert, M. Stahn, S. Spicher, S. Grimme, J. Chem. Theory Comput.,
     2021, 17, 4250-4261. DOI: 10.1021/acs.jctc.1c00471
   
   for ddCOSMO and CPCM-X implicit solvation:
   * M. Stahn, S. Ehlert, S. Grimme, J. Phys. Chem. A,
     2023, XX, XXXX-XXXX. DOI: 10.1021/acs.jpca.3c04382
   
   for DFT-D4:
   * E. Caldeweyher, C. Bannwarth and S. Grimme, J. Chem. Phys., 2017,
     147, 034112. DOI: 10.1063/1.4993215
   * E. Caldeweyher, S. Ehlert, A. Hansen, H. Neugebauer, S. Spicher,
     C. Bannwarth and S. Grimme, J. Chem. Phys., 2019, 150, 154122.
     DOI: 10.1063/1.5090222
   * E. Caldeweyher, J.-M. Mewes, S. Ehlert and S. Grimme, Phys. Chem. Chem. Phys.
     2020, 22, 8499-8512. DOI: 10.1039/D0CP00502A
   
   for sTDA-xTB:
   * S. Grimme and C. Bannwarth, J. Chem. Phys., 2016, 145, 054103.
     DOI: 10.1063/1.4959605
   
   in the mass-spec context:
   * V. Asgeirsson, C. Bauer and S. Grimme, Chem. Sci., 2017, 8, 4879.
     DOI: 10.1039/c7sc00601b
   * J. Koopman and S. Grimme, ACS Omega 2019, 4, 12, 15120-15133.
     DOI: 10.1021/acsomega.9b02011
   
   for metadynamics refer to:
   * S. Grimme, J. Chem. Theory Comput., 2019, 155, 2847-2862
     DOI: 10.1021/acs.jctc.9b00143
   
   for SPH calculations refer to:
   * S. Spicher and S. Grimme, J. Chem. Theory Comput., 2021, 17, 1701-1714
     DOI: 10.1021/acs.jctc.0c01306
   
   for ONIOM refer to:
   * C. Plett, A. Katbashev, S. Ehlert, S. Grimme, M. Bursch,
     Phys. Chem. Chem. Phys., 2023, 25, 17860-17868. DOI: 10.1039/D3CP02178E
   
   for DIPRO refer to:
   * J. Kohn, N. Gildemeister, S. Grimme, D. Fazzi, A. Hansen,
     J. Chem. Phys., 2023, just accepted.
   
   for PTB refer to:
   * S. Grimme, M. Mueller, A. Hansen, J. Chem. Phys., 2023, 158, 124111.
     DOI: 10.1063/5.0137838
   
   with help from (in alphabetical order)
   P. Atkinson, C. Bannwarth, F. Bohle, G. Brandenburg, E. Caldeweyher
   M. Checinski, S. Dohm, S. Ehlert, S. Ehrlich, I. Gerasimov, C. Hölzer
   A. Katbashev, J. Kohn, J. Koopman, C. Lavigne, S. Lehtola, F. März, M. Müller,
   F. Musil, H. Neugebauer, J. Pisarek, C. Plett, P. Pracht, F. Pultar,
   J. Seibert, P. Shushkov, S. Spicher, M. Stahn, M. Steiner, T. Strunk,
   J. Stückrath, T. Rose, and J. Unsleber
   
 * started run on 2025/05/15 at 16:18:37.941     
   ID    Z sym.   atoms
    1    8 O      1, 13, 15-17
    2    6 C      2-6, 8, 10, 11
    3    7 N      7, 9, 12, 14
    4    1 H      18-29

           -------------------------------------------------
          |                Calculation Setup                |
           -------------------------------------------------

          program call               : xtb /rds/general/user/hgt20/home/callum/QDESCP/Ribavirin_rdkit_conf_11/Ribavirin_rdkit_conf_11.xyz --acc 1 --gfn 2 --chrg 0 --uhf 2 --etemp 300 --input /rds/general/user/hgt20/home/callum/QDESCP/Ribavirin_rdkit_conf_11/Ribavirin_rdkit_conf_11_xtb.inp -P 1
          hostname                   : login-c
          coordinate file            : /rds/general/user/hgt20/home/callum/QDESCP/Ribavirin_rdkit_conf_11/Ribavirin_rdkit_conf_11.xyz
          omp threads                :                     1


           -------------------------------------------------
          |                 G F N 2 - x T B                 |
           -------------------------------------------------

        Reference                      10.1021/acs.jctc.8b01176
      * Hamiltonian:
        H0-scaling (s, p, d)           1.850000    2.230000    2.230000
        zeta-weighting                 0.500000
      * Dispersion:
        s8                             2.700000
        a1                             0.520000
        a2                             5.000000
        s9                             5.000000
      * Repulsion:
        kExp                           1.500000    1.000000
        rExp                           1.000000
      * Coulomb:
        alpha                          2.000000
        third order                    shell-resolved
        anisotropic                    true
        a3                             3.000000
        a5                             4.000000
        cn-shift                       1.200000
        cn-exp                         4.000000
        max-rad                        5.000000


          ...................................................
          :                      SETUP                      :
          :.................................................:
          :  # basis functions                  80          :
          :  # atomic orbitals                  80          :
          :  # shells                           46          :
          :  # electrons                        94          :
          :  max. iterations                   250          :
          :  Hamiltonian                  GFN2-xTB          :
          :  restarted?                      false          :
          :  GBSA solvation                  false          :
          :  PC potential                    false          :
          :  electronic temp.          300.0000000     K    :
          :  accuracy                    1.0000000          :
          :  -> integral cutoff          0.2500000E+02      :
          :  -> integral neglect         0.1000000E-07      :
          :  -> SCF convergence          0.1000000E-05 Eh   :
          :  -> wf. convergence          0.1000000E-03 e    :
          :  Broyden damping             0.4000000          :
          :  net charge                          0          :
          :  unpaired electrons                  2          :
          ...................................................

 iter      E             dE          RMSdq      gap      omega  full diag
   1    -55.3263661 -0.553264E+02  0.498E+00    1.04       0.0  T
   2    -55.4306453 -0.104279E+00  0.346E+00    1.22       1.0  T
   3    -55.3829689  0.476765E-01  0.290E+00    0.20       1.0  T
   4    -55.4814454 -0.984765E-01  0.224E+00    1.66       1.0  T
   5    -55.5952030 -0.113758E+00  0.140E+00    1.25       1.0  T
   6    -55.5964926 -0.128959E-02  0.120E+00    0.75       1.0  T
   7    -55.6368268 -0.403342E-01  0.432E-01    0.86       1.0  T
   8    -55.6399093 -0.308248E-02  0.324E-01    0.76       1.0  T
   9    -55.6389705  0.938796E-03  0.289E-01    0.74       1.0  T
  10    -55.6397374 -0.766965E-03  0.266E-01    0.73       1.0  T
  11    -55.6407548 -0.101735E-02  0.168E-01    0.72       1.0  T
  12    -55.6412531 -0.498294E-03  0.843E-02    0.70       1.0  T
  13    -55.6412565 -0.341955E-05  0.588E-02    0.69       1.0  T
  14    -55.6409756  0.280901E-03  0.984E-02    0.70       1.0  T
  15    -55.6413664 -0.390769E-03  0.206E-02    0.70       1.0  T
  16    -55.6413831 -0.166944E-04  0.737E-03    0.70       2.5  T
  17    -55.6413854 -0.233375E-05  0.659E-04    0.70      28.2  T
  18    -55.6413854  0.806835E-09  0.483E-04    0.70      38.4  T
  19    -55.6413854 -0.938387E-08  0.822E-05    0.70     226.0  T

   *** convergence criteria satisfied after 19 iterations ***

         #    Occupation            Energy/Eh            Energy/eV
      -------------------------------------------------------------
         1        2.0000           -0.7380737             -20.0840
       ...           ...                  ...                  ...
        42        2.0000           -0.4358919             -11.8612
        43        2.0000           -0.4308756             -11.7247
        44        2.0000           -0.4250217             -11.5654
        45        1.9994           -0.4213227             -11.4648
        46        1.8856           -0.4161639             -11.3244
        47        1.1150           -0.4122811             -11.2187
        48        1.0000           -0.2584866              -7.0338 (HOMO)
        49        0.0000           -0.2328806              -6.3370 (LUMO)
        50                         -0.1390321              -3.7833
        51                         -0.0503778              -1.3709
        52                         -0.0285887              -0.7779
        53                          0.0035504               0.0966
       ...                                ...                  ...
        80                          0.6900363              18.7768
      -------------------------------------------------------------
                  HL-Gap            0.0256060 Eh            0.6968 eV
             Fermi-level           -0.3299517 Eh           -8.9784 eV

 transition dipole moment (au) for excitation:          47          48
     X       Y       Z   
  -0.0352  -0.0337   0.0306  total (au/Debye):    0.058   0.146
 dE (eV)             :    4.185
 oscillator strength :  0.48057E-03

 SCC (total)                   0 d,  0 h,  0 min,  0.067 sec
 SCC setup                      ...        0 min,  0.000 sec (  0.342%)
 Dispersion                     ...        0 min,  0.000 sec (  0.350%)
 classical contributions        ...        0 min,  0.000 sec (  0.113%)
 integral evaluation            ...        0 min,  0.005 sec (  6.934%)
 iterations                     ...        0 min,  0.045 sec ( 67.615%)
 molecular gradient             ...        0 min,  0.012 sec ( 18.042%)
 printout                       ...        0 min,  0.004 sec (  6.594%)

         :::::::::::::::::::::::::::::::::::::::::::::::::::::
         ::                     SUMMARY                     ::
         :::::::::::::::::::::::::::::::::::::::::::::::::::::
         :: total energy             -55.139032530600 Eh    ::
         :: gradient norm              0.154326747523 Eh/a0 ::
         :: HOMO-LUMO gap              0.696774847200 eV    ::
         ::.................................................::
         :: SCC energy               -55.640977707091 Eh    ::
         :: -> isotropic ES            0.131191919618 Eh    ::
         :: -> anisotropic ES         -0.001245907316 Eh    ::
         :: -> anisotropic XC          0.003893744169 Eh    ::
         :: -> dispersion             -0.027436711175 Eh    ::
         :: repulsion energy           0.501945176490 Eh    ::
         :: add. restraining           0.000000000000 Eh    ::
         :: total charge              -0.000000000000 e     ::
         :::::::::::::::::::::::::::::::::::::::::::::::::::::

           -------------------------------------------------
          |                Property Printout                |
           -------------------------------------------------

    * Orbital Energies and Occupations

         #    Occupation            Energy/Eh            Energy/eV
      -------------------------------------------------------------
         1        2.0000           -0.7380737             -20.0840
       ...           ...                  ...                  ...
        36        2.0000           -0.4951064             -13.4725
        37        2.0000           -0.4675484             -12.7226
        38        2.0000           -0.4589398             -12.4884
        39        2.0000           -0.4471895             -12.1686
        40        2.0000           -0.4464081             -12.1474
        41        2.0000           -0.4368086             -11.8862
        42        2.0000           -0.4358919             -11.8612
        43        2.0000           -0.4308756             -11.7247
        44        2.0000           -0.4250217             -11.5654
        45        1.9994           -0.4213227             -11.4648
        46        1.8856           -0.4161639             -11.3244
        47        1.1150           -0.4122811             -11.2187
        48        1.0000           -0.2584866              -7.0338 (HOMO)
        49        0.0000           -0.2328806              -6.3370 (LUMO)
        50                         -0.1390321              -3.7833
        51                         -0.0503778              -1.3709
        52                         -0.0285887              -0.7779
        53                          0.0035504               0.0966
        54                          0.0107813               0.2934
        55                          0.0205005               0.5578
        56                          0.0422112               1.1486
        57                          0.0562281               1.5300
        58                          0.0686502               1.8681
        59                          0.0832936               2.2665
       ...                                ...                  ...
        80                          0.6900363              18.7768
      -------------------------------------------------------------
                  HL-Gap            0.0256060 Eh            0.6968 eV
             Fermi-level           -0.3299517 Eh           -8.9784 eV

     #   Z          covCN         q      C6AA      α(0)
     1   8 O        1.656    -0.449    21.829     6.307
     2   6 C        3.674     0.072    19.603     6.345
     3   6 C        3.780     0.097    19.004     6.210
     4   6 C        3.746     0.100    18.999     6.217
     5   6 C        3.742     0.107    18.889     6.201
     6   6 C        3.726     0.158    18.147     6.082
     7   7 N        3.037     0.021    20.881     6.787
     8   6 C        3.149     0.091    25.722     8.296
     9   7 N        1.902    -0.181    25.736     7.521
    10   6 C        3.302     0.104    24.019     7.842
    11   6 C        2.746     0.242    22.957     7.845
    12   7 N        2.645    -0.270    26.986     7.715
    13   8 O        0.859    -0.334    20.405     6.056
    14   7 N        2.016    -0.270    27.801     7.820
    15   8 O        1.702    -0.315    19.257     5.925
    16   8 O        1.656    -0.436    21.553     6.267
    17   8 O        1.656    -0.439    21.624     6.277
    18   1 H        0.805     0.302     0.714     1.327
    19   1 H        0.923     0.040     2.450     2.448
    20   1 H        0.924     0.043     2.415     2.430
    21   1 H        0.923     0.061     2.183     2.311
    22   1 H        0.924     0.042     2.428     2.437
    23   1 H        0.923     0.042     2.423     2.434
    24   1 H        0.924     0.076     2.021     2.223
    25   1 H        0.927     0.061     2.188     2.313
    26   1 H        0.860     0.195     1.134     1.668
    27   1 H        0.860     0.192     1.149     1.679
    28   1 H        0.804     0.330     0.638     1.255
    29   1 H        0.805     0.321     0.661     1.277

 Mol. C6AA /au·bohr⁶  :       8926.482927
 Mol. C8AA /au·bohr⁸  :     198452.073480
 Mol. α(0) /au        :        139.518219


Wiberg/Mayer (AO) data.
largest (>0.10) Wiberg bond orders for each atom

 ---------------------------------------------------------------------------
     #   Z sym  total        # sym  WBO       # sym  WBO       # sym  WBO
 ---------------------------------------------------------------------------
     1   8 O    1.947 --     2 C    0.996    18 H    0.895
     2   6 C    3.954 --     1 O    0.996     3 C    0.986    20 H    0.970
                            19 H    0.968
     3   6 C    3.943 --     2 C    0.986    15 O    0.965     4 C    0.963
                            21 H    0.956
     4   6 C    3.957 --    17 O    1.006     5 C    0.966     3 C    0.963
                            22 H    0.953
     5   6 C    3.967 --    16 O    1.017     4 C    0.966     6 C    0.959
                            23 H    0.956
     6   6 C    3.942 --    15 O    0.979     7 N    0.967     5 C    0.959
                            24 H    0.947
     7   7 N    3.596 --     8 C    1.257    14 N    1.103     6 C    0.967
                             9 N    0.114
     8   6 C    3.953 --     9 N    1.518     7 N    1.257    25 H    0.960
     9   7 N    3.169 --     8 C    1.518    10 C    1.263     7 N    0.114
                            13 O    0.103
    10   6 C    3.849 --     9 N    1.263    14 N    1.258    11 C    1.058
    11   6 C    3.904 --    13 O    1.503    12 N    1.165    10 C    1.058
    12   7 N    3.288 --    11 C    1.165    27 H    0.943    26 H    0.941
                            13 O    0.120
    13   8 O    1.988 --    11 C    1.503    12 N    0.120    14 N    0.110
                             9 N    0.103
    14   7 N    2.831 --    10 C    1.258     7 N    1.103    13 O    0.110
    15   8 O    2.088 --     6 C    0.979     3 C    0.965
    16   8 O    1.960 --     5 C    1.017    28 H    0.863
    17   8 O    1.970 --     4 C    1.006    29 H    0.876
    18   1 H    0.908 --     1 O    0.895
    19   1 H    0.998 --     2 C    0.968
    20   1 H    0.998 --     2 C    0.970
    21   1 H    0.995 --     3 C    0.956
    22   1 H    0.997 --     4 C    0.953
    23   1 H    0.998 --     5 C    0.956
    24   1 H    0.991 --     6 C    0.947
    25   1 H    0.996 --     8 C    0.960
    26   1 H    0.960 --    12 N    0.941
    27   1 H    0.963 --    12 N    0.943
    28   1 H    0.891 --    16 O    0.863
    29   1 H    0.897 --    17 O    0.876
 ---------------------------------------------------------------------------

Topologies differ in total number of bonds
Writing topology from bond orders to xtbtopo.mol

molecular dipole:
                 x           y           z       tot (Debye)
 q only:        1.320      -1.329       0.358
   full:        1.658      -1.365       0.223       5.487
molecular quadrupole (traceless):
                xx          xy          yy          xz          yz          zz
 q only:        2.728       4.010       4.890     -12.255      12.851      -7.618
  q+dip:        5.490       6.745       4.779     -15.568      17.757     -10.269
   full:        5.603       6.036       5.247     -16.560      17.344     -10.849


           -------------------------------------------------
          | TOTAL ENERGY              -55.139032530600 Eh   |
          | GRADIENT NORM               0.154326747523 Eh/α |
          | HOMO-LUMO GAP               0.696774847200 eV   |
           -------------------------------------------------

------------------------------------------------------------------------
 * finished run on 2025/05/15 at 16:18:38.021     
------------------------------------------------------------------------
 total:
 * wall-time:     0 d,  0 h,  0 min,  0.079 sec
 *  cpu-time:     0 d,  0 h,  0 min,  0.053 sec
 * ratio c/w:     0.664 speedup
 SCF:
 * wall-time:     0 d,  0 h,  0 min,  0.067 sec
 *  cpu-time:     0 d,  0 h,  0 min,  0.044 sec
 * ratio c/w:     0.651 speedup


