29
 energy: -55.281981330984 gnorm: 0.000731320979 xtb: 6.7.1 (edcfbbe)
O            3.07857510891462       -1.35102473348775       -0.42637756039395
C            2.51016568693596       -0.06343160174940       -0.29806570335674
C            1.76779730698772       -0.04403056004203        1.03758001675395
C            0.70282174504823       -1.15574010213707        1.10626273303050
C           -0.42593903367378       -0.49263626610732        1.91318676482656
C           -0.26150602303048        0.98322904643376        1.51645329233578
N           -1.05477926954250        1.29992884738542        0.35135364661263
C           -1.62394162194339        2.47618264460387        0.00733207729846
N           -2.17983219435857        2.38622283398982       -1.16881395255047
C           -1.93035818906487        1.11257293259073       -1.54804407943402
C           -2.36458629880891        0.51782204607232       -2.83834656509293
N           -2.11880184226812       -0.81348009744109       -2.89544235824488
O           -2.86985275158168        1.14182173682616       -3.74016114553651
N           -1.24522947538609        0.42915881597117       -0.64541001821657
O            1.09967490404645        1.19029077787495        1.24363185817233
O           -0.24043823372217       -0.63516165594186        3.28814633204967
O            1.15237782884702       -2.31041180147979        1.75813038064321
H            3.60382277605216       -1.38077621941465       -1.23258152252964
H            1.79871089888355        0.13715515335107       -1.11062175544681
H            3.27948085270894        0.71702819133214       -0.29974052216902
H            2.49137174150390       -0.18851047274544        1.85251037251361
H            0.33876757979714       -1.38553700073916        0.09630781803365
H           -1.41442518923936       -0.86874072318938        1.61541663713682
H           -0.56144536505402        1.65676615430507        2.32617869931741
H           -1.61099000580773        3.34428394222444        0.63252836522336
H           -2.38262664185844       -1.32438517031735       -3.72059522223559
H           -1.70828302944382       -1.28838396053485       -2.11177354089122
H            0.23672564711280       -1.46808082823724        3.42218738766615
H            1.93264308794573       -2.62223192939690        1.28346756448192
