98
 energy: -148.192887615170 gnorm: 0.000373869496 xtb: 6.7.1 (edcfbbe)
O           -3.85960301166870        0.77538002086302        0.46254960625825
C           -3.42145839481871        1.89259871915597        0.55898805568719
N           -2.12710471664015        2.25395886862254        0.41847332757751
C           -1.18399328154110        1.41612046668011       -0.30457054268339
C           -0.58405210790201        2.20360452413804       -1.47583937592491
C           -1.70062381177179        2.70720825289825       -2.34612489387062
C           -2.07231830733074        4.04415942697773       -2.34307195020438
C           -3.15490960561256        4.47541600834164       -3.09112000723937
C           -3.87831775122894        3.57009515208724       -3.84665065750712
C           -3.51222225585791        2.23360878829015       -3.85581903619654
C           -2.43129086415861        1.80306570600140       -3.10937052270514
C           -0.10138511576083        0.88282653633847        0.65362402637908
C           -0.69539165199914       -0.08817703509755        1.68317971960565
C           -1.28102939146383       -1.35970420275849        1.05507221743281
N           -0.30201937133642       -2.01538251948774        0.21968759214350
C           -0.29595292050108       -1.95361157368408       -1.11356600858668
C            0.89456873085426       -2.68192776152796       -1.76903731377859
N            2.15146051520077       -2.01742367779674       -1.44149881999993
C            2.78998295253136       -2.05272322836707       -0.24212847799946
N            4.03475908245235       -1.49311566362622       -0.21762560161322
C            4.64533118931117       -0.83434634216824       -1.34960749138197
C            4.66761696075205       -1.27665221835691        1.07326038961912
C            4.69619286765292        0.18253954298765        1.41402931801925
C            3.63808938622404        0.92300477914649        1.84439766059129
S            4.09014823449900        2.56646106510643        2.03892450205915
C            5.70655157835450        2.13478758897054        1.51418078993373
C            6.78968596577244        3.15447178483815        1.41299821889543
C            7.29189200474644        3.22872504934363       -0.03097335448156
C            7.93059063035794        2.78973223197685        2.36548067930520
N            5.84360495172103        0.88908587231786        1.23148294977480
O            2.30193280561666       -2.55733869341033        0.76585667347897
C            0.89647475061493       -4.18657330530424       -1.44218510902361
C            2.07877014785258       -4.87552984486477       -2.12102589277881
C           -0.42085385482782       -4.80335476139140       -1.90193130194699
O           -1.13090654090369       -1.38007513992126       -1.79154366904043
C           -1.74272010120596       -2.33752448200633        2.14557214063964
C           -2.30283753222547       -3.58596441337244        1.52525447642745
C           -1.61191010437937       -4.78757983448865        1.59143523486042
C           -2.12295368036129       -5.92768061659659        0.99542455118214
C           -3.32737234468036       -5.87493887651759        0.31639685621319
C           -4.01910543329532       -4.67739127897346        0.23815902693949
C           -3.51141522321726       -3.54089497431728        0.84025609774090
O            0.58335492106939        1.93702452186989        1.29515020849366
O           -4.17010235657357        2.97453559173912        0.89686410834569
C           -5.55684152367796        2.71247287677873        1.09958731964775
C           -6.17378143931221        3.89564041259200        1.74982373943146
C           -7.12195753483890        4.74143772711419        1.25576091938676
N           -7.49106912484311        5.74814092438531        2.07798851658738
C           -6.85113642734278        5.71043006491858        3.18672012805866
S           -5.71453349545202        4.40756394253957        3.33940031313171
H           -1.94877847602275        3.24805845959662        0.41558065498078
H           -1.74061218711033        0.56669588102605       -0.70747774457644
H            0.02384226065770        3.02637418481371       -1.09238132427072
H            0.05824518214581        1.52723219815322       -2.04136901636584
H           -1.50962384532108        4.75848441256408       -1.75620451933294
H           -3.43570498333932        5.51875699060578       -3.07861027863798
H           -4.72615145315854        3.90486404643208       -4.42644296336739
H           -4.07571073843771        1.52359622552536       -4.44304679050293
H           -2.15295399626166        0.75929044506538       -3.10327095520436
H            0.66235476927616        0.36766611201375        0.06174199863841
H           -1.48323075371389        0.42267318792574        2.24082198930782
H            0.09771835125058       -0.36771100660392        2.38224371710507
H           -2.13582394036957       -1.10405364743780        0.42318666686151
H            0.52415340095244       -2.39974631967357        0.68024516580598
H            0.76054327446089       -2.56451143199939       -2.84955416399146
H            2.63109496779976       -1.59265631900070       -2.21406866711554
H            5.62458630043699       -0.47508253930940       -1.03981637756301
H            4.06358696704713        0.02962037945221       -1.68946944286848
H            4.78340504643907       -1.53123510557233       -2.18077810087966
H            5.69273557427530       -1.65615134244453        1.04264094724478
H            4.08760521886997       -1.83657970373506        1.80884645460501
H            2.63308183442563        0.61210168924038        2.03799236990212
H            6.37452418278794        4.12547699696409        1.70138427864842
H            8.08147801405129        3.97113571425641       -0.11459648681479
H            6.48262361408810        3.50399381676772       -0.70353282657364
H            7.68260907057819        2.26101049603552       -0.33380181942411
H            7.57662602331047        2.76487278255560        3.39344224099041
H            8.32301734339206        1.80920815166276        2.10994183304035
H            8.72966290625428        3.52292682671439        2.28977910881476
H            0.99280133418385       -4.31287756916645       -0.36141978104199
H            2.03464113495224       -4.73860393073892       -3.20028923785393
H            2.05796194223032       -5.94165832568737       -1.90990865441802
H            3.02220235349773       -4.47629522984773       -1.75529233904386
H           -0.52845094472539       -4.70831194490511       -2.98060066958593
H           -1.26623407668484       -4.31089232072812       -1.42901364770615
H           -0.45294400951691       -5.85839711498366       -1.64268702227814
H           -2.50655463032449       -1.84443351834498        2.74948384341787
H           -0.89488517641242       -2.58665738602030        2.78715889793504
H           -0.66746601697350       -4.83297475102299        2.11513526809540
H           -1.57761390982194       -6.85834119946233        1.05926304024646
H           -3.72567772490993       -6.76292062547113       -0.15239385581673
H           -4.95772473209703       -4.62993470269293       -0.29436430173040
H           -4.05214770292398       -2.60784348407265        0.77714898285115
H           -0.05774672498547        2.41856780990713        1.83190012740694
H           -5.66045396750968        1.81141362939581        1.71832773176376
H           -6.03551095937054        2.52203547865529        0.13158322036688
H           -7.58497473309325        4.65801944085708        0.28954348704018
H           -6.98426378309580        6.41770815972724        3.98060962482859
