----- Optimization -----
      -----------------------------------------------------------      
     |                   =====================                   |     
     |                           x T B                           |     
     |                   =====================                   |     
     |                         S. Grimme                         |     
     |          Mulliken Center for Theoretical Chemistry        |     
     |                    University of Bonn                     |     
      -----------------------------------------------------------      

   * xtb version 6.7.1 (edcfbbe) compiled by 'conda@3ef47c1a292c' on 2024-11-25

   xtb is free software: you can redistribute it and/or modify it under
   the terms of the GNU Lesser General Public License as published by
   the Free Software Foundation, either version 3 of the License, or
   (at your option) any later version.
   
   xtb is distributed in the hope that it will be useful,
   but WITHOUT ANY WARRANTY; without even the implied warranty of
   MERCHANTABILITY or FITNESS FOR A PARTICULAR PURPOSE.  See the
   GNU Lesser General Public License for more details.
   
   Cite this work as:
   * C. Bannwarth, E. Caldeweyher, S. Ehlert, A. Hansen, P. Pracht,
     J. Seibert, S. Spicher, S. Grimme, WIREs Comput. Mol. Sci., 2020, 11,
     e01493. DOI: 10.1002/wcms.1493
   
   for GFN2-xTB:
   * C. Bannwarth, S. Ehlert and S. Grimme., J. Chem. Theory Comput., 2019,
     15, 1652-1671. DOI: 10.1021/acs.jctc.8b01176
   for GFN1-xTB:
   * S. Grimme, C. Bannwarth, P. Shushkov, J. Chem. Theory Comput., 2017,
     13, 1989-2009. DOI: 10.1021/acs.jctc.7b00118
   for GFN0-xTB:
   * P. Pracht, E. Caldeweyher, S. Ehlert, S. Grimme, ChemRxiv, 2019, preprint.
     DOI: 10.26434/chemrxiv.8326202.v1
   for GFN-FF:
   * S. Spicher and S. Grimme, Angew. Chem. Int. Ed., 2020, 59, 15665-15673.
     DOI: 10.1002/anie.202004239
   
   for ALPB and GBSA implicit solvation:
   * S. Ehlert, M. Stahn, S. Spicher, S. Grimme, J. Chem. Theory Comput.,
     2021, 17, 4250-4261. DOI: 10.1021/acs.jctc.1c00471
   
   for ddCOSMO and CPCM-X implicit solvation:
   * M. Stahn, S. Ehlert, S. Grimme, J. Phys. Chem. A,
     2023, XX, XXXX-XXXX. DOI: 10.1021/acs.jpca.3c04382
   
   for DFT-D4:
   * E. Caldeweyher, C. Bannwarth and S. Grimme, J. Chem. Phys., 2017,
     147, 034112. DOI: 10.1063/1.4993215
   * E. Caldeweyher, S. Ehlert, A. Hansen, H. Neugebauer, S. Spicher,
     C. Bannwarth and S. Grimme, J. Chem. Phys., 2019, 150, 154122.
     DOI: 10.1063/1.5090222
   * E. Caldeweyher, J.-M. Mewes, S. Ehlert and S. Grimme, Phys. Chem. Chem. Phys.
     2020, 22, 8499-8512. DOI: 10.1039/D0CP00502A
   
   for sTDA-xTB:
   * S. Grimme and C. Bannwarth, J. Chem. Phys., 2016, 145, 054103.
     DOI: 10.1063/1.4959605
   
   in the mass-spec context:
   * V. Asgeirsson, C. Bauer and S. Grimme, Chem. Sci., 2017, 8, 4879.
     DOI: 10.1039/c7sc00601b
   * J. Koopman and S. Grimme, ACS Omega 2019, 4, 12, 15120-15133.
     DOI: 10.1021/acsomega.9b02011
   
   for metadynamics refer to:
   * S. Grimme, J. Chem. Theory Comput., 2019, 155, 2847-2862
     DOI: 10.1021/acs.jctc.9b00143
   
   for SPH calculations refer to:
   * S. Spicher and S. Grimme, J. Chem. Theory Comput., 2021, 17, 1701-1714
     DOI: 10.1021/acs.jctc.0c01306
   
   for ONIOM refer to:
   * C. Plett, A. Katbashev, S. Ehlert, S. Grimme, M. Bursch,
     Phys. Chem. Chem. Phys., 2023, 25, 17860-17868. DOI: 10.1039/D3CP02178E
   
   for DIPRO refer to:
   * J. Kohn, N. Gildemeister, S. Grimme, D. Fazzi, A. Hansen,
     J. Chem. Phys., 2023, just accepted.
   
   for PTB refer to:
   * S. Grimme, M. Mueller, A. Hansen, J. Chem. Phys., 2023, 158, 124111.
     DOI: 10.1063/5.0137838
   
   with help from (in alphabetical order)
   P. Atkinson, C. Bannwarth, F. Bohle, G. Brandenburg, E. Caldeweyher
   M. Checinski, S. Dohm, S. Ehlert, S. Ehrlich, I. Gerasimov, C. Hölzer
   A. Katbashev, J. Kohn, J. Koopman, C. Lavigne, S. Lehtola, F. März, M. Müller,
   F. Musil, H. Neugebauer, J. Pisarek, C. Plett, P. Pracht, F. Pultar,
   J. Seibert, P. Shushkov, S. Spicher, M. Stahn, M. Steiner, T. Strunk,
   J. Stückrath, T. Rose, and J. Unsleber
   
 * started run on 2025/05/15 at 16:27:24.575     
   ID    Z sym.   atoms
    1    7 N      1, 3, 6, 9, 11
    2    6 C      2, 4, 7, 8, 10, 12-15, 17
    3   17 Cl     5
    4    8 O      16, 18, 19
    5    1 H      20-31

           -------------------------------------------------
          |                Calculation Setup                |
           -------------------------------------------------

          program call               : xtb /rds/general/user/hgt20/home/callum/QDESCP/Cladribine_rdkit_conf_15/Cladribine_rdkit_conf_15.xyz --opt normal --acc 1 --gfn 2 --chrg 0 --uhf 0 -P 1
          hostname                   : login-c
          coordinate file            : /rds/general/user/hgt20/home/callum/QDESCP/Cladribine_rdkit_conf_15/Cladribine_rdkit_conf_15.xyz
          omp threads                :                     1


           -------------------------------------------------
          |                 G F N 2 - x T B                 |
           -------------------------------------------------

        Reference                      10.1021/acs.jctc.8b01176
      * Hamiltonian:
        H0-scaling (s, p, d)           1.850000    2.230000    2.230000
        zeta-weighting                 0.500000
      * Dispersion:
        s8                             2.700000
        a1                             0.520000
        a2                             5.000000
        s9                             5.000000
      * Repulsion:
        kExp                           1.500000    1.000000
        rExp                           1.000000
      * Coulomb:
        alpha                          2.000000
        third order                    shell-resolved
        anisotropic                    true
        a3                             3.000000
        a5                             4.000000
        cn-shift                       1.200000
        cn-exp                         4.000000
        max-rad                        5.000000


          ...................................................
          :                      SETUP                      :
          :.................................................:
          :  # basis functions                  94          :
          :  # atomic orbitals                  93          :
          :  # shells                           51          :
          :  # electrons                       102          :
          :  max. iterations                   250          :
          :  Hamiltonian                  GFN2-xTB          :
          :  restarted?                      false          :
          :  GBSA solvation                  false          :
          :  PC potential                    false          :
          :  electronic temp.          300.0000000     K    :
          :  accuracy                    1.0000000          :
          :  -> integral cutoff          0.2500000E+02      :
          :  -> integral neglect         0.1000000E-07      :
          :  -> SCF convergence          0.1000000E-05 Eh   :
          :  -> wf. convergence          0.1000000E-03 e    :
          :  Broyden damping             0.4000000          :
          :  net charge                          0          :
          :  unpaired electrons                  0          :
          ...................................................

 iter      E             dE          RMSdq      gap      omega  full diag
   1    -59.3749975 -0.593750E+02  0.449E+00    2.96       0.0  T
   2    -59.4972712 -0.122274E+00  0.271E+00    3.28       1.0  T
   3    -59.5091820 -0.119109E-01  0.130E+00    3.14       1.0  T
   4    -59.5145322 -0.535018E-02  0.277E-01    3.05       1.0  T
   5    -59.5157919 -0.125968E-02  0.114E-01    3.04       1.0  T
   6    -59.5159197 -0.127813E-03  0.520E-02    3.03       1.0  T
   7    -59.5159458 -0.260812E-04  0.291E-02    3.03       1.0  T
   8    -59.5159500 -0.425601E-05  0.142E-02    3.04       1.3  T
   9    -59.5159517 -0.161256E-05  0.109E-02    3.04       1.7  T
  10    -59.5159527 -0.108489E-05  0.736E-03    3.04       2.4  T
  11    -59.5159534 -0.703489E-06  0.391E-03    3.04       4.6  T
  12    -59.5159536 -0.191218E-06  0.208E-03    3.04       8.6  T
  13    -59.5159537 -0.483695E-07  0.708E-04    3.04      25.4  T
  14    -59.5159537 -0.399682E-08  0.440E-04    3.04      40.9  T

   *** convergence criteria satisfied after 14 iterations ***

         #    Occupation            Energy/Eh            Energy/eV
      -------------------------------------------------------------
         1        2.0000           -1.0571545             -28.7666
       ...           ...                  ...                  ...
        45        2.0000           -0.4279880             -11.6461
        46        2.0000           -0.4272184             -11.6252
        47        2.0000           -0.4245431             -11.5524
        48        2.0000           -0.4119805             -11.2106
        49        2.0000           -0.4073696             -11.0851
        50        2.0000           -0.3995521             -10.8724
        51        2.0000           -0.3884084             -10.5691 (HOMO)
        52                         -0.2768394              -7.5332 (LUMO)
        53                         -0.2501067              -6.8058
        54                         -0.2202695              -5.9938
        55                         -0.1435606              -3.9065
        56                         -0.1243688              -3.3842
       ...                                ...                  ...
        93                          0.6189685              16.8430
      -------------------------------------------------------------
                  HL-Gap            0.1115690 Eh            3.0359 eV
             Fermi-level           -0.3326239 Eh           -9.0512 eV

 SCC (total)                   0 d,  0 h,  0 min,  0.043 sec
 SCC setup                      ...        0 min,  0.000 sec (  0.635%)
 Dispersion                     ...        0 min,  0.000 sec (  0.616%)
 classical contributions        ...        0 min,  0.000 sec (  0.210%)
 integral evaluation            ...        0 min,  0.006 sec ( 13.662%)
 iterations                     ...        0 min,  0.021 sec ( 49.293%)
 molecular gradient             ...        0 min,  0.015 sec ( 35.260%)
 printout                       ...        0 min,  0.000 sec (  0.308%)

         :::::::::::::::::::::::::::::::::::::::::::::::::::::
         ::                     SUMMARY                     ::
         :::::::::::::::::::::::::::::::::::::::::::::::::::::
         :: total energy             -58.950599693983 Eh    ::
         :: gradient norm              0.092312942623 Eh/a0 ::
         :: HOMO-LUMO gap              3.035945831770 eV    ::
         ::.................................................::
         :: SCC energy               -59.515551112553 Eh    ::
         :: -> isotropic ES            0.114537778195 Eh    ::
         :: -> anisotropic ES          0.000344714759 Eh    ::
         :: -> anisotropic XC          0.019947341576 Eh    ::
         :: -> dispersion             -0.033919831307 Eh    ::
         :: repulsion energy           0.564951418570 Eh    ::
         :: add. restraining           0.000000000000 Eh    ::
         :: total charge               0.000000000000 e     ::
         :::::::::::::::::::::::::::::::::::::::::::::::::::::

      ----------------------------------------------------------- 
     |                   =====================                   |
     |                        A N C O P T                        |
     |                   =====================                   |
     |               Approximate Normal Coordinate               |
     |                Rational Function Optimizer                |
      ----------------------------------------------------------- 
      ----------------------------------------------------------- 
     |                   =====================                   |
     |                        A N C O P T                        |
     |                   =====================                   |
     |               Approximate Normal Coordinate               |
     |                Rational Function Optimizer                |
      ----------------------------------------------------------- 

          ...................................................
          :                      SETUP                      :
          :.................................................:
          :   optimization level            normal          :
          :   max. optcycles                   200          :
          :   ANC micro-cycles                  20          :
          :   degrees of freedom                87          :
          :.................................................:
          :   RF solver                   davidson          :
          :   write xtbopt.log                true          :
          :   linear?                        false          :
          :   energy convergence         0.5000000E-05 Eh   :
          :   grad. convergence          0.1000000E-02 Eh/α :
          :   maxmium RF displ.          1.0000000          :
          :   Hlow (freq-cutoff)         0.1000000E-01      :
          :   Hmax (freq-cutoff)         5.0000000          :
          :   S6 in model hess.         20.0000000          :
          ...................................................

generating ANC from exact Hessian ...
Using Lindh-Hessian (1995)
 Shifting diagonal of input Hessian by    9.0886526135159126E-003
 Lowest  eigenvalues of input Hessian
    0.000000    0.000000    0.000000    0.000000    0.000000    0.000000
    0.010000    0.010107    0.010629    0.013136    0.014797    0.015858
    0.017951    0.018676    0.020617    0.022315    0.024737    0.029239
 Highest eigenvalues
    1.788792    1.922956    2.064455    2.093463    2.176168    2.290530


........................................................................
.............................. CYCLE    1 ..............................
........................................................................

 iter      E             dE          RMSdq      gap      omega  full diag
   1    -59.5159537 -0.595160E+02  0.295E-04    3.04       0.0  T
   2    -59.5159537 -0.385896E-09  0.246E-04    3.04      73.2  T
   3    -59.5159537 -0.231928E-09  0.185E-04    3.04      97.1  T
     SCC iter.                  ...        0 min,  0.005 sec
     gradient                   ...        0 min,  0.016 sec
 * total energy  :   -58.9505997 Eh     change       -0.2071836E-08 Eh
   gradient norm :     0.0923143 Eh/α   predicted     0.0000000E+00 (-100.00%)
   displ. norm   :     0.2499879 α      lambda       -0.1207447E-01
   maximum displ.:     0.0866229 α      in ANC's #13, #17, #11, ...

........................................................................
.............................. CYCLE    2 ..............................
........................................................................

 iter      E             dE          RMSdq      gap      omega  full diag
   1    -59.5472181 -0.595472E+02  0.230E-01    3.15       0.0  T
   2    -59.5473715 -0.153427E-03  0.138E-01    3.11       1.0  T
   3    -59.5473766 -0.507739E-05  0.747E-02    3.13       1.0  T
   4    -59.5474277 -0.511059E-04  0.182E-02    3.12       1.0  T
   5    -59.5474329 -0.513270E-05  0.103E-02    3.12       1.7  T
   6    -59.5474335 -0.604589E-06  0.770E-03    3.12       2.3  T
   7    -59.5474340 -0.521672E-06  0.558E-03    3.12       3.2  T
   8    -59.5474344 -0.449232E-06  0.274E-03    3.12       6.6  T
   9    -59.5474345 -0.876530E-07  0.139E-03    3.12      12.9  T
  10    -59.5474345 -0.292232E-07  0.469E-04    3.12      38.3  T
  11    -59.5474345 -0.222806E-08  0.212E-04    3.12      84.6  T
     SCC iter.                  ...        0 min,  0.016 sec
     gradient                   ...        0 min,  0.016 sec
 * total energy  :   -58.9588410 Eh     change       -0.8241326E-02 Eh
   gradient norm :     0.0417338 Eh/α   predicted    -0.6415973E-02 ( -22.15%)
   displ. norm   :     0.2046087 α      lambda       -0.3798413E-02
   maximum displ.:     0.0710520 α      in ANC's #17, #2, #5, ...

........................................................................
.............................. CYCLE    3 ..............................
........................................................................

 iter      E             dE          RMSdq      gap      omega  full diag
   1    -59.5633843 -0.595634E+02  0.155E-01    3.20       0.0  T
   2    -59.5635078 -0.123495E-03  0.906E-02    3.17       1.0  T
   3    -59.5635298 -0.220593E-04  0.508E-02    3.18       1.0  T
   4    -59.5635443 -0.145135E-04  0.146E-02    3.18       1.2  T
   5    -59.5635479 -0.360104E-05  0.677E-03    3.18       2.7  T
   6    -59.5635482 -0.270220E-06  0.487E-03    3.18       3.7  T
   7    -59.5635484 -0.192401E-06  0.366E-03    3.18       4.9  T
   8    -59.5635486 -0.178858E-06  0.197E-03    3.18       9.1  T
   9    -59.5635486 -0.480669E-07  0.974E-04    3.18      18.4  T
  10    -59.5635487 -0.152774E-07  0.331E-04    3.18      54.3  T
     SCC iter.                  ...        0 min,  0.014 sec
     gradient                   ...        0 min,  0.015 sec
 * total energy  :   -58.9610292 Eh     change       -0.2188208E-02 Eh
   gradient norm :     0.0123787 Eh/α   predicted    -0.1979814E-02 (  -9.52%)
   displ. norm   :     0.1540994 α      lambda       -0.6226725E-03
   maximum displ.:     0.0855426 α      in ANC's #2, #3, #5, ...

........................................................................
.............................. CYCLE    4 ..............................
........................................................................

 iter      E             dE          RMSdq      gap      omega  full diag
   1    -59.5631791 -0.595632E+02  0.631E-02    3.19       0.0  T
   2    -59.5631915 -0.124684E-04  0.356E-02    3.18       1.0  T
   3    -59.5631907  0.892233E-06  0.189E-02    3.19       1.0  T
   4    -59.5631946 -0.393153E-05  0.466E-03    3.19       3.9  T
   5    -59.5631950 -0.438744E-06  0.195E-03    3.18       9.2  T
   6    -59.5631950 -0.213160E-07  0.904E-04    3.19      19.9  T
   7    -59.5631951 -0.660598E-08  0.516E-04    3.19      34.8  T
     SCC iter.                  ...        0 min,  0.019 sec
     gradient                   ...        0 min,  0.016 sec
 * total energy  :   -58.9615185 Eh     change       -0.4893011E-03 Eh
   gradient norm :     0.0107350 Eh/α   predicted    -0.3187527E-03 ( -34.86%)
   displ. norm   :     0.2890642 α      lambda       -0.7678102E-03
   maximum displ.:     0.1708730 α      in ANC's #2, #3, #5, ...

........................................................................
.............................. CYCLE    5 ..............................
........................................................................

 iter      E             dE          RMSdq      gap      omega  full diag
   1    -59.5607216 -0.595607E+02  0.962E-02    3.20       0.0  T
   2    -59.5607422 -0.205496E-04  0.558E-02    3.19       1.0  T
   3    -59.5607362  0.597728E-05  0.268E-02    3.19       1.0  T
   4    -59.5607479 -0.116990E-04  0.667E-03    3.19       2.7  T
   5    -59.5607486 -0.747484E-06  0.330E-03    3.19       5.4  T
   6    -59.5607487 -0.557590E-07  0.174E-03    3.19      10.3  T
   7    -59.5607487 -0.228616E-07  0.120E-03    3.19      15.0  T
   8    -59.5607487 -0.117407E-07  0.791E-04    3.19      22.7  T
   9    -59.5607487 -0.658156E-08  0.440E-04    3.19      40.8  T
     SCC iter.                  ...        0 min,  0.013 sec
     gradient                   ...        0 min,  0.015 sec
 * total energy  :   -58.9620481 Eh     change       -0.5295582E-03 Eh
   gradient norm :     0.0102021 Eh/α   predicted    -0.4159923E-03 ( -21.45%)
   displ. norm   :     0.2582300 α      lambda       -0.3963645E-03
   maximum displ.:     0.1646714 α      in ANC's #2, #3, #5, ...

........................................................................
.............................. CYCLE    6 ..............................
........................................................................

 iter      E             dE          RMSdq      gap      omega  full diag
   1    -59.5603665 -0.595604E+02  0.699E-02    3.20       0.0  T
   2    -59.5603738 -0.733768E-05  0.413E-02    3.20       1.0  T
   3    -59.5603696  0.423749E-05  0.174E-02    3.20       1.0  T
   4    -59.5603761 -0.654909E-05  0.430E-03    3.20       4.2  T
   5    -59.5603764 -0.280185E-06  0.220E-03    3.20       8.2  T
   6    -59.5603764 -0.188530E-07  0.105E-03    3.20      17.1  T
   7    -59.5603765 -0.922650E-08  0.734E-04    3.20      24.5  T
   8    -59.5603765 -0.425455E-08  0.488E-04    3.20      36.8  T
     SCC iter.                  ...        0 min,  0.011 sec
     gradient                   ...        0 min,  0.016 sec
 * total energy  :   -58.9623613 Eh     change       -0.3132169E-03 Eh
   gradient norm :     0.0092137 Eh/α   predicted    -0.2114013E-03 ( -32.51%)
   displ. norm   :     0.3209394 α      lambda       -0.4272698E-03
   maximum displ.:     0.2131632 α      in ANC's #2, #3, #5, ...

........................................................................
.............................. CYCLE    7 ..............................
........................................................................

 iter      E             dE          RMSdq      gap      omega  full diag
   1    -59.5617562 -0.595618E+02  0.780E-02    3.21       0.0  T
   2    -59.5617627 -0.657805E-05  0.464E-02    3.21       1.0  T
   3    -59.5617579  0.484729E-05  0.165E-02    3.21       1.1  T
   4    -59.5617649 -0.697659E-05  0.429E-03    3.21       4.2  T
   5    -59.5617651 -0.256095E-06  0.223E-03    3.21       8.1  T
   6    -59.5617651 -0.176243E-07  0.932E-04    3.21      19.3  T
   7    -59.5617652 -0.734744E-08  0.658E-04    3.21      27.3  T
     SCC iter.                  ...        0 min,  0.010 sec
     gradient                   ...        0 min,  0.016 sec
 * total energy  :   -58.9627010 Eh     change       -0.3396604E-03 Eh
   gradient norm :     0.0064434 Eh/α   predicted    -0.2356426E-03 ( -30.62%)
   displ. norm   :     0.3716633 α      lambda       -0.3797382E-03
   maximum displ.:     0.2550189 α      in ANC's #2, #3, #11, ...

........................................................................
.............................. CYCLE    8 ..............................
........................................................................

 iter      E             dE          RMSdq      gap      omega  full diag
   1    -59.5632405 -0.595632E+02  0.858E-02    3.22       0.0  T
   2    -59.5632467 -0.624883E-05  0.509E-02    3.21       1.0  T
   3    -59.5632423  0.442807E-05  0.157E-02    3.22       1.1  T
   4    -59.5632488 -0.644107E-05  0.426E-03    3.22       4.2  T
   5    -59.5632490 -0.225108E-06  0.225E-03    3.22       8.0  T
   6    -59.5632490 -0.196206E-07  0.917E-04    3.22      19.6  T
   7    -59.5632490 -0.741789E-08  0.633E-04    3.22      28.4  T
     SCC iter.                  ...        0 min,  0.010 sec
     gradient                   ...        0 min,  0.016 sec
 * total energy  :   -58.9629928 Eh     change       -0.2918698E-03 Eh
   gradient norm :     0.0055577 Eh/α   predicted    -0.2160982E-03 ( -25.96%)
   displ. norm   :     0.3571301 α      lambda       -0.2769045E-03
   maximum displ.:     0.2510169 α      in ANC's #2, #3, #1, ...

........................................................................
.............................. CYCLE    9 ..............................
........................................................................

 iter      E             dE          RMSdq      gap      omega  full diag
   1    -59.5647980 -0.595648E+02  0.779E-02    3.22       0.0  T
   2    -59.5648014 -0.344853E-05  0.461E-02    3.22       1.0  T
   3    -59.5648002  0.127617E-05  0.961E-03    3.22       1.9  T
   4    -59.5648025 -0.234786E-05  0.330E-03    3.22       5.4  T
   5    -59.5648026 -0.878021E-07  0.183E-03    3.22       9.8  T
   6    -59.5648026 -0.220529E-07  0.832E-04    3.22      21.6  T
   7    -59.5648026 -0.512743E-08  0.620E-04    3.22      29.0  T
     SCC iter.                  ...        0 min,  0.036 sec
     gradient                   ...        0 min,  0.016 sec
 * total energy  :   -58.9632014 Eh     change       -0.2086005E-03 Eh
   gradient norm :     0.0053953 Eh/α   predicted    -0.1561117E-03 ( -25.16%)
   displ. norm   :     0.3568621 α      lambda       -0.2054262E-03
   maximum displ.:     0.2618137 α      in ANC's #2, #3, #1, ...

........................................................................
.............................. CYCLE   10 ..............................
........................................................................

 iter      E             dE          RMSdq      gap      omega  full diag
   1    -59.5641740 -0.595642E+02  0.783E-02    3.21       0.0  T
   2    -59.5641768 -0.280886E-05  0.463E-02    3.21       1.0  T
   3    -59.5641759  0.881462E-06  0.869E-03    3.22       2.1  T
   4    -59.5641778 -0.187237E-05  0.318E-03    3.21       5.7  T
   5    -59.5641779 -0.596600E-07  0.179E-03    3.21      10.0  T
   6    -59.5641779 -0.225787E-07  0.799E-04    3.21      22.5  T
   7    -59.5641779 -0.458005E-08  0.625E-04    3.21      28.7  T
     SCC iter.                  ...        0 min,  0.010 sec
     gradient                   ...        0 min,  0.016 sec
 * total energy  :   -58.9633526 Eh     change       -0.1511857E-03 Eh
   gradient norm :     0.0065165 Eh/α   predicted    -0.1158014E-03 ( -23.40%)
   displ. norm   :     0.3192129 α      lambda       -0.2254783E-03
   maximum displ.:     0.2369240 α      in ANC's #2, #3, #5, ...

........................................................................
.............................. CYCLE   11 ..............................
........................................................................

 iter      E             dE          RMSdq      gap      omega  full diag
   1    -59.5660657 -0.595661E+02  0.708E-02    3.20       0.0  T
   2    -59.5660688 -0.310137E-05  0.416E-02    3.20       1.0  T
   3    -59.5660681  0.619718E-06  0.882E-03    3.20       2.0  T
   4    -59.5660696 -0.141514E-05  0.289E-03    3.20       6.2  T
   5    -59.5660696 -0.731745E-07  0.174E-03    3.20      10.3  T
   6    -59.5660696 -0.201171E-07  0.805E-04    3.20      22.3  T
   7    -59.5660697 -0.514424E-08  0.577E-04    3.20      31.1  T
     SCC iter.                  ...        0 min,  0.010 sec
     gradient                   ...        0 min,  0.034 sec
 * total energy  :   -58.9634822 Eh     change       -0.1296010E-03 Eh
   gradient norm :     0.0080725 Eh/α   predicted    -0.1242461E-03 (  -4.13%)
   displ. norm   :     0.3103441 α      lambda       -0.1756069E-03
   maximum displ.:     0.2513347 α      in ANC's #2, #3, #5, ...

........................................................................
.............................. CYCLE   12 ..............................
........................................................................

 iter      E             dE          RMSdq      gap      omega  full diag
   1    -59.5645479 -0.595645E+02  0.703E-02    3.19       0.0  T
   2    -59.5645503 -0.231979E-05  0.415E-02    3.20       1.0  T
   3    -59.5645502  0.718198E-07  0.652E-03    3.20       2.8  T
   4    -59.5645510 -0.774139E-06  0.280E-03    3.20       6.4  T
   5    -59.5645510 -0.486992E-07  0.168E-03    3.20      10.7  T
   6    -59.5645510 -0.238963E-07  0.767E-04    3.20      23.4  T
   7    -59.5645510 -0.368920E-08  0.586E-04    3.20      30.6  T
     SCC iter.                  ...        0 min,  0.010 sec
     gradient                   ...        0 min,  0.016 sec
 * total energy  :   -58.9635893 Eh     change       -0.1070279E-03 Eh
   gradient norm :     0.0097175 Eh/α   predicted    -0.9626105E-04 ( -10.06%)
   displ. norm   :     0.1847590 α      lambda       -0.1961074E-03
   maximum displ.:     0.1592260 α      in ANC's #2, #5, #6, ...

........................................................................
.............................. CYCLE   13 ..............................
........................................................................

 iter      E             dE          RMSdq      gap      omega  full diag
   1    -59.5644227 -0.595644E+02  0.449E-02    3.19       0.0  T
   2    -59.5644239 -0.127952E-05  0.264E-02    3.19       1.0  T
   3    -59.5644232  0.709582E-06  0.627E-03    3.19       2.9  T
   4    -59.5644243 -0.102782E-05  0.197E-03    3.19       9.1  T
   5    -59.5644243 -0.543885E-07  0.969E-04    3.19      18.5  T
   6    -59.5644243 -0.373227E-08  0.384E-04    3.19      46.8  T
     SCC iter.                  ...        0 min,  0.009 sec
     gradient                   ...        0 min,  0.016 sec
 * total energy  :   -58.9637020 Eh     change       -0.1127517E-03 Eh
   gradient norm :     0.0052466 Eh/α   predicted    -0.1014179E-03 ( -10.05%)
   displ. norm   :     0.2078918 α      lambda       -0.1645611E-03
   maximum displ.:     0.1675892 α      in ANC's #2, #5, #7, ...

........................................................................
.............................. CYCLE   14 ..............................
........................................................................

 iter      E             dE          RMSdq      gap      omega  full diag
   1    -59.5661509 -0.595662E+02  0.507E-02    3.19       0.0  T
   2    -59.5661527 -0.180739E-05  0.300E-02    3.19       1.0  T
   3    -59.5661526  0.122139E-06  0.596E-03    3.19       3.0  T
   4    -59.5661531 -0.539609E-06  0.208E-03    3.19       8.7  T
   5    -59.5661531 -0.248318E-07  0.121E-03    3.19      14.8  T
   6    -59.5661532 -0.116992E-07  0.548E-04    3.19      32.8  T
   7    -59.5661532 -0.192498E-08  0.372E-04    3.19      48.3  T
     SCC iter.                  ...        0 min,  0.031 sec
     gradient                   ...        0 min,  0.016 sec
 * total energy  :   -58.9638019 Eh     change       -0.9986345E-04 Eh
   gradient norm :     0.0062680 Eh/α   predicted    -0.8584888E-04 ( -14.03%)
   displ. norm   :     0.3281795 α      lambda       -0.1450329E-03
   maximum displ.:     0.2792312 α      in ANC's #2, #5, #3, ...

........................................................................
.............................. CYCLE   15 ..............................
........................................................................

 iter      E             dE          RMSdq      gap      omega  full diag
   1    -59.5635004 -0.595635E+02  0.731E-02    3.19       0.0  T
   2    -59.5635036 -0.316182E-05  0.437E-02    3.19       1.0  T
   3    -59.5635016  0.201539E-05  0.108E-02    3.19       1.7  T
   4    -59.5635047 -0.311183E-05  0.341E-03    3.19       5.3  T
   5    -59.5635048 -0.103363E-06  0.199E-03    3.19       9.0  T
   6    -59.5635048 -0.201174E-07  0.889E-04    3.19      20.2  T
   7    -59.5635048 -0.518195E-08  0.660E-04    3.19      27.2  T
     SCC iter.                  ...        0 min,  0.010 sec
     gradient                   ...        0 min,  0.016 sec
 * total energy  :   -58.9638933 Eh     change       -0.9143060E-04 Eh
   gradient norm :     0.0054276 Eh/α   predicted    -0.8032760E-04 ( -12.14%)
   displ. norm   :     0.1385508 α      lambda       -0.8752288E-04
   maximum displ.:     0.1198680 α      in ANC's #2, #7, #4, ...

........................................................................
.............................. CYCLE   16 ..............................
........................................................................

 iter      E             dE          RMSdq      gap      omega  full diag
   1    -59.5641515 -0.595642E+02  0.327E-02    3.19       0.0  T
   2    -59.5641525 -0.974411E-06  0.194E-02    3.19       1.0  T
   3    -59.5641516  0.864221E-06  0.676E-03    3.19       2.7  T
   4    -59.5641528 -0.121064E-05  0.177E-03    3.19      10.1  T
   5    -59.5641528 -0.336208E-07  0.107E-03    3.19      16.8  T
   6    -59.5641528 -0.515679E-08  0.614E-04    3.19      29.3  T
   7    -59.5641528 -0.277679E-08  0.429E-04    3.19      41.9  T
     SCC iter.                  ...        0 min,  0.010 sec
     gradient                   ...        0 min,  0.031 sec
 * total energy  :   -58.9639647 Eh     change       -0.7141029E-04 Eh
   gradient norm :     0.0035805 Eh/α   predicted    -0.4460228E-04 ( -37.54%)
   displ. norm   :     0.2470517 α      lambda       -0.1264103E-03
   maximum displ.:     0.2151337 α      in ANC's #2, #7, #4, ...

........................................................................
.............................. CYCLE   17 ..............................
........................................................................

 iter      E             dE          RMSdq      gap      omega  full diag
   1    -59.5650970 -0.595651E+02  0.591E-02    3.20       0.0  T
   2    -59.5650993 -0.222161E-05  0.349E-02    3.20       1.0  T
   3    -59.5650979  0.132005E-05  0.900E-03    3.20       2.0  T
   4    -59.5651000 -0.210977E-05  0.287E-03    3.20       6.3  T
   5    -59.5651001 -0.598859E-07  0.170E-03    3.20      10.6  T
   6    -59.5651001 -0.167924E-07  0.946E-04    3.20      19.0  T
   7    -59.5651001 -0.623756E-08  0.662E-04    3.20      27.1  T
     SCC iter.                  ...        0 min,  0.010 sec
     gradient                   ...        0 min,  0.016 sec
 * total energy  :   -58.9640569 Eh     change       -0.9219195E-04 Eh
   gradient norm :     0.0037321 Eh/α   predicted    -0.6706351E-04 ( -27.26%)
   displ. norm   :     0.2253106 α      lambda       -0.8066450E-04
   maximum displ.:     0.2013106 α      in ANC's #2, #7, #4, ...

........................................................................
.............................. CYCLE   18 ..............................
........................................................................

 iter      E             dE          RMSdq      gap      omega  full diag
   1    -59.5647122 -0.595647E+02  0.519E-02    3.20       0.0  T
   2    -59.5647137 -0.140936E-05  0.305E-02    3.20       1.0  T
   3    -59.5647130  0.669989E-06  0.654E-03    3.20       2.7  T
   4    -59.5647142 -0.117373E-05  0.225E-03    3.20       8.0  T
   5    -59.5647142 -0.321483E-07  0.133E-03    3.20      13.5  T
   6    -59.5647142 -0.101987E-07  0.680E-04    3.20      26.4  T
   7    -59.5647142 -0.298552E-08  0.500E-04    3.20      35.9  T
     SCC iter.                  ...        0 min,  0.010 sec
     gradient                   ...        0 min,  0.016 sec
 * total energy  :   -58.9641204 Eh     change       -0.6353351E-04 Eh
   gradient norm :     0.0046902 Eh/α   predicted    -0.4238023E-04 ( -33.29%)
   displ. norm   :     0.1479203 α      lambda       -0.6484839E-04
   maximum displ.:     0.1297568 α      in ANC's #2, #4, #1, ...

........................................................................
.............................. CYCLE   19 ..............................
........................................................................

 iter      E             dE          RMSdq      gap      omega  full diag
   1    -59.5653034 -0.595653E+02  0.344E-02    3.20       0.0  T
   2    -59.5653040 -0.616146E-06  0.202E-02    3.20       1.0  T
   3    -59.5653039  0.102850E-06  0.404E-03    3.20       4.4  T
   4    -59.5653042 -0.305269E-06  0.145E-03    3.20      12.4  T
   5    -59.5653042 -0.100635E-07  0.851E-04    3.20      21.1  T
   6    -59.5653042 -0.433590E-08  0.401E-04    3.20      44.8  T
     SCC iter.                  ...        0 min,  0.009 sec
     gradient                   ...        0 min,  0.029 sec
 * total energy  :   -58.9641742 Eh     change       -0.5381145E-04 Eh
   gradient norm :     0.0035676 Eh/α   predicted    -0.3313431E-04 ( -38.43%)
   displ. norm   :     0.1905109 α      lambda       -0.7510382E-04
   maximum displ.:     0.1674182 α      in ANC's #2, #4, #1, ...

........................................................................
.............................. CYCLE   20 ..............................
........................................................................

 iter      E             dE          RMSdq      gap      omega  full diag
   1    -59.5651913 -0.595652E+02  0.441E-02    3.20       0.0  T
   2    -59.5651923 -0.102213E-05  0.257E-02    3.20       1.0  T
   3    -59.5651921  0.231080E-06  0.512E-03    3.20       3.5  T
   4    -59.5651927 -0.562498E-06  0.180E-03    3.20      10.0  T
   5    -59.5651927 -0.180871E-07  0.103E-03    3.20      17.5  T
   6    -59.5651927 -0.535907E-08  0.511E-04    3.20      35.1  T
   7    -59.5651927 -0.138269E-08  0.363E-04    3.20      49.5  T
     SCC iter.                  ...        0 min,  0.010 sec
     gradient                   ...        0 min,  0.018 sec
 * total energy  :   -58.9642324 Eh     change       -0.5817401E-04 Eh
   gradient norm :     0.0027809 Eh/α   predicted    -0.3891794E-04 ( -33.10%)
   displ. norm   :     0.1759633 α      lambda       -0.5203231E-04
   maximum displ.:     0.1562911 α      in ANC's #2, #1, #4, ...
 * RMSD in coord.:     0.7532090 α      energy gain  -0.1363272E-01 Eh

generating ANC from exact Hessian ...
Using Lindh-Hessian (1995)
 Shifting diagonal of input Hessian by    9.3591784672786300E-003
 Lowest  eigenvalues of input Hessian
    0.000000    0.000000    0.000000    0.000000    0.000000    0.000000
    0.010000    0.010195    0.010741    0.013375    0.014442    0.016004
    0.018056    0.019745    0.022307    0.024836    0.026092    0.030043
 Highest eigenvalues
    1.939798    2.007417    2.147632    2.196812    2.320793    2.341072


........................................................................
.............................. CYCLE   21 ..............................
........................................................................

 iter      E             dE          RMSdq      gap      omega  full diag
   1    -59.5652202 -0.595652E+02  0.405E-02    3.20       0.0  T
   2    -59.5652209 -0.724622E-06  0.236E-02    3.20       1.0  T
   3    -59.5652209  0.399629E-07  0.387E-03    3.20       4.6  T
   4    -59.5652212 -0.299177E-06  0.157E-03    3.20      11.5  T
   5    -59.5652212 -0.118759E-07  0.815E-04    3.20      22.0  T
   6    -59.5652212 -0.390587E-08  0.371E-04    3.20      48.4  T
     SCC iter.                  ...        0 min,  0.009 sec
     gradient                   ...        0 min,  0.037 sec
 * total energy  :   -58.9642728 Eh     change       -0.4035355E-04 Eh
   gradient norm :     0.0027313 Eh/α   predicted     0.0000000E+00 (-100.00%)
   displ. norm   :     0.0268983 α      lambda       -0.2060437E-04
   maximum displ.:     0.0169852 α      in ANC's #2, #1, #3, ...

........................................................................
.............................. CYCLE   22 ..............................
........................................................................

 iter      E             dE          RMSdq      gap      omega  full diag
   1    -59.5655494 -0.595655E+02  0.987E-03    3.21       0.0  T
   2    -59.5655495 -0.143392E-06  0.593E-03    3.21       3.0  T
   3    -59.5655494  0.841059E-07  0.264E-03    3.21       6.8  T
   4    -59.5655496 -0.133678E-06  0.706E-04    3.21      25.5  T
   5    -59.5655496 -0.561487E-08  0.472E-04    3.21      38.1  T
     SCC iter.                  ...        0 min,  0.007 sec
     gradient                   ...        0 min,  0.016 sec
 * total energy  :   -58.9642909 Eh     change       -0.1815231E-04 Eh
   gradient norm :     0.0014166 Eh/α   predicted    -0.1095907E-04 ( -39.63%)
   displ. norm   :     0.1111551 α      lambda       -0.3569391E-04
   maximum displ.:     0.0742708 α      in ANC's #2, #1, #3, ...

........................................................................
.............................. CYCLE   23 ..............................
........................................................................

 iter      E             dE          RMSdq      gap      omega  full diag
   1    -59.5659102 -0.595659E+02  0.356E-02    3.21       0.0  T
   2    -59.5659115 -0.137264E-05  0.214E-02    3.21       1.0  T
   3    -59.5659104  0.117077E-05  0.871E-03    3.21       2.1  T
   4    -59.5659121 -0.171784E-05  0.230E-03    3.21       7.8  T
   5    -59.5659121 -0.506960E-07  0.153E-03    3.21      11.8  T
   6    -59.5659121 -0.147289E-07  0.947E-04    3.21      19.0  T
   7    -59.5659121 -0.797702E-08  0.712E-04    3.21      25.2  T
     SCC iter.                  ...        0 min,  0.010 sec
     gradient                   ...        0 min,  0.016 sec
 * total energy  :   -58.9643184 Eh     change       -0.2750899E-04 Eh
   gradient norm :     0.0024662 Eh/α   predicted    -0.1896946E-04 ( -31.04%)
   displ. norm   :     0.0261301 α      lambda       -0.9884159E-05
   maximum displ.:     0.0213149 α      in ANC's #2, #1, #3, ...

........................................................................
.............................. CYCLE   24 ..............................
........................................................................

 iter      E             dE          RMSdq      gap      omega  full diag
   1    -59.5657898 -0.595658E+02  0.729E-03    3.21       0.0  T
   2    -59.5657899 -0.302251E-07  0.432E-03    3.21       4.2  T
   3    -59.5657899 -0.145368E-08  0.688E-04    3.21      26.1  T
   4    -59.5657899 -0.633767E-08  0.306E-04    3.21      58.6  T
     SCC iter.                  ...        0 min,  0.006 sec
     gradient                   ...        0 min,  0.016 sec
 * total energy  :   -58.9643274 Eh     change       -0.8993606E-05 Eh
   gradient norm :     0.0018169 Eh/α   predicted    -0.4945861E-05 ( -45.01%)
   displ. norm   :     0.1041558 α      lambda       -0.2381890E-04
   maximum displ.:     0.0835226 α      in ANC's #2, #3, #1, ...

........................................................................
.............................. CYCLE   25 ..............................
........................................................................

 iter      E             dE          RMSdq      gap      omega  full diag
   1    -59.5653280 -0.595653E+02  0.292E-02    3.21       0.0  T
   2    -59.5653286 -0.536975E-06  0.173E-02    3.21       1.0  T
   3    -59.5653286 -0.320613E-07  0.295E-03    3.21       6.1  T
   4    -59.5653287 -0.106939E-06  0.141E-03    3.21      12.7  T
   5    -59.5653287 -0.126354E-07  0.924E-04    3.21      19.4  T
   6    -59.5653287 -0.607666E-08  0.483E-04    3.21      37.2  T
     SCC iter.                  ...        0 min,  0.009 sec
     gradient                   ...        0 min,  0.016 sec
 * total energy  :   -58.9643484 Eh     change       -0.2094365E-04 Eh
   gradient norm :     0.0012558 Eh/α   predicted    -0.1196881E-04 ( -42.85%)
   displ. norm   :     0.0538608 α      lambda       -0.5886146E-05
   maximum displ.:     0.0459193 α      in ANC's #2, #4, #3, ...

........................................................................
.............................. CYCLE   26 ..............................
........................................................................

 iter      E             dE          RMSdq      gap      omega  full diag
   1    -59.5654138 -0.595654E+02  0.142E-02    3.21       0.0  T
   2    -59.5654139 -0.100807E-06  0.841E-03    3.21       2.1  T
   3    -59.5654138  0.418421E-07  0.178E-03    3.21      10.1  T
   4    -59.5654139 -0.837357E-07  0.712E-04    3.21      25.2  T
   5    -59.5654139 -0.285485E-08  0.435E-04    3.21      41.3  T
     SCC iter.                  ...        0 min,  0.007 sec
     gradient                   ...        0 min,  0.019 sec
 * total energy  :   -58.9643561 Eh     change       -0.7767847E-05 Eh
   gradient norm :     0.0010669 Eh/α   predicted    -0.2947941E-05 ( -62.05%)
   displ. norm   :     0.0502761 α      lambda       -0.7001801E-05
   maximum displ.:     0.0439148 α      in ANC's #2, #4, #5, ...

........................................................................
.............................. CYCLE   27 ..............................
........................................................................

 iter      E             dE          RMSdq      gap      omega  full diag
   1    -59.5657378 -0.595657E+02  0.128E-02    3.21       0.0  T
   2    -59.5657380 -0.126849E-06  0.759E-03    3.21       2.4  T
   3    -59.5657379  0.845839E-07  0.224E-03    3.21       8.0  T
   4    -59.5657380 -0.129484E-06  0.684E-04    3.21      26.2  T
   5    -59.5657380 -0.396808E-08  0.430E-04    3.21      41.8  T
     SCC iter.                  ...        0 min,  0.007 sec
     gradient                   ...        0 min,  0.016 sec
 * total energy  :   -58.9643651 Eh     change       -0.8997945E-05 Eh
   gradient norm :     0.0005462 Eh/α   predicted    -0.3505185E-05 ( -61.04%)
   displ. norm   :     0.0654094 α      lambda       -0.7404101E-05
   maximum displ.:     0.0560604 α      in ANC's #2, #4, #5, ...

........................................................................
.............................. CYCLE   28 ..............................
........................................................................

 iter      E             dE          RMSdq      gap      omega  full diag
   1    -59.5658249 -0.595658E+02  0.160E-02    3.21       0.0  T
   2    -59.5658250 -0.143040E-06  0.947E-03    3.21       1.9  T
   3    -59.5658250  0.968683E-07  0.234E-03    3.22       7.7  T
   4    -59.5658251 -0.155905E-06  0.783E-04    3.21      22.9  T
   5    -59.5658251 -0.363390E-08  0.472E-04    3.21      38.0  T
     SCC iter.                  ...        0 min,  0.007 sec
     gradient                   ...        0 min,  0.016 sec
 * total energy  :   -58.9643750 Eh     change       -0.9817465E-05 Eh
   gradient norm :     0.0007339 Eh/α   predicted    -0.3709550E-05 ( -62.21%)
   displ. norm   :     0.0731778 α      lambda       -0.7335871E-05
   maximum displ.:     0.0614570 α      in ANC's #2, #4, #5, ...

........................................................................
.............................. CYCLE   29 ..............................
........................................................................

 iter      E             dE          RMSdq      gap      omega  full diag
   1    -59.5658028 -0.595658E+02  0.175E-02    3.22       0.0  T
   2    -59.5658029 -0.142749E-06  0.104E-02    3.21       1.7  T
   3    -59.5658028  0.792664E-07  0.225E-03    3.22       8.0  T
   4    -59.5658030 -0.143049E-06  0.839E-04    3.22      21.4  T
   5    -59.5658030 -0.330369E-08  0.491E-04    3.22      36.6  T
     SCC iter.                  ...        0 min,  0.007 sec
     gradient                   ...        0 min,  0.016 sec
 * total energy  :   -58.9643849 Eh     change       -0.9942192E-05 Eh
   gradient norm :     0.0008067 Eh/α   predicted    -0.3678405E-05 ( -63.00%)
   displ. norm   :     0.0747191 α      lambda       -0.6865291E-05
   maximum displ.:     0.0621735 α      in ANC's #2, #4, #5, ...

........................................................................
.............................. CYCLE   30 ..............................
........................................................................

 iter      E             dE          RMSdq      gap      omega  full diag
   1    -59.5657397 -0.595657E+02  0.176E-02    3.22       0.0  T
   2    -59.5657399 -0.126861E-06  0.105E-02    3.21       1.7  T
   3    -59.5657398  0.288902E-07  0.180E-03    3.22      10.0  T
   4    -59.5657399 -0.810730E-07  0.770E-04    3.22      23.3  T
   5    -59.5657399 -0.303672E-08  0.408E-04    3.22      44.1  T
     SCC iter.                  ...        0 min,  0.007 sec
     gradient                   ...        0 min,  0.016 sec
 * total energy  :   -58.9643940 Eh     change       -0.9151023E-05 Eh
   gradient norm :     0.0006016 Eh/α   predicted    -0.3442012E-05 ( -62.39%)
   displ. norm   :     0.0658319 α      lambda       -0.5383602E-05
   maximum displ.:     0.0554060 α      in ANC's #2, #4, #5, ...

........................................................................
.............................. CYCLE   31 ..............................
........................................................................

 iter      E             dE          RMSdq      gap      omega  full diag
   1    -59.5656373 -0.595656E+02  0.152E-02    3.22       0.0  T
   2    -59.5656374 -0.964557E-07  0.903E-03    3.21       2.0  T
   3    -59.5656374  0.235547E-07  0.160E-03    3.22      11.2  T
   4    -59.5656374 -0.628639E-07  0.678E-04    3.22      26.5  T
   5    -59.5656374 -0.243834E-08  0.376E-04    3.22      47.7  T
     SCC iter.                  ...        0 min,  0.007 sec
     gradient                   ...        0 min,  0.016 sec
 * total energy  :   -58.9644013 Eh     change       -0.7220317E-05 Eh
   gradient norm :     0.0003666 Eh/α   predicted    -0.2700626E-05 ( -62.60%)
   displ. norm   :     0.0510147 α      lambda       -0.3924737E-05
   maximum displ.:     0.0440950 α      in ANC's #2, #5, #4, ...

........................................................................
.............................. CYCLE   32 ..............................
........................................................................

 iter      E             dE          RMSdq      gap      omega  full diag
   1    -59.5656352 -0.595656E+02  0.117E-02    3.22       0.0  T
   2    -59.5656353 -0.504276E-07  0.688E-03    3.22       2.6  T
   3    -59.5656353  0.297053E-08  0.100E-03    3.22      17.9  T
   4    -59.5656353 -0.218402E-07  0.466E-04    3.22      38.5  T
   5    -59.5656353 -0.137271E-08  0.255E-04    3.22      70.6  T
     SCC iter.                  ...        0 min,  0.007 sec
     gradient                   ...        0 min,  0.016 sec
 * total energy  :   -58.9644068 Eh     change       -0.5497500E-05 Eh
   gradient norm :     0.0003334 Eh/α   predicted    -0.1965087E-05 ( -64.25%)
   displ. norm   :     0.0407448 α      lambda       -0.3348789E-05
   maximum displ.:     0.0362514 α      in ANC's #2, #6, #5, ...

........................................................................
.............................. CYCLE   33 ..............................
........................................................................

 iter      E             dE          RMSdq      gap      omega  full diag
   1    -59.5656241 -0.595656E+02  0.918E-03    3.22       0.0  T
   2    -59.5656241 -0.315963E-07  0.539E-03    3.22       3.3  T
   3    -59.5656241  0.132776E-08  0.779E-04    3.22      23.0  T
   4    -59.5656241 -0.133040E-07  0.361E-04    3.22      49.8  T
     SCC iter.                  ...        0 min,  0.009 sec
     gradient                   ...        0 min,  0.016 sec
 * total energy  :   -58.9644116 Eh     change       -0.4815039E-05 Eh
   gradient norm :     0.0003778 Eh/α   predicted    -0.1680242E-05 ( -65.10%)
   displ. norm   :     0.0398307 α      lambda       -0.3583348E-05
   maximum displ.:     0.0359255 α      in ANC's #2, #6, #1, ...

   *** GEOMETRY OPTIMIZATION CONVERGED AFTER 33 ITERATIONS ***

------------------------------------------------------------------------
 total energy gain   :        -0.0138119 Eh       -8.6671 kcal/mol
 total RMSD          :         0.8565008 a0        0.4532 Å
 total power (kW/mol):        -1.0988819 (step)  -28.4974 (real)
------------------------------------------------------------------------

 ANCopt (total)                0 d,  0 h,  0 min,  1.273 sec
 optimizer setup                ...        0 min,  0.000 sec (  0.005%)
 model hessian                  ...        0 min,  0.026 sec (  2.025%)
 ANC generation                 ...        0 min,  0.002 sec (  0.132%)
 coordinate transformation      ...        0 min,  0.000 sec (  0.013%)
 single point calculation       ...        0 min,  1.235 sec ( 97.076%)
 optimization log               ...        0 min,  0.005 sec (  0.373%)
 hessian update                 ...        0 min,  0.000 sec (  0.023%)
 rational function              ...        0 min,  0.004 sec (  0.276%)

================
 final structure:
================
31
 xtb: 6.7.1 (edcfbbe)
N            4.64341005753273       -0.14007956903389        1.48051858096534
C            3.30931006260709       -0.20627704329379        1.40066681691272
N            2.59895325123739       -0.19596060013706        2.53255407850095
C            1.28527352963917       -0.27214594373814        2.46226870901263
Cl           0.47013524094810       -0.25842224906382        3.95971330846340
N            0.51323783733620       -0.36304718765615        1.39914428539230
C            1.21058402926350       -0.36255153332462        0.25862062177107
C            2.61172654435887       -0.29197033095024        0.18154554953971
N            3.00189830700010       -0.32631854662833       -1.13284492137214
C            1.89824680322831       -0.40936215067157       -1.80431560301635
N            0.76644291616430       -0.45078225348126       -1.02980607827583
C           -0.59357765943184       -0.44408018636091       -1.51966283960361
C           -1.53586059197435       -1.30239199159140       -0.66617200968343
C           -2.82697456053365       -0.47557450397316       -0.62547858567007
C           -2.30580984440473        0.95813221253385       -0.77199498337860
O           -1.09762924360206        0.86747639402986       -1.52457732767720
C           -2.02843793391817        1.64650965678869        0.57176659647049
O           -1.50067478097854        2.93124042770994        0.36885571366327
O           -3.68818278578407       -0.74177040354194       -1.70507511890579
H            5.07644690554003       -0.07107032007703        2.38389219563276
H            5.18669517319453       -0.13544743786794        0.63644828456695
H            1.84768639174262       -0.45134532606981       -2.87448686171465
H           -0.54446643519620       -0.79479981911921       -2.56222603565427
H           -1.68833261646456       -2.28783991399900       -1.10207030069129
H           -1.12900539253491       -1.39937071483289        0.33909247418430
H           -3.35508503350405       -0.60431881201050        0.32794917296868
H           -2.99960944003792        1.56234257847935       -1.36541567858454
H           -1.33407346430543        1.02886921576549        1.15947997077473
H           -2.95827806850279        1.77515963895526        1.12891762927137
H           -0.79407720059928        2.85026112253981       -0.28439224676951
H           -4.03987199802325       -1.63526440937738       -1.62271539709340

 Bond Distances (Angstroems)
 ---------------------------
N1-C2=1.3381         N1-H20=1.0042        N1-H21=1.0038        C2-N1=1.3381         C2-N3=1.3364         C2-C8=1.4072         
N3-C2=1.3364         N3-C4=1.3178         C4-N3=1.3178         C4-Cl5=1.7050        C4-N6=1.3170         Cl5-C4=1.7050        
N6-C4=1.3170         N6-C7=1.3368         C7-N6=1.3368         C7-C8=1.4050         C7-N11=1.3657        C8-C2=1.4072         
C8-C7=1.4050         C8-N9=1.3715         N9-C8=1.3715         N9-C10=1.2945        C10-N9=1.2945        C10-N11=1.3721       
C10-H22=1.0722       N11-C7=1.3657        N11-C10=1.3721       N11-C12=1.4456       C12-N11=1.4456       C12-C13=1.5340       
C12-O16=1.4051       C12-H23=1.1011       C13-C12=1.5340       C13-C14=1.5337       C13-H24=1.0883       C13-H25=1.0888       
C14-C13=1.5337       C14-C15=1.5325       C14-O19=1.4064       C14-H26=1.0975       C15-C14=1.5325       C15-O16=1.4263       
C15-C17=1.5351       C15-H27=1.0948       O16-C12=1.4051       O16-C15=1.4263       C17-C15=1.5351       C17-O18=1.4037       
C17-H28=1.0996       C17-H29=1.0916       O18-C17=1.4037       O18-H30=0.9657       O19-C14=1.4064       O19-H31=0.9637       
H20-N1=1.0042        H21-N1=1.0038        H22-C10=1.0722       H23-C12=1.1011       H24-C13=1.0883       H25-C13=1.0888       
H26-C14=1.0975       H27-C15=1.0948       H28-C17=1.0996       H29-C17=1.0916       H30-O18=0.9657       H31-O19=0.9637       
 C  H  Rav=1.0917 sigma=0.0086  Rmin=1.0722  Rmax=1.1011     8
 C  C  Rav=1.4913 sigma=0.0602  Rmin=1.4050  Rmax=1.5351     6
 N  H  Rav=1.0040 sigma=0.0002  Rmin=1.0038  Rmax=1.0042     2
 N  C  Rav=1.3495 sigma=0.0400  Rmin=1.2945  Rmax=1.4456    10
 O  H  Rav=0.9647 sigma=0.0010  Rmin=0.9637  Rmax=0.9657     2
 O  C  Rav=1.4104 sigma=0.0092  Rmin=1.4037  Rmax=1.4263     4
 Cl C  Rav=1.7050 sigma=0.0000  Rmin=1.7050  Rmax=1.7050     1

 selected bond angles (degree)
 --------------------
H20-N1-C2=119.15               H21-N1-C2=119.32               H21-N1-H20=121.52              N3-C2-N1=118.62                
C8-C2-N1=123.29                C8-C2-N3=118.08                C4-N3-C2=118.97                Cl5-C4-N3=115.42               
N6-C4-N3=129.16                N6-C4-Cl5=115.42               C7-N6-C4=112.51                C8-C7-N6=124.54                
N11-C7-N6=129.44               N11-C7-C8=106.01               C7-C8-C2=116.74                N9-C8-C2=133.69                
N9-C8-C7=109.57                C10-N9-C8=104.84               N11-C10-N9=114.36              H22-C10-N9=124.09              
H22-C10-N11=121.56             

 selected dihedral angles (degree)
 ---------------------------------
N3-C2-N1-H20=359.12           N3-C2-N1-H21=180.76           C8-C2-N1-H20=179.38           C8-C2-N1-H21=  1.03           
C4-N3-C2-N1=180.56            C4-N3-C2-C8=  0.31            Cl5-C4-N3-C2=179.75           N6-C4-N3-C2=  0.06            
C7-N6-C4-N3=359.39            C7-N6-C4-Cl5=179.71           C8-C7-N6-C4=  0.81            N11-C7-N6-C4=179.48           
C7-C8-C2-N1=179.63            C7-C8-C2-N3=359.89            N9-C8-C2-N1=359.75            N9-C8-C2-N3=180.01            
C2-C8-C7-N6=359.50            C2-C8-C7-N11=180.57           N9-C8-C7-N6=179.41            N9-C8-C7-N11=  0.48           
C10-N9-C8-C2=180.03           C10-N9-C8-C7=  0.14           N11-C10-N9-C8=359.25          H22-C10-N9-C8=179.71          
           -------------------------------------------------
          |                Final Singlepoint                |
           -------------------------------------------------

          ...................................................
          :                      SETUP                      :
          :.................................................:
          :  # basis functions                  94          :
          :  # atomic orbitals                  93          :
          :  # shells                           51          :
          :  # electrons                       102          :
          :  max. iterations                   250          :
          :  Hamiltonian                  GFN2-xTB          :
          :  restarted?                      false          :
          :  GBSA solvation                  false          :
          :  PC potential                    false          :
          :  electronic temp.          300.0000000     K    :
          :  accuracy                    1.0000000          :
          :  -> integral cutoff          0.2500000E+02      :
          :  -> integral neglect         0.1000000E-07      :
          :  -> SCF convergence          0.1000000E-05 Eh   :
          :  -> wf. convergence          0.1000000E-03 e    :
          :  Broyden damping             0.4000000          :
          :  net charge                          0          :
          :  unpaired electrons                  0          :
          ...................................................

 iter      E             dE          RMSdq      gap      omega  full diag
   1    -59.5656241 -0.595656E+02  0.195E-04    3.22       0.0  T
   2    -59.5656241 -0.185366E-09  0.141E-04    3.22     127.0  T
   3    -59.5656241 -0.917595E-10  0.109E-04    3.22     164.4  T

   *** convergence criteria satisfied after 3 iterations ***

         #    Occupation            Energy/Eh            Energy/eV
      -------------------------------------------------------------
         1        2.0000           -1.0567857             -28.7566
       ...           ...                  ...                  ...
        45        2.0000           -0.4294843             -11.6869
        46        2.0000           -0.4262576             -11.5991
        47        2.0000           -0.4241685             -11.5422
        48        2.0000           -0.4100726             -11.1586
        49        2.0000           -0.4051147             -11.0237
        50        2.0000           -0.3968778             -10.7996
        51        2.0000           -0.3847583             -10.4698 (HOMO)
        52                         -0.2666018              -7.2546 (LUMO)
        53                         -0.2437692              -6.6333
        54                         -0.2121576              -5.7731
        55                         -0.1391911              -3.7876
        56                         -0.1155949              -3.1455
       ...                                ...                  ...
        93                          0.6424147              17.4810
      -------------------------------------------------------------
                  HL-Gap            0.1181564 Eh            3.2152 eV
             Fermi-level           -0.3256800 Eh           -8.8622 eV

 SCC (total)                   0 d,  0 h,  0 min,  0.027 sec
 SCC setup                      ...        0 min,  0.000 sec (  0.745%)
 Dispersion                     ...        0 min,  0.000 sec (  0.610%)
 classical contributions        ...        0 min,  0.000 sec (  0.321%)
 integral evaluation            ...        0 min,  0.006 sec ( 21.231%)
 iterations                     ...        0 min,  0.004 sec ( 16.432%)
 molecular gradient             ...        0 min,  0.016 sec ( 60.223%)
 printout                       ...        0 min,  0.000 sec (  0.410%)

         :::::::::::::::::::::::::::::::::::::::::::::::::::::
         ::                     SUMMARY                     ::
         :::::::::::::::::::::::::::::::::::::::::::::::::::::
         :: total energy             -58.964411581116 Eh    ::
         :: gradient norm              0.000378925440 Eh/a0 ::
         :: HOMO-LUMO gap              3.215200111793 eV    ::
         ::.................................................::
         :: SCC energy               -59.565119698202 Eh    ::
         :: -> isotropic ES            0.113513210029 Eh    ::
         :: -> anisotropic ES         -0.002111522724 Eh    ::
         :: -> anisotropic XC          0.017670315300 Eh    ::
         :: -> dispersion             -0.034870326497 Eh    ::
         :: repulsion energy           0.600708117087 Eh    ::
         :: add. restraining           0.000000000000 Eh    ::
         :: total charge              -0.000000000000 e     ::
         :::::::::::::::::::::::::::::::::::::::::::::::::::::

           -------------------------------------------------
          |                Property Printout                |
           -------------------------------------------------

    * Orbital Energies and Occupations

         #    Occupation            Energy/Eh            Energy/eV
      -------------------------------------------------------------
         1        2.0000           -1.0567857             -28.7566
       ...           ...                  ...                  ...
        39        2.0000           -0.4716843             -12.8352
        40        2.0000           -0.4622106             -12.5774
        41        2.0000           -0.4555578             -12.3964
        42        2.0000           -0.4433483             -12.0641
        43        2.0000           -0.4389156             -11.9435
        44        2.0000           -0.4343217             -11.8185
        45        2.0000           -0.4294843             -11.6869
        46        2.0000           -0.4262576             -11.5991
        47        2.0000           -0.4241685             -11.5422
        48        2.0000           -0.4100726             -11.1586
        49        2.0000           -0.4051147             -11.0237
        50        2.0000           -0.3968778             -10.7996
        51        2.0000           -0.3847583             -10.4698 (HOMO)
        52                         -0.2666018              -7.2546 (LUMO)
        53                         -0.2437692              -6.6333
        54                         -0.2121576              -5.7731
        55                         -0.1391911              -3.7876
        56                         -0.1155949              -3.1455
        57                         -0.0326245              -0.8878
        58                         -0.0141379              -0.3847
        59                         -0.0027596              -0.0751
        60                          0.0133810               0.3641
        61                          0.0163282               0.4443
        62                          0.0164822               0.4485
       ...                                ...                  ...
        93                          0.6424147              17.4810
      -------------------------------------------------------------
                  HL-Gap            0.1181564 Eh            3.2152 eV
             Fermi-level           -0.3256800 Eh           -8.8622 eV

     #   Z          covCN         q      C6AA      α(0)
     1   7 N        2.647    -0.229    26.008     7.574
     2   6 C        2.882     0.175    24.247     8.073
     3   7 N        1.926    -0.302    28.673     7.940
     4   6 C        2.909     0.265    22.552     7.787
     5  17 Cl       1.051    -0.122   102.974    15.525
     6   7 N        1.908    -0.316    29.033     7.989
     7   6 C        3.163     0.142    24.604     8.107
     8   6 C        3.227     0.010    27.016     8.444
     9   7 N        1.882    -0.265    27.747     7.809
    10   6 C        3.192     0.101    25.291     8.202
    11   7 N        2.822    -0.068    22.556     7.054
    12   6 C        3.713     0.183    17.808     6.030
    13   6 C        3.819    -0.092    22.247     6.712
    14   6 C        3.740     0.111    18.834     6.192
    15   6 C        3.777     0.092    19.081     6.223
    16   8 O        1.701    -0.322    19.380     5.944
    17   6 C        3.674     0.061    19.773     6.372
    18   8 O        1.656    -0.431    21.459     6.253
    19   8 O        1.656    -0.436    21.560     6.268
    20   1 H        0.860     0.206     1.078     1.626
    21   1 H        0.861     0.205     1.082     1.629
    22   1 H        0.926     0.053     2.277     2.360
    23   1 H        0.923     0.046     2.371     2.408
    24   1 H        0.925     0.052     2.298     2.371
    25   1 H        0.925     0.081     1.966     2.193
    26   1 H        0.924     0.026     2.643     2.542
    27   1 H        0.924     0.076     2.025     2.225
    28   1 H        0.923     0.048     2.348     2.396
    29   1 H        0.924     0.054     2.275     2.359
    30   1 H        0.805     0.300     0.721     1.334
    31   1 H        0.805     0.298     0.728     1.341

 Mol. C6AA /au·bohr⁶  :      12600.754717
 Mol. C8AA /au·bohr⁸  :     308025.193067
 Mol. α(0) /au        :        169.280866


Wiberg/Mayer (AO) data.
largest (>0.10) Wiberg bond orders for each atom

 ---------------------------------------------------------------------------
     #   Z sym  total        # sym  WBO       # sym  WBO       # sym  WBO
 ---------------------------------------------------------------------------
     1   7 N    3.406 --     2 C    1.285    21 H    0.941    20 H    0.938
     2   6 C    3.971 --     3 N    1.316     1 N    1.285     8 C    1.218
     3   7 N    3.036 --     4 C    1.391     2 C    1.316
     4   6 C    3.938 --     6 N    1.409     3 N    1.391     5 Cl   0.999
     5  17 Cl   1.165 --     4 C    0.999
     6   7 N    3.034 --     4 C    1.409     7 C    1.279
     7   6 C    3.959 --     6 N    1.279     8 C    1.278    11 N    1.174
     8   6 C    3.972 --     7 C    1.278     2 C    1.218     9 N    1.206
     9   7 N    3.026 --    10 C    1.611     8 C    1.206    11 N    0.105
    10   6 C    3.951 --     9 N    1.611    11 N    1.192    22 H    0.962
    11   7 N    3.600 --    10 C    1.192     7 C    1.174    12 C    0.962
                             9 N    0.105
    12   6 C    3.943 --    16 O    0.984    13 C    0.981    11 N    0.962
                            23 H    0.953
    13   6 C    3.990 --    14 C    0.983    12 C    0.981    24 H    0.976
                            25 H    0.962
    14   6 C    3.962 --    19 O    0.998    13 C    0.983    15 C    0.975
                            26 H    0.962
    15   6 C    3.939 --    17 C    0.977    14 C    0.975    27 H    0.956
                            16 O    0.955
    16   8 O    2.088 --    12 C    0.984    15 C    0.955
    17   6 C    3.960 --    18 O    1.011    15 C    0.977    29 H    0.971
                            28 H    0.958
    18   8 O    1.963 --    17 C    1.011    30 H    0.892
    19   8 O    1.966 --    14 C    0.998    31 H    0.895
    20   1 H    0.957 --     1 N    0.938
    21   1 H    0.957 --     1 N    0.941
    22   1 H    0.996 --    10 C    0.962
    23   1 H    0.997 --    12 C    0.953
    24   1 H    0.997 --    13 C    0.976
    25   1 H    0.993 --    13 C    0.962
    26   1 H    0.999 --    14 C    0.962
    27   1 H    0.994 --    15 C    0.956
    28   1 H    0.998 --    17 C    0.958
    29   1 H    0.997 --    17 C    0.971
    30   1 H    0.910 --    18 O    0.892
    31   1 H    0.911 --    19 O    0.895
 ---------------------------------------------------------------------------

Topologies differ in total number of bonds
Writing topology from bond orders to xtbtopo.mol

molecular dipole:
                 x           y           z       tot (Debye)
 q only:        0.771      -1.156      -0.716
   full:        0.757      -1.593      -1.022       5.182
molecular quadrupole (traceless):
                xx          xy          yy          xz          yz          zz
 q only:       22.249       8.760      -6.929       3.556       2.179     -15.320
  q+dip:       21.116      12.223      -5.835       4.604       2.745     -15.281
   full:       19.948      12.406      -3.294       3.664       2.624     -16.654

           -------------------------------------------------
          |                Geometry Summary                 |
           -------------------------------------------------

      molecular mass/u    :      285.6873164
   center of mass at/Å    :        0.2905954       0.0174241       0.4554055
  moments of inertia/u·Å² :        0.9883854E+03   0.1941849E+04   0.2437472E+04
rotational constants/cm⁻¹ :        0.1705573E-01   0.8681228E-02   0.6916030E-02

 * 33 selected distances

     #   Z          #   Z                                           value/Å
     1   7 N        2   6 C                                       1.3381261
     2   6 C        3   7 N                                       1.3363691
     3   7 N        4   6 C                                       1.3177629
     4   6 C        5  17 Cl                                      1.7049867 (max)
     4   6 C        6   7 N                                       1.3170178
     6   7 N        7   6 C                                       1.3368196
     2   6 C        8   6 C                                       1.4072040
     7   6 C        8   6 C                                       1.4050349
     8   6 C        9   7 N                                       1.3715088
     9   7 N       10   6 C                                       1.2945331
     7   6 C       11   7 N                                       1.3656829
    10   6 C       11   7 N                                       1.3720645
    11   7 N       12   6 C                                       1.4455660
    12   6 C       13   6 C                                       1.5339633
    13   6 C       14   6 C                                       1.5337075
    14   6 C       15   6 C                                       1.5325127
    12   6 C       16   8 O                                       1.4050883
    15   6 C       16   8 O                                       1.4262887
    15   6 C       17   6 C                                       1.5350877
    17   6 C       18   8 O                                       1.4036525
    14   6 C       19   8 O                                       1.4064384
     1   7 N       20   1 H                                       1.0041749
     1   7 N       21   1 H                                       1.0038103
    10   6 C       22   1 H                                       1.0721873
    12   6 C       23   1 H                                       1.1010697
    13   6 C       24   1 H                                       1.0882844
    13   6 C       25   1 H                                       1.0888034
    14   6 C       26   1 H                                       1.0974974
    15   6 C       27   1 H                                       1.0947951
    17   6 C       28   1 H                                       1.0995585
    17   6 C       29   1 H                                       1.0915910
    18   8 O       30   1 H                                       0.9656971
    19   8 O       31   1 H                                       0.9637428 (min)

 * 7 distinct bonds (by element types)

   Z      Z             #   av. dist./Å        max./Å        min./Å
   1 H    6 C           8     1.0917234     1.1010697     1.0721873
   6 C    6 C           6     1.4912517     1.5350877     1.4050349
   1 H    7 N           2     1.0039926     1.0041749     1.0038103
   6 C    7 N          10     1.3495451     1.4455660     1.2945331
   1 H    8 O           2     0.9647199     0.9656971     0.9637428
   6 C    8 O           4     1.4103670     1.4262887     1.4036525
   6 C   17 Cl          1     1.7049867     1.7049867     1.7049867


optimized geometry written to: xtbopt.xyz


           -------------------------------------------------
          | TOTAL ENERGY              -58.964411581116 Eh   |
          | GRADIENT NORM               0.000378925440 Eh/α |
          | HOMO-LUMO GAP               3.215200111793 eV   |
           -------------------------------------------------

------------------------------------------------------------------------
 * finished run on 2025/05/15 at 16:27:25.933     
------------------------------------------------------------------------
 total:
 * wall-time:     0 d,  0 h,  0 min,  1.358 sec
 *  cpu-time:     0 d,  0 h,  0 min,  1.152 sec
 * ratio c/w:     0.848 speedup
 SCF:
 * wall-time:     0 d,  0 h,  0 min,  0.044 sec
 *  cpu-time:     0 d,  0 h,  0 min,  0.043 sec
 * ratio c/w:     0.995 speedup
 ANC optimizer:
 * wall-time:     0 d,  0 h,  0 min,  1.302 sec
 *  cpu-time:     0 d,  0 h,  0 min,  1.098 sec
 * ratio c/w:     0.843 speedup



----- Single-point -----
      -----------------------------------------------------------      
     |                   =====================                   |     
     |                           x T B                           |     
     |                   =====================                   |     
     |                         S. Grimme                         |     
     |          Mulliken Center for Theoretical Chemistry        |     
     |                    University of Bonn                     |     
      -----------------------------------------------------------      

   * xtb version 6.7.1 (edcfbbe) compiled by 'conda@3ef47c1a292c' on 2024-11-25

   xtb is free software: you can redistribute it and/or modify it under
   the terms of the GNU Lesser General Public License as published by
   the Free Software Foundation, either version 3 of the License, or
   (at your option) any later version.
   
   xtb is distributed in the hope that it will be useful,
   but WITHOUT ANY WARRANTY; without even the implied warranty of
   MERCHANTABILITY or FITNESS FOR A PARTICULAR PURPOSE.  See the
   GNU Lesser General Public License for more details.
   
   Cite this work as:
   * C. Bannwarth, E. Caldeweyher, S. Ehlert, A. Hansen, P. Pracht,
     J. Seibert, S. Spicher, S. Grimme, WIREs Comput. Mol. Sci., 2020, 11,
     e01493. DOI: 10.1002/wcms.1493
   
   for GFN2-xTB:
   * C. Bannwarth, S. Ehlert and S. Grimme., J. Chem. Theory Comput., 2019,
     15, 1652-1671. DOI: 10.1021/acs.jctc.8b01176
   for GFN1-xTB:
   * S. Grimme, C. Bannwarth, P. Shushkov, J. Chem. Theory Comput., 2017,
     13, 1989-2009. DOI: 10.1021/acs.jctc.7b00118
   for GFN0-xTB:
   * P. Pracht, E. Caldeweyher, S. Ehlert, S. Grimme, ChemRxiv, 2019, preprint.
     DOI: 10.26434/chemrxiv.8326202.v1
   for GFN-FF:
   * S. Spicher and S. Grimme, Angew. Chem. Int. Ed., 2020, 59, 15665-15673.
     DOI: 10.1002/anie.202004239
   
   for ALPB and GBSA implicit solvation:
   * S. Ehlert, M. Stahn, S. Spicher, S. Grimme, J. Chem. Theory Comput.,
     2021, 17, 4250-4261. DOI: 10.1021/acs.jctc.1c00471
   
   for ddCOSMO and CPCM-X implicit solvation:
   * M. Stahn, S. Ehlert, S. Grimme, J. Phys. Chem. A,
     2023, XX, XXXX-XXXX. DOI: 10.1021/acs.jpca.3c04382
   
   for DFT-D4:
   * E. Caldeweyher, C. Bannwarth and S. Grimme, J. Chem. Phys., 2017,
     147, 034112. DOI: 10.1063/1.4993215
   * E. Caldeweyher, S. Ehlert, A. Hansen, H. Neugebauer, S. Spicher,
     C. Bannwarth and S. Grimme, J. Chem. Phys., 2019, 150, 154122.
     DOI: 10.1063/1.5090222
   * E. Caldeweyher, J.-M. Mewes, S. Ehlert and S. Grimme, Phys. Chem. Chem. Phys.
     2020, 22, 8499-8512. DOI: 10.1039/D0CP00502A
   
   for sTDA-xTB:
   * S. Grimme and C. Bannwarth, J. Chem. Phys., 2016, 145, 054103.
     DOI: 10.1063/1.4959605
   
   in the mass-spec context:
   * V. Asgeirsson, C. Bauer and S. Grimme, Chem. Sci., 2017, 8, 4879.
     DOI: 10.1039/c7sc00601b
   * J. Koopman and S. Grimme, ACS Omega 2019, 4, 12, 15120-15133.
     DOI: 10.1021/acsomega.9b02011
   
   for metadynamics refer to:
   * S. Grimme, J. Chem. Theory Comput., 2019, 155, 2847-2862
     DOI: 10.1021/acs.jctc.9b00143
   
   for SPH calculations refer to:
   * S. Spicher and S. Grimme, J. Chem. Theory Comput., 2021, 17, 1701-1714
     DOI: 10.1021/acs.jctc.0c01306
   
   for ONIOM refer to:
   * C. Plett, A. Katbashev, S. Ehlert, S. Grimme, M. Bursch,
     Phys. Chem. Chem. Phys., 2023, 25, 17860-17868. DOI: 10.1039/D3CP02178E
   
   for DIPRO refer to:
   * J. Kohn, N. Gildemeister, S. Grimme, D. Fazzi, A. Hansen,
     J. Chem. Phys., 2023, just accepted.
   
   for PTB refer to:
   * S. Grimme, M. Mueller, A. Hansen, J. Chem. Phys., 2023, 158, 124111.
     DOI: 10.1063/5.0137838
   
   with help from (in alphabetical order)
   P. Atkinson, C. Bannwarth, F. Bohle, G. Brandenburg, E. Caldeweyher
   M. Checinski, S. Dohm, S. Ehlert, S. Ehrlich, I. Gerasimov, C. Hölzer
   A. Katbashev, J. Kohn, J. Koopman, C. Lavigne, S. Lehtola, F. März, M. Müller,
   F. Musil, H. Neugebauer, J. Pisarek, C. Plett, P. Pracht, F. Pultar,
   J. Seibert, P. Shushkov, S. Spicher, M. Stahn, M. Steiner, T. Strunk,
   J. Stückrath, T. Rose, and J. Unsleber
   
 * started run on 2025/05/15 at 16:27:25.952     
[...]
     |                    University of Bonn                     |     
      -----------------------------------------------------------      

   * xtb version 6.7.1 (edcfbbe) compiled by 'conda@3ef47c1a292c' on 2024-11-25

   xtb is free software: you can redistribute it and/or modify it under
   the terms of the GNU Lesser General Public License as published by
   the Free Software Foundation, either version 3 of the License, or
   (at your option) any later version.
   
   xtb is distributed in the hope that it will be useful,
   but WITHOUT ANY WARRANTY; without even the implied warranty of
   MERCHANTABILITY or FITNESS FOR A PARTICULAR PURPOSE.  See the
   GNU Lesser General Public License for more details.
   
   Cite this work as:
   * C. Bannwarth, E. Caldeweyher, S. Ehlert, A. Hansen, P. Pracht,
     J. Seibert, S. Spicher, S. Grimme, WIREs Comput. Mol. Sci., 2020, 11,
     e01493. DOI: 10.1002/wcms.1493
   
   for GFN2-xTB:
   * C. Bannwarth, S. Ehlert and S. Grimme., J. Chem. Theory Comput., 2019,
     15, 1652-1671. DOI: 10.1021/acs.jctc.8b01176
   for GFN1-xTB:
   * S. Grimme, C. Bannwarth, P. Shushkov, J. Chem. Theory Comput., 2017,
     13, 1989-2009. DOI: 10.1021/acs.jctc.7b00118
   for GFN0-xTB:
   * P. Pracht, E. Caldeweyher, S. Ehlert, S. Grimme, ChemRxiv, 2019, preprint.
     DOI: 10.26434/chemrxiv.8326202.v1
   for GFN-FF:
   * S. Spicher and S. Grimme, Angew. Chem. Int. Ed., 2020, 59, 15665-15673.
     DOI: 10.1002/anie.202004239
   
   for ALPB and GBSA implicit solvation:
   * S. Ehlert, M. Stahn, S. Spicher, S. Grimme, J. Chem. Theory Comput.,
     2021, 17, 4250-4261. DOI: 10.1021/acs.jctc.1c00471
   
   for ddCOSMO and CPCM-X implicit solvation:
   * M. Stahn, S. Ehlert, S. Grimme, J. Phys. Chem. A,
     2023, XX, XXXX-XXXX. DOI: 10.1021/acs.jpca.3c04382
   
   for DFT-D4:
   * E. Caldeweyher, C. Bannwarth and S. Grimme, J. Chem. Phys., 2017,
     147, 034112. DOI: 10.1063/1.4993215
   * E. Caldeweyher, S. Ehlert, A. Hansen, H. Neugebauer, S. Spicher,
     C. Bannwarth and S. Grimme, J. Chem. Phys., 2019, 150, 154122.
     DOI: 10.1063/1.5090222
   * E. Caldeweyher, J.-M. Mewes, S. Ehlert and S. Grimme, Phys. Chem. Chem. Phys.
     2020, 22, 8499-8512. DOI: 10.1039/D0CP00502A
   
   for sTDA-xTB:
   * S. Grimme and C. Bannwarth, J. Chem. Phys., 2016, 145, 054103.
     DOI: 10.1063/1.4959605
   
   in the mass-spec context:
   * V. Asgeirsson, C. Bauer and S. Grimme, Chem. Sci., 2017, 8, 4879.
     DOI: 10.1039/c7sc00601b
   * J. Koopman and S. Grimme, ACS Omega 2019, 4, 12, 15120-15133.
     DOI: 10.1021/acsomega.9b02011
   
   for metadynamics refer to:
   * S. Grimme, J. Chem. Theory Comput., 2019, 155, 2847-2862
     DOI: 10.1021/acs.jctc.9b00143
   
   for SPH calculations refer to:
   * S. Spicher and S. Grimme, J. Chem. Theory Comput., 2021, 17, 1701-1714
     DOI: 10.1021/acs.jctc.0c01306
   
   for ONIOM refer to:
   * C. Plett, A. Katbashev, S. Ehlert, S. Grimme, M. Bursch,
     Phys. Chem. Chem. Phys., 2023, 25, 17860-17868. DOI: 10.1039/D3CP02178E
   
   for DIPRO refer to:
   * J. Kohn, N. Gildemeister, S. Grimme, D. Fazzi, A. Hansen,
     J. Chem. Phys., 2023, just accepted.
   
   for PTB refer to:
   * S. Grimme, M. Mueller, A. Hansen, J. Chem. Phys., 2023, 158, 124111.
     DOI: 10.1063/5.0137838
   
   with help from (in alphabetical order)
   P. Atkinson, C. Bannwarth, F. Bohle, G. Brandenburg, E. Caldeweyher
   M. Checinski, S. Dohm, S. Ehlert, S. Ehrlich, I. Gerasimov, C. Hölzer
   A. Katbashev, J. Kohn, J. Koopman, C. Lavigne, S. Lehtola, F. März, M. Müller,
   F. Musil, H. Neugebauer, J. Pisarek, C. Plett, P. Pracht, F. Pultar,
   J. Seibert, P. Shushkov, S. Spicher, M. Stahn, M. Steiner, T. Strunk,
   J. Stückrath, T. Rose, and J. Unsleber
   
 * started run on 2025/05/15 at 16:27:27.087     
   ID    Z sym.   atoms
    1    7 N      1, 3, 6, 9, 11
    2    6 C      2, 4, 7, 8, 10, 12-15, 17
    3   17 Cl     5
    4    8 O      16, 18, 19
    5    1 H      20-31

           -------------------------------------------------
          |                Calculation Setup                |
           -------------------------------------------------

          program call               : xtb /rds/general/user/hgt20/home/callum/QDESCP/Cladribine_rdkit_conf_15/Cladribine_rdkit_conf_15.xyz --acc 1 --gfn 2 --chrg 0 --uhf 2 --etemp 300 --input /rds/general/user/hgt20/home/callum/QDESCP/Cladribine_rdkit_conf_15/Cladribine_rdkit_conf_15_xtb.inp -P 1
          hostname                   : login-c
          coordinate file            : /rds/general/user/hgt20/home/callum/QDESCP/Cladribine_rdkit_conf_15/Cladribine_rdkit_conf_15.xyz
          omp threads                :                     1


           -------------------------------------------------
          |                 G F N 2 - x T B                 |
           -------------------------------------------------

        Reference                      10.1021/acs.jctc.8b01176
      * Hamiltonian:
        H0-scaling (s, p, d)           1.850000    2.230000    2.230000
        zeta-weighting                 0.500000
      * Dispersion:
        s8                             2.700000
        a1                             0.520000
        a2                             5.000000
        s9                             5.000000
      * Repulsion:
        kExp                           1.500000    1.000000
        rExp                           1.000000
      * Coulomb:
        alpha                          2.000000
        third order                    shell-resolved
        anisotropic                    true
        a3                             3.000000
        a5                             4.000000
        cn-shift                       1.200000
        cn-exp                         4.000000
        max-rad                        5.000000


          ...................................................
          :                      SETUP                      :
          :.................................................:
          :  # basis functions                  94          :
          :  # atomic orbitals                  93          :
          :  # shells                           51          :
          :  # electrons                       102          :
          :  max. iterations                   250          :
          :  Hamiltonian                  GFN2-xTB          :
          :  restarted?                      false          :
          :  GBSA solvation                  false          :
          :  PC potential                    false          :
          :  electronic temp.          300.0000000     K    :
          :  accuracy                    1.0000000          :
          :  -> integral cutoff          0.2500000E+02      :
          :  -> integral neglect         0.1000000E-07      :
          :  -> SCF convergence          0.1000000E-05 Eh   :
          :  -> wf. convergence          0.1000000E-03 e    :
          :  Broyden damping             0.4000000          :
          :  net charge                          0          :
          :  unpaired electrons                  2          :
          ...................................................

 iter      E             dE          RMSdq      gap      omega  full diag
   1    -59.1758421 -0.591758E+02  0.461E+00    0.37       0.0  T
   2    -59.3285192 -0.152677E+00  0.308E+00    0.87       1.0  T
   3    -59.3593986 -0.308794E-01  0.217E+00    0.55       1.0  T
   4    -59.3109575  0.484411E-01  0.177E+00    0.71       1.0  T
   5    -59.3860523 -0.750948E-01  0.123E+00    0.32       1.0  T
   6    -59.4322944 -0.462422E-01  0.390E-01    0.38       1.0  T
   7    -59.4361605 -0.386610E-02  0.211E-01    0.38       1.0  T
   8    -59.4369551 -0.794539E-03  0.946E-02    0.39       1.0  T
   9    -59.4369499  0.517059E-05  0.803E-02    0.38       1.0  T
  10    -59.4370346 -0.847058E-04  0.450E-02    0.38       1.0  T
  11    -59.4370680 -0.333825E-04  0.237E-02    0.38       1.0  T
  12    -59.4370716 -0.359634E-05  0.184E-02    0.38       1.0  T
  13    -59.4370750 -0.338292E-05  0.107E-02    0.38       1.7  T
  14    -59.4370766 -0.157656E-05  0.671E-03    0.38       2.7  T
  15    -59.4370774 -0.794738E-06  0.241E-03    0.38       7.5  T
  16    -59.4370773  0.112732E-07  0.199E-03    0.38       9.0  T
  17    -59.4370774 -0.789849E-07  0.965E-04    0.38      18.6  T
  18    -59.4370774 -0.206903E-07  0.548E-04    0.38      32.7  T

   *** convergence criteria satisfied after 18 iterations ***

         #    Occupation            Energy/Eh            Energy/eV
      -------------------------------------------------------------
         1        2.0000           -1.0547607             -28.7015
       ...           ...                  ...                  ...
        46        2.0000           -0.4243476             -11.5471
        47        2.0000           -0.4224117             -11.4944
        48        2.0000           -0.4151087             -11.2957
        49        2.0000           -0.4110757             -11.1859
        50        1.6448           -0.3928873             -10.6910
        51        1.3552           -0.3917539             -10.6602
        52        0.9994           -0.2554859              -6.9521 (HOMO)
        53        0.0006           -0.2414936              -6.5714 (LUMO)
        54                         -0.2054015              -5.5893
        55                         -0.1353010              -3.6817
        56                         -0.1117965              -3.0421
        57                         -0.0327842              -0.8921
       ...                                ...                  ...
        93                          0.6442899              17.5320
      -------------------------------------------------------------
                  HL-Gap            0.0139922 Eh            0.3807 eV
             Fermi-level           -0.3204052 Eh           -8.7187 eV

 transition dipole moment (au) for excitation:          51          52
     X       Y       Z   
  -0.4367  -0.0472  -0.5184  total (au/Debye):    0.679   1.727
 dE (eV)             :    3.708
 oscillator strength :  0.59313E-01

 SCC (total)                   0 d,  0 h,  0 min,  0.056 sec
 SCC setup                      ...        0 min,  0.000 sec (  0.465%)
 Dispersion                     ...        0 min,  0.000 sec (  0.465%)
 classical contributions        ...        0 min,  0.000 sec (  0.151%)
 integral evaluation            ...        0 min,  0.006 sec ( 10.737%)
 iterations                     ...        0 min,  0.028 sec ( 49.728%)
 molecular gradient             ...        0 min,  0.015 sec ( 27.656%)
 printout                       ...        0 min,  0.006 sec ( 10.787%)

         :::::::::::::::::::::::::::::::::::::::::::::::::::::
         ::                     SUMMARY                     ::
         :::::::::::::::::::::::::::::::::::::::::::::::::::::
         :: total energy             -58.835864912684 Eh    ::
         :: gradient norm              0.127892170137 Eh/a0 ::
         :: HOMO-LUMO gap              0.380747837643 eV    ::
         ::.................................................::
         :: SCC energy               -59.436573029771 Eh    ::
         :: -> isotropic ES            0.104279697268 Eh    ::
         :: -> anisotropic ES         -0.001348076034 Eh    ::
         :: -> anisotropic XC          0.010041957293 Eh    ::
         :: -> dispersion             -0.034806061677 Eh    ::
         :: repulsion energy           0.600708117087 Eh    ::
         :: add. restraining           0.000000000000 Eh    ::
         :: total charge              -0.000000000000 e     ::
         :::::::::::::::::::::::::::::::::::::::::::::::::::::

           -------------------------------------------------
          |                Property Printout                |
           -------------------------------------------------

    * Orbital Energies and Occupations

         #    Occupation            Energy/Eh            Energy/eV
      -------------------------------------------------------------
         1        2.0000           -1.0547607             -28.7015
       ...           ...                  ...                  ...
        40        2.0000           -0.4639501             -12.6247
        41        2.0000           -0.4548148             -12.3761
        42        2.0000           -0.4441776             -12.0867
        43        2.0000           -0.4425011             -12.0411
        44        2.0000           -0.4387144             -11.9380
        45        2.0000           -0.4324072             -11.7664
        46        2.0000           -0.4243476             -11.5471
        47        2.0000           -0.4224117             -11.4944
        48        2.0000           -0.4151087             -11.2957
        49        2.0000           -0.4110757             -11.1859
        50        1.6448           -0.3928873             -10.6910
        51        1.3552           -0.3917539             -10.6602
        52        0.9994           -0.2554859              -6.9521 (HOMO)
        53        0.0006           -0.2414936              -6.5714 (LUMO)
        54                         -0.2054015              -5.5893
        55                         -0.1353010              -3.6817
        56                         -0.1117965              -3.0421
        57                         -0.0327842              -0.8921
        58                         -0.0170472              -0.4639
        59                          0.0018031               0.0491
        60                          0.0129735               0.3530
        61                          0.0175856               0.4785
        62                          0.0185213               0.5040
        63                          0.0186859               0.5085
       ...                                ...                  ...
        93                          0.6442899              17.5320
      -------------------------------------------------------------
                  HL-Gap            0.0139922 Eh            0.3807 eV
             Fermi-level           -0.3204052 Eh           -8.7187 eV

     #   Z          covCN         q      C6AA      α(0)
     1   7 N        2.647    -0.228    25.999     7.573
     2   6 C        2.882     0.122    25.323     8.250
     3   7 N        1.926    -0.255    27.481     7.773
     4   6 C        2.909     0.225    23.291     7.914
     5  17 Cl       1.051    -0.127   103.132    15.537
     6   7 N        1.908    -0.288    28.301     7.887
     7   6 C        3.163     0.146    24.519     8.093
     8   6 C        3.227     0.031    26.548     8.371
     9   7 N        1.882    -0.248    27.311     7.747
    10   6 C        3.192     0.070    25.949     8.308
    11   7 N        2.822    -0.074    22.671     7.072
    12   6 C        3.713     0.181    17.826     6.033
    13   6 C        3.819    -0.091    22.228     6.710
    14   6 C        3.740     0.111    18.836     6.192
    15   6 C        3.777     0.092    19.083     6.224
    16   8 O        1.701    -0.319    19.332     5.936
    17   6 C        3.674     0.063    19.749     6.368
    18   8 O        1.656    -0.421    21.268     6.225
    19   8 O        1.656    -0.435    21.547     6.266
    20   1 H        0.860     0.200     1.104     1.646
    21   1 H        0.861     0.198     1.116     1.655
    22   1 H        0.926     0.044     2.397     2.421
    23   1 H        0.923     0.053     2.287     2.365
    24   1 H        0.925     0.054     2.269     2.356
    25   1 H        0.925     0.078     1.996     2.209
    26   1 H        0.924     0.026     2.639     2.541
    27   1 H        0.924     0.079     1.994     2.208
    28   1 H        0.923     0.052     2.293     2.368
    29   1 H        0.924     0.058     2.226     2.333
    30   1 H        0.805     0.305     0.707     1.321
    31   1 H        0.805     0.299     0.725     1.337

 Mol. C6AA /au·bohr⁶  :      12588.900287
 Mol. C8AA /au·bohr⁸  :     307939.334675
 Mol. α(0) /au        :        169.236576


Wiberg/Mayer (AO) data.
largest (>0.10) Wiberg bond orders for each atom

 ---------------------------------------------------------------------------
     #   Z sym  total        # sym  WBO       # sym  WBO       # sym  WBO
 ---------------------------------------------------------------------------
     1   7 N    3.275 --     2 C    1.221    21 H    0.944    20 H    0.941
     2   6 C    3.873 --     3 N    1.288     1 N    1.221     8 C    1.093
     3   7 N    3.054 --     4 C    1.399     2 C    1.288
     4   6 C    3.842 --     3 N    1.399     6 N    1.198     5 Cl   0.988
     5  17 Cl   1.143 --     4 C    0.988
     6   7 N    2.914 --     7 C    1.287     4 C    1.198
     7   6 C    3.909 --     6 N    1.287     8 C    1.225    11 N    1.181
     8   6 C    3.839 --     9 N    1.299     7 C    1.225     2 C    1.093
     9   7 N    3.025 --    10 C    1.411     8 C    1.299
    10   6 C    3.808 --     9 N    1.411    11 N    1.146    22 H    0.963
    11   7 N    3.571 --     7 C    1.181    10 C    1.146    12 C    0.967
    12   6 C    3.942 --    16 O    0.981    13 C    0.980    11 N    0.967
                            23 H    0.949
    13   6 C    3.986 --    14 C    0.983    12 C    0.980    24 H    0.976
                            25 H    0.960
    14   6 C    3.962 --    19 O    0.999    13 C    0.983    15 C    0.974
                            26 H    0.962
    15   6 C    3.936 --    14 C    0.974    17 C    0.973    16 O    0.958
                            27 H    0.954
    16   8 O    2.089 --    12 C    0.981    15 C    0.958
    17   6 C    3.949 --    18 O    1.015    15 C    0.973    29 H    0.970
                            28 H    0.948
    18   8 O    1.970 --    17 C    1.015    30 H    0.889
    19   8 O    1.966 --    14 C    0.999    31 H    0.894
    20   1 H    0.958 --     1 N    0.941
    21   1 H    0.960 --     1 N    0.944
    22   1 H    0.997 --    10 C    0.963
    23   1 H    0.992 --    12 C    0.949
    24   1 H    0.997 --    13 C    0.976
    25   1 H    0.993 --    13 C    0.960
    26   1 H    0.999 --    14 C    0.962
    27   1 H    0.991 --    15 C    0.954
    28   1 H    0.994 --    17 C    0.948
    29   1 H    0.996 --    17 C    0.970
    30   1 H    0.907 --    18 O    0.889
    31   1 H    0.910 --    19 O    0.894
 ---------------------------------------------------------------------------

Topologies differ in total number of bonds
Writing topology from bond orders to xtbtopo.mol

molecular dipole:
                 x           y           z       tot (Debye)
 q only:        0.422      -1.036      -0.705
   full:        0.448      -1.459      -0.982       4.614
molecular quadrupole (traceless):
                xx          xy          yy          xz          yz          zz
 q only:       21.116       8.466      -5.425       3.529       2.259     -15.691
  q+dip:       20.795      11.959      -4.485       4.644       2.767     -16.310
   full:       20.119      12.216      -2.651       3.960       2.693     -17.467


           -------------------------------------------------
          | TOTAL ENERGY              -58.835864912684 Eh   |
          | GRADIENT NORM               0.127892170137 Eh/α |
          | HOMO-LUMO GAP               0.380747837643 eV   |
           -------------------------------------------------

------------------------------------------------------------------------
 * finished run on 2025/05/15 at 16:27:27.155     
------------------------------------------------------------------------
 total:
 * wall-time:     0 d,  0 h,  0 min,  0.067 sec
 *  cpu-time:     0 d,  0 h,  0 min,  0.065 sec
 * ratio c/w:     0.973 speedup
 SCF:
 * wall-time:     0 d,  0 h,  0 min,  0.056 sec
 *  cpu-time:     0 d,  0 h,  0 min,  0.056 sec
 * ratio c/w:     0.995 speedup


