31
 energy: -58.964411581116 gnorm: 0.000378925440 xtb: 6.7.1 (edcfbbe)
N            4.64341005753273       -0.14007956903389        1.48051858096534
C            3.30931006260709       -0.20627704329379        1.40066681691272
N            2.59895325123739       -0.19596060013706        2.53255407850095
C            1.28527352963917       -0.27214594373814        2.46226870901263
Cl           0.47013524094810       -0.25842224906382        3.95971330846340
N            0.51323783733620       -0.36304718765615        1.39914428539230
C            1.21058402926350       -0.36255153332462        0.25862062177107
C            2.61172654435887       -0.29197033095024        0.18154554953971
N            3.00189830700010       -0.32631854662833       -1.13284492137214
C            1.89824680322831       -0.40936215067157       -1.80431560301635
N            0.76644291616430       -0.45078225348126       -1.02980607827583
C           -0.59357765943184       -0.44408018636091       -1.51966283960361
C           -1.53586059197435       -1.30239199159140       -0.66617200968343
C           -2.82697456053365       -0.47557450397316       -0.62547858567007
C           -2.30580984440473        0.95813221253385       -0.77199498337860
O           -1.09762924360206        0.86747639402986       -1.52457732767720
C           -2.02843793391817        1.64650965678869        0.57176659647049
O           -1.50067478097854        2.93124042770994        0.36885571366327
O           -3.68818278578407       -0.74177040354194       -1.70507511890579
H            5.07644690554003       -0.07107032007703        2.38389219563276
H            5.18669517319453       -0.13544743786794        0.63644828456695
H            1.84768639174262       -0.45134532606981       -2.87448686171465
H           -0.54446643519620       -0.79479981911921       -2.56222603565427
H           -1.68833261646456       -2.28783991399900       -1.10207030069129
H           -1.12900539253491       -1.39937071483289        0.33909247418430
H           -3.35508503350405       -0.60431881201050        0.32794917296868
H           -2.99960944003792        1.56234257847935       -1.36541567858454
H           -1.33407346430543        1.02886921576549        1.15947997077473
H           -2.95827806850279        1.77515963895526        1.12891762927137
H           -0.79407720059928        2.85026112253981       -0.28439224676951
H           -4.03987199802325       -1.63526440937738       -1.62271539709340
