42
 energy: -71.306294664173 gnorm: 0.000761856681 xtb: 6.7.1 (edcfbbe)
O           -5.90309810536084       -1.47707137130153       -0.34954246042952
C           -4.93061025836965       -2.14115408662142       -0.05650197423686
O           -5.00496378156689       -3.45129765401425        0.15738395861431
C           -3.57586194561088       -1.57588248811192        0.07558718964401
C           -3.42669076457088       -0.27858416955179       -0.31284882126479
N           -2.27350004228402        0.40996277896452       -0.27320347589712
C           -1.10988496356510       -0.23218511979622        0.12582190584713
C            0.11856595847165        0.41782144978890        0.08937002722583
C            1.31574498507664       -0.19216148379029        0.48497593216142
N            2.48428182196860        0.52343548697237        0.45318350965590
C            3.69227793684097        0.12494892890107        1.14422992127955
C            4.66806635440067       -0.57779603005386        0.19727221939826
N            4.97353955156946        0.34262217262669       -0.88529557981350
C            3.77110220797973        0.69680382267243       -1.61320269037754
C            2.80349538467392        1.40188992038266       -0.65205575243335
C            1.19365269462644       -1.52150607690987        0.94724521987308
F            2.28957929489858       -2.22803806085961        1.32972670122404
C           -0.00732438631557       -2.17645714663171        0.99200305973104
C           -1.18762901264226       -1.55980352801878        0.57640963763576
C           -2.44407869614697       -2.32840459934901        0.61664484537708
O           -2.49487358753107       -3.45932667538191        1.06542409683719
C           -2.25646493876762        1.78567693503331       -0.67545068053914
C           -3.34772388129162        2.69819328621238       -0.20293170566482
C           -1.96501295643192        2.84513862323432        0.34973927768870
H           -5.92256311912153       -3.75224751779061        0.06866937441866
H           -4.29218733770048        0.24960862180494       -0.69052603933356
H            0.15289953113664        1.44363040958893       -0.23383225271759
H            3.46014163335779       -0.49870170377915        2.00324227357730
H            4.16893626062353        1.04394614949925        1.50334985542250
H            4.21526748239784       -1.51702702636420       -0.16091513712651
H            5.59094578833942       -0.81641508292748        0.72794912898533
H            5.66341131006059       -0.06048513067065       -1.51140199579036
H            4.03792683036088        1.37377696810717       -2.42739233069327
H            3.25821503707855       -0.18488190698513       -2.04084791247816
H            1.90630598639007        1.69055907969384       -1.19504418231867
H            3.28943116364856        2.29825975595197       -0.25436774447644
H           -0.05474782737942       -3.19905377636317        1.33363372362361
H           -1.87235697617161        1.93316198765523       -1.68111998258881
H           -4.10576016554655        2.29037804726668        0.44725825610474
H           -3.71719635650111        3.44277028826013       -0.89050059278353
H           -1.79212993395945        2.52076895600722        1.36428246365880
H           -1.36902817706579        3.69482696664894        0.05357873297859
