----- Optimization -----
      -----------------------------------------------------------      
     |                   =====================                   |     
     |                           x T B                           |     
     |                   =====================                   |     
     |                         S. Grimme                         |     
     |          Mulliken Center for Theoretical Chemistry        |     
     |                    University of Bonn                     |     
      -----------------------------------------------------------      

   * xtb version 6.7.1 (edcfbbe) compiled by 'conda@3ef47c1a292c' on 2024-11-25

   xtb is free software: you can redistribute it and/or modify it under
   the terms of the GNU Lesser General Public License as published by
   the Free Software Foundation, either version 3 of the License, or
   (at your option) any later version.
   
   xtb is distributed in the hope that it will be useful,
   but WITHOUT ANY WARRANTY; without even the implied warranty of
   MERCHANTABILITY or FITNESS FOR A PARTICULAR PURPOSE.  See the
   GNU Lesser General Public License for more details.
   
   Cite this work as:
   * C. Bannwarth, E. Caldeweyher, S. Ehlert, A. Hansen, P. Pracht,
     J. Seibert, S. Spicher, S. Grimme, WIREs Comput. Mol. Sci., 2020, 11,
     e01493. DOI: 10.1002/wcms.1493
   
   for GFN2-xTB:
   * C. Bannwarth, S. Ehlert and S. Grimme., J. Chem. Theory Comput., 2019,
     15, 1652-1671. DOI: 10.1021/acs.jctc.8b01176
   for GFN1-xTB:
   * S. Grimme, C. Bannwarth, P. Shushkov, J. Chem. Theory Comput., 2017,
     13, 1989-2009. DOI: 10.1021/acs.jctc.7b00118
   for GFN0-xTB:
   * P. Pracht, E. Caldeweyher, S. Ehlert, S. Grimme, ChemRxiv, 2019, preprint.
     DOI: 10.26434/chemrxiv.8326202.v1
   for GFN-FF:
   * S. Spicher and S. Grimme, Angew. Chem. Int. Ed., 2020, 59, 15665-15673.
     DOI: 10.1002/anie.202004239
   
   for ALPB and GBSA implicit solvation:
   * S. Ehlert, M. Stahn, S. Spicher, S. Grimme, J. Chem. Theory Comput.,
     2021, 17, 4250-4261. DOI: 10.1021/acs.jctc.1c00471
   
   for ddCOSMO and CPCM-X implicit solvation:
   * M. Stahn, S. Ehlert, S. Grimme, J. Phys. Chem. A,
     2023, XX, XXXX-XXXX. DOI: 10.1021/acs.jpca.3c04382
   
   for DFT-D4:
   * E. Caldeweyher, C. Bannwarth and S. Grimme, J. Chem. Phys., 2017,
     147, 034112. DOI: 10.1063/1.4993215
   * E. Caldeweyher, S. Ehlert, A. Hansen, H. Neugebauer, S. Spicher,
     C. Bannwarth and S. Grimme, J. Chem. Phys., 2019, 150, 154122.
     DOI: 10.1063/1.5090222
   * E. Caldeweyher, J.-M. Mewes, S. Ehlert and S. Grimme, Phys. Chem. Chem. Phys.
     2020, 22, 8499-8512. DOI: 10.1039/D0CP00502A
   
   for sTDA-xTB:
   * S. Grimme and C. Bannwarth, J. Chem. Phys., 2016, 145, 054103.
     DOI: 10.1063/1.4959605
   
   in the mass-spec context:
   * V. Asgeirsson, C. Bauer and S. Grimme, Chem. Sci., 2017, 8, 4879.
     DOI: 10.1039/c7sc00601b
   * J. Koopman and S. Grimme, ACS Omega 2019, 4, 12, 15120-15133.
     DOI: 10.1021/acsomega.9b02011
   
   for metadynamics refer to:
   * S. Grimme, J. Chem. Theory Comput., 2019, 155, 2847-2862
     DOI: 10.1021/acs.jctc.9b00143
   
   for SPH calculations refer to:
   * S. Spicher and S. Grimme, J. Chem. Theory Comput., 2021, 17, 1701-1714
     DOI: 10.1021/acs.jctc.0c01306
   
   for ONIOM refer to:
   * C. Plett, A. Katbashev, S. Ehlert, S. Grimme, M. Bursch,
     Phys. Chem. Chem. Phys., 2023, 25, 17860-17868. DOI: 10.1039/D3CP02178E
   
   for DIPRO refer to:
   * J. Kohn, N. Gildemeister, S. Grimme, D. Fazzi, A. Hansen,
     J. Chem. Phys., 2023, just accepted.
   
   for PTB refer to:
   * S. Grimme, M. Mueller, A. Hansen, J. Chem. Phys., 2023, 158, 124111.
     DOI: 10.1063/5.0137838
   
   with help from (in alphabetical order)
   P. Atkinson, C. Bannwarth, F. Bohle, G. Brandenburg, E. Caldeweyher
   M. Checinski, S. Dohm, S. Ehlert, S. Ehrlich, I. Gerasimov, C. Hölzer
   A. Katbashev, J. Kohn, J. Koopman, C. Lavigne, S. Lehtola, F. März, M. Müller,
   F. Musil, H. Neugebauer, J. Pisarek, C. Plett, P. Pracht, F. Pultar,
   J. Seibert, P. Shushkov, S. Spicher, M. Stahn, M. Steiner, T. Strunk,
   J. Stückrath, T. Rose, and J. Unsleber
   
 * started run on 2025/05/15 at 16:29:26.309     
   ID    Z sym.   atoms
    1    6 C      1-3, 5-8, 10, 11, 13, 15, 16, 18-20, 22, 23
    2    8 O      4, 21, 24
    3    7 N      9, 14, 17
    4   16 S      12
    5    1 H      25-43

           -------------------------------------------------
          |                Calculation Setup                |
           -------------------------------------------------

          program call               : xtb /rds/general/user/hgt20/home/callum/QDESCP/Omeprazole_rdkit_conf_11/Omeprazole_rdkit_conf_11.xyz --opt normal --acc 1 --gfn 2 --chrg 0 --uhf 0 -P 1
          hostname                   : login-c
          coordinate file            : /rds/general/user/hgt20/home/callum/QDESCP/Omeprazole_rdkit_conf_11/Omeprazole_rdkit_conf_11.xyz
          omp threads                :                     1


           -------------------------------------------------
          |                 G F N 2 - x T B                 |
           -------------------------------------------------

        Reference                      10.1021/acs.jctc.8b01176
      * Hamiltonian:
        H0-scaling (s, p, d)           1.850000    2.230000    2.230000
        zeta-weighting                 0.500000
      * Dispersion:
        s8                             2.700000
        a1                             0.520000
        a2                             5.000000
        s9                             5.000000
      * Repulsion:
        kExp                           1.500000    1.000000
        rExp                           1.000000
      * Coulomb:
        alpha                          2.000000
        third order                    shell-resolved
        anisotropic                    true
        a3                             3.000000
        a5                             4.000000
        cn-shift                       1.200000
        cn-exp                         4.000000
        max-rad                        5.000000


          ...................................................
          :                      SETUP                      :
          :.................................................:
          :  # basis functions                 121          :
          :  # atomic orbitals                 120          :
          :  # shells                           68          :
          :  # electrons                       126          :
          :  max. iterations                   250          :
          :  Hamiltonian                  GFN2-xTB          :
          :  restarted?                      false          :
          :  GBSA solvation                  false          :
          :  PC potential                    false          :
          :  electronic temp.          300.0000000     K    :
          :  accuracy                    1.0000000          :
          :  -> integral cutoff          0.2500000E+02      :
          :  -> integral neglect         0.1000000E-07      :
          :  -> SCF convergence          0.1000000E-05 Eh   :
          :  -> wf. convergence          0.1000000E-03 e    :
          :  Broyden damping             0.4000000          :
          :  net charge                          0          :
          :  unpaired electrons                  0          :
          ...................................................

 iter      E             dE          RMSdq      gap      omega  full diag
   1    -71.0576965 -0.710577E+02  0.447E+00    3.03       0.0  T
   2    -71.1628704 -0.105174E+00  0.257E+00    3.16       1.0  T
   3    -71.1552909  0.757947E-02  0.127E+00    3.00       1.0  T
   4    -71.1705852 -0.152943E-01  0.557E-01    3.00       1.0  T
   5    -71.1803196 -0.973437E-02  0.171E-01    2.97       1.0  T
   6    -71.1804283 -0.108717E-03  0.890E-02    2.97       1.0  T
   7    -71.1805333 -0.105004E-03  0.369E-02    2.98       1.0  T
   8    -71.1805463 -0.129698E-04  0.222E-02    2.98       1.0  T
   9    -71.1805492 -0.288668E-05  0.855E-03    2.98       1.8  T
  10    -71.1805504 -0.127706E-05  0.343E-03    2.98       4.5  T
  11    -71.1805505 -0.457749E-07  0.178E-03    2.98       8.6  T
  12    -71.1805505 -0.403085E-07  0.650E-04    2.98      23.5  T
  13    -71.1805505 -0.588675E-08  0.248E-04    2.98      61.6  T

   *** convergence criteria satisfied after 13 iterations ***

         #    Occupation            Energy/Eh            Energy/eV
      -------------------------------------------------------------
         1        2.0000           -0.7528632             -20.4865
       ...           ...                  ...                  ...
        57        2.0000           -0.4075496             -11.0900
        58        2.0000           -0.4006696             -10.9028
        59        2.0000           -0.3981548             -10.8343
        60        2.0000           -0.3896777             -10.6037
        61        2.0000           -0.3816335             -10.3848
        62        2.0000           -0.3755656             -10.2197
        63        2.0000           -0.3720304             -10.1235 (HOMO)
        64                         -0.2624085              -7.1405 (LUMO)
        65                         -0.2503999              -6.8137
        66                         -0.2341592              -6.3718
        67                         -0.2072534              -5.6397
        68                         -0.2006124              -5.4589
       ...                                ...                  ...
       120                          0.8018228              21.8187
      -------------------------------------------------------------
                  HL-Gap            0.1096219 Eh            2.9830 eV
             Fermi-level           -0.3172195 Eh           -8.6320 eV

 SCC (total)                   0 d,  0 h,  0 min,  0.087 sec
 SCC setup                      ...        0 min,  0.000 sec (  0.465%)
 Dispersion                     ...        0 min,  0.000 sec (  0.551%)
 classical contributions        ...        0 min,  0.000 sec (  0.174%)
 integral evaluation            ...        0 min,  0.009 sec (  9.749%)
 iterations                     ...        0 min,  0.032 sec ( 36.490%)
 molecular gradient             ...        0 min,  0.046 sec ( 52.322%)
 printout                       ...        0 min,  0.000 sec (  0.240%)

         :::::::::::::::::::::::::::::::::::::::::::::::::::::
         ::                     SUMMARY                     ::
         :::::::::::::::::::::::::::::::::::::::::::::::::::::
         :: total energy             -70.297085019914 Eh    ::
         :: gradient norm              0.098554752257 Eh/a0 ::
         :: HOMO-LUMO gap              2.982964409957 eV    ::
         ::.................................................::
         :: SCC energy               -71.180246093864 Eh    ::
         :: -> isotropic ES            0.094760259761 Eh    ::
         :: -> anisotropic ES          0.010262805839 Eh    ::
         :: -> anisotropic XC          0.030582306159 Eh    ::
         :: -> dispersion             -0.047915618323 Eh    ::
         :: repulsion energy           0.883161073951 Eh    ::
         :: add. restraining           0.000000000000 Eh    ::
         :: total charge               0.000000000000 e     ::
         :::::::::::::::::::::::::::::::::::::::::::::::::::::

      ----------------------------------------------------------- 
     |                   =====================                   |
     |                        A N C O P T                        |
     |                   =====================                   |
     |               Approximate Normal Coordinate               |
     |                Rational Function Optimizer                |
      ----------------------------------------------------------- 
      ----------------------------------------------------------- 
     |                   =====================                   |
     |                        A N C O P T                        |
     |                   =====================                   |
     |               Approximate Normal Coordinate               |
     |                Rational Function Optimizer                |
      ----------------------------------------------------------- 

          ...................................................
          :                      SETUP                      :
          :.................................................:
          :   optimization level            normal          :
          :   max. optcycles                   200          :
          :   ANC micro-cycles                  20          :
          :   degrees of freedom               123          :
          :.................................................:
          :   RF solver                   davidson          :
          :   write xtbopt.log                true          :
          :   linear?                        false          :
          :   energy convergence         0.5000000E-05 Eh   :
          :   grad. convergence          0.1000000E-02 Eh/α :
          :   maxmium RF displ.          1.0000000          :
          :   Hlow (freq-cutoff)         0.1000000E-01      :
          :   Hmax (freq-cutoff)         5.0000000          :
          :   S6 in model hess.         20.0000000          :
          ...................................................

generating ANC from exact Hessian ...
Using Lindh-Hessian (1995)
 Shifting diagonal of input Hessian by    9.8354711011717465E-003
 Lowest  eigenvalues of input Hessian
    0.000000    0.000000    0.000000    0.000000    0.000000    0.000000
    0.010000    0.010093    0.010394    0.010927    0.011402    0.012282
    0.012561    0.013067    0.014224    0.014845    0.015496    0.016075
 Highest eigenvalues
    1.982310    2.035349    2.037970    2.106181    2.229625    2.254529


........................................................................
.............................. CYCLE    1 ..............................
........................................................................

 iter      E             dE          RMSdq      gap      omega  full diag
   1    -71.1805505 -0.711806E+02  0.101E-04    2.98       0.0  T
   2    -71.1805505 -0.803766E-10  0.616E-05    2.98     247.6  T
   3    -71.1805505 -0.581224E-10  0.403E-05    2.98     378.0  T
     SCC iter.                  ...        0 min,  0.008 sec
     gradient                   ...        0 min,  0.055 sec
 * total energy  :   -70.2970850 Eh     change       -0.8419363E-09 Eh
   gradient norm :     0.0985543 Eh/α   predicted     0.0000000E+00 (-100.00%)
   displ. norm   :     0.2999503 α      lambda       -0.1325127E-01
   maximum displ.:     0.0845697 α      in ANC's #35, #32, #9, ...

........................................................................
.............................. CYCLE    2 ..............................
........................................................................

 iter      E             dE          RMSdq      gap      omega  full diag
   1    -71.2146478 -0.712146E+02  0.210E-01    2.99       0.0  T
   2    -71.2147379 -0.900998E-04  0.130E-01    3.02       1.0  T
   3    -71.2146360  0.101915E-03  0.658E-02    3.00       1.0  T
   4    -71.2147934 -0.157408E-03  0.148E-02    3.00       1.0  T
   5    -71.2147962 -0.275446E-05  0.715E-03    3.01       2.1  T
   6    -71.2147965 -0.269155E-06  0.293E-03    3.01       5.2  T
   7    -71.2147966 -0.133641E-06  0.156E-03    3.01       9.8  T
   8    -71.2147966 -0.951742E-08  0.715E-04    3.01      21.3  T
   9    -71.2147966 -0.614975E-08  0.261E-04    3.01      58.4  T
     SCC iter.                  ...        0 min,  0.021 sec
     gradient                   ...        0 min,  0.071 sec
 * total energy  :   -70.3061919 Eh     change       -0.9106891E-02 Eh
   gradient norm :     0.0454532 Eh/α   predicted    -0.7228173E-02 ( -20.63%)
   displ. norm   :     0.2589450 α      lambda       -0.3923278E-02
   maximum displ.:     0.1250419 α      in ANC's #9, #11, #6, ...

........................................................................
.............................. CYCLE    3 ..............................
........................................................................

 iter      E             dE          RMSdq      gap      omega  full diag
   1    -71.2346603 -0.712347E+02  0.128E-01    3.01       0.0  T
   2    -71.2347195 -0.591825E-04  0.816E-02    3.02       1.0  T
   3    -71.2347190  0.459486E-06  0.404E-02    3.01       1.0  T
   4    -71.2347365 -0.174832E-04  0.132E-02    3.01       1.2  T
   5    -71.2347421 -0.557062E-05  0.380E-03    3.01       4.0  T
   6    -71.2347421 -0.418990E-07  0.226E-03    3.01       6.7  T
   7    -71.2347422 -0.400427E-07  0.929E-04    3.01      16.4  T
   8    -71.2347422 -0.104552E-07  0.508E-04    3.01      30.0  T
     SCC iter.                  ...        0 min,  0.018 sec
     gradient                   ...        0 min,  0.070 sec
 * total energy  :   -70.3084665 Eh     change       -0.2274589E-02 Eh
   gradient norm :     0.0120979 Eh/α   predicted    -0.2094060E-02 (  -7.94%)
   displ. norm   :     0.1881556 α      lambda       -0.5922834E-03
   maximum displ.:     0.1134049 α      in ANC's #9, #11, #6, ...

........................................................................
.............................. CYCLE    4 ..............................
........................................................................

 iter      E             dE          RMSdq      gap      omega  full diag
   1    -71.2363537 -0.712364E+02  0.567E-02    3.02       0.0  T
   2    -71.2363628 -0.910729E-05  0.331E-02    3.01       1.0  T
   3    -71.2363633 -0.460933E-06  0.158E-02    3.01       1.0  T
   4    -71.2363637 -0.457889E-06  0.513E-03    3.01       3.0  T
   5    -71.2363645 -0.764543E-06  0.160E-03    3.01       9.5  T
   6    -71.2363645 -0.184847E-07  0.797E-04    3.01      19.1  T
   7    -71.2363645 -0.749966E-08  0.293E-04    3.01      52.1  T
     SCC iter.                  ...        0 min,  0.016 sec
     gradient                   ...        0 min,  0.027 sec
 * total energy  :   -70.3089253 Eh     change       -0.4588271E-03 Eh
   gradient norm :     0.0066539 Eh/α   predicted    -0.3066445E-03 ( -33.17%)
   displ. norm   :     0.3215093 α      lambda       -0.6361136E-03
   maximum displ.:     0.1990972 α      in ANC's #9, #11, #6, ...

........................................................................
.............................. CYCLE    5 ..............................
........................................................................

 iter      E             dE          RMSdq      gap      omega  full diag
   1    -71.2355366 -0.712355E+02  0.806E-02    3.02       0.0  T
   2    -71.2355481 -0.115503E-04  0.458E-02    3.01       1.0  T
   3    -71.2355462  0.187308E-05  0.198E-02    3.01       1.0  T
   4    -71.2355500 -0.374786E-05  0.731E-03    3.01       2.1  T
   5    -71.2355515 -0.156473E-05  0.233E-03    3.01       6.6  T
   6    -71.2355516 -0.388929E-07  0.909E-04    3.01      16.8  T
   7    -71.2355516 -0.121146E-07  0.386E-04    3.01      39.5  T
     SCC iter.                  ...        0 min,  0.040 sec
     gradient                   ...        0 min,  0.027 sec
 * total energy  :   -70.3093554 Eh     change       -0.4300240E-03 Eh
   gradient norm :     0.0074951 Eh/α   predicted    -0.3509360E-03 ( -18.39%)
   displ. norm   :     0.2459342 α      lambda       -0.2689220E-03
   maximum displ.:     0.1503643 α      in ANC's #9, #6, #11, ...

........................................................................
.............................. CYCLE    6 ..............................
........................................................................

 iter      E             dE          RMSdq      gap      omega  full diag
   1    -71.2349449 -0.712349E+02  0.523E-02    3.02       0.0  T
   2    -71.2349475 -0.259358E-05  0.282E-02    3.02       1.0  T
   3    -71.2349453  0.221407E-05  0.103E-02    3.02       1.5  T
   4    -71.2349484 -0.310425E-05  0.428E-03    3.02       3.6  T
   5    -71.2349487 -0.242782E-06  0.122E-03    3.02      12.5  T
   6    -71.2349487 -0.249012E-07  0.427E-04    3.02      35.7  T
   7    -71.2349487 -0.164485E-08  0.226E-04    3.02      67.6  T
     SCC iter.                  ...        0 min,  0.016 sec
     gradient                   ...        0 min,  0.055 sec
 * total energy  :   -70.3095507 Eh     change       -0.1953721E-03 Eh
   gradient norm :     0.0070917 Eh/α   predicted    -0.1426237E-03 ( -27.00%)
   displ. norm   :     0.2336237 α      lambda       -0.1973055E-03
   maximum displ.:     0.1307783 α      in ANC's #9, #6, #11, ...

........................................................................
.............................. CYCLE    7 ..............................
........................................................................

 iter      E             dE          RMSdq      gap      omega  full diag
   1    -71.2351428 -0.712351E+02  0.467E-02    3.03       0.0  T
   2    -71.2351461 -0.332676E-05  0.239E-02    3.03       1.0  T
   3    -71.2351456  0.458588E-06  0.877E-03    3.03       1.7  T
   4    -71.2351464 -0.745122E-06  0.429E-03    3.03       3.6  T
   5    -71.2351468 -0.426951E-06  0.147E-03    3.03      10.4  T
   6    -71.2351468 -0.169167E-07  0.440E-04    3.03      34.7  T
   7    -71.2351468 -0.346452E-08  0.195E-04    3.03      78.3  T
     SCC iter.                  ...        0 min,  0.016 sec
     gradient                   ...        0 min,  0.027 sec
 * total energy  :   -70.3096867 Eh     change       -0.1359953E-03 Eh
   gradient norm :     0.0047009 Eh/α   predicted    -0.1040400E-03 ( -23.50%)
   displ. norm   :     0.1604500 α      lambda       -0.1074118E-03
   maximum displ.:     0.0680731 α      in ANC's #6, #9, #1, ...

........................................................................
.............................. CYCLE    8 ..............................
........................................................................

 iter      E             dE          RMSdq      gap      omega  full diag
   1    -71.2359700 -0.712360E+02  0.317E-02    3.04       0.0  T
   2    -71.2359718 -0.181101E-05  0.169E-02    3.04       1.0  T
   3    -71.2359717  0.441396E-07  0.642E-03    3.04       2.4  T
   4    -71.2359719 -0.141223E-06  0.257E-03    3.04       5.9  T
   5    -71.2359720 -0.141501E-06  0.969E-04    3.04      15.7  T
   6    -71.2359720 -0.163080E-07  0.321E-04    3.04      47.5  T
     SCC iter.                  ...        0 min,  0.014 sec
     gradient                   ...        0 min,  0.027 sec
 * total energy  :   -70.3097642 Eh     change       -0.7748904E-04 Eh
   gradient norm :     0.0034967 Eh/α   predicted    -0.5508871E-04 ( -28.91%)
   displ. norm   :     0.1487235 α      lambda       -0.8523713E-04
   maximum displ.:     0.0589599 α      in ANC's #1, #6, #2, ...

........................................................................
.............................. CYCLE    9 ..............................
........................................................................

 iter      E             dE          RMSdq      gap      omega  full diag
   1    -71.2367473 -0.712367E+02  0.313E-02    3.05       0.0  T
   2    -71.2367481 -0.802438E-06  0.177E-02    3.05       1.0  T
   3    -71.2367480  0.125318E-06  0.443E-03    3.05       3.4  T
   4    -71.2367482 -0.192431E-06  0.185E-03    3.05       8.2  T
   5    -71.2367482 -0.711973E-07  0.662E-04    3.05      23.0  T
   6    -71.2367483 -0.761275E-08  0.259E-04    3.05      58.9  T
     SCC iter.                  ...        0 min,  0.046 sec
     gradient                   ...        0 min,  0.028 sec
 * total energy  :   -70.3098255 Eh     change       -0.6125150E-04 Eh
   gradient norm :     0.0033295 Eh/α   predicted    -0.4356345E-04 ( -28.88%)
   displ. norm   :     0.1488703 α      lambda       -0.6468521E-04
   maximum displ.:     0.0657683 α      in ANC's #1, #6, #2, ...

........................................................................
.............................. CYCLE   10 ..............................
........................................................................

 iter      E             dE          RMSdq      gap      omega  full diag
   1    -71.2369795 -0.712370E+02  0.321E-02    3.06       0.0  T
   2    -71.2369799 -0.365072E-06  0.182E-02    3.06       1.0  T
   3    -71.2369798  0.112887E-06  0.315E-03    3.06       4.8  T
   4    -71.2369799 -0.171840E-06  0.160E-03    3.06       9.6  T
   5    -71.2369800 -0.530280E-07  0.320E-04    3.06      47.6  T
   6    -71.2369800 -0.135098E-08  0.189E-04    3.06      80.5  T
     SCC iter.                  ...        0 min,  0.014 sec
     gradient                   ...        0 min,  0.049 sec
 * total energy  :   -70.3098737 Eh     change       -0.4828717E-04 Eh
   gradient norm :     0.0033573 Eh/α   predicted    -0.3306015E-04 ( -31.53%)
   displ. norm   :     0.1820412 α      lambda       -0.6553945E-04
   maximum displ.:     0.0844945 α      in ANC's #1, #6, #17, ...

........................................................................
.............................. CYCLE   11 ..............................
........................................................................

 iter      E             dE          RMSdq      gap      omega  full diag
   1    -71.2367836 -0.712368E+02  0.396E-02    3.07       0.0  T
   2    -71.2367843 -0.706403E-06  0.222E-02    3.06       1.0  T
   3    -71.2367840  0.295168E-06  0.517E-03    3.07       3.0  T
   4    -71.2367844 -0.394838E-06  0.216E-03    3.07       7.1  T
   5    -71.2367845 -0.104834E-06  0.576E-04    3.07      26.5  T
   6    -71.2367845 -0.501937E-08  0.248E-04    3.07      61.5  T
     SCC iter.                  ...        0 min,  0.014 sec
     gradient                   ...        0 min,  0.027 sec
 * total energy  :   -70.3099239 Eh     change       -0.5010585E-04 Eh
   gradient norm :     0.0034115 Eh/α   predicted    -0.3385980E-04 ( -32.42%)
   displ. norm   :     0.2206637 α      lambda       -0.7123601E-04
   maximum displ.:     0.1060360 α      in ANC's #1, #2, #17, ...

........................................................................
.............................. CYCLE   12 ..............................
........................................................................

 iter      E             dE          RMSdq      gap      omega  full diag
   1    -71.2363358 -0.712363E+02  0.485E-02    3.07       0.0  T
   2    -71.2363372 -0.139118E-05  0.270E-02    3.07       1.0  T
   3    -71.2363367  0.471572E-06  0.743E-03    3.07       2.1  T
   4    -71.2363374 -0.655165E-06  0.293E-03    3.07       5.2  T
   5    -71.2363376 -0.179463E-06  0.896E-04    3.07      17.0  T
   6    -71.2363376 -0.133847E-07  0.355E-04    3.07      42.9  T
     SCC iter.                  ...        0 min,  0.014 sec
     gradient                   ...        0 min,  0.048 sec
 * total energy  :   -70.3099773 Eh     change       -0.5343035E-04 Eh
   gradient norm :     0.0035069 Eh/α   predicted    -0.3735667E-04 ( -30.08%)
   displ. norm   :     0.2062214 α      lambda       -0.6209333E-04
   maximum displ.:     0.1037784 α      in ANC's #1, #2, #17, ...

........................................................................
.............................. CYCLE   13 ..............................
........................................................................

 iter      E             dE          RMSdq      gap      omega  full diag
   1    -71.2361800 -0.712362E+02  0.457E-02    3.07       0.0  T
   2    -71.2361813 -0.133807E-05  0.255E-02    3.07       1.0  T
   3    -71.2361810  0.319400E-06  0.702E-03    3.07       2.2  T
   4    -71.2361815 -0.515220E-06  0.283E-03    3.06       5.4  T
   5    -71.2361817 -0.125573E-06  0.979E-04    3.06      15.6  T
   6    -71.2361817 -0.211544E-07  0.370E-04    3.06      41.2  T
     SCC iter.                  ...        0 min,  0.014 sec
     gradient                   ...        0 min,  0.027 sec
 * total energy  :   -70.3100224 Eh     change       -0.4516044E-04 Eh
   gradient norm :     0.0032303 Eh/α   predicted    -0.3236987E-04 ( -28.32%)
   displ. norm   :     0.1595682 α      lambda       -0.4429893E-04
   maximum displ.:     0.0851681 α      in ANC's #1, #2, #7, ...

........................................................................
.............................. CYCLE   14 ..............................
........................................................................

 iter      E             dE          RMSdq      gap      omega  full diag
   1    -71.2363848 -0.712364E+02  0.341E-02    3.06       0.0  T
   2    -71.2363854 -0.591922E-06  0.193E-02    3.06       1.0  T
   3    -71.2363853  0.526787E-07  0.434E-03    3.06       3.5  T
   4    -71.2363855 -0.168488E-06  0.192E-03    3.06       7.9  T
   5    -71.2363855 -0.311074E-07  0.662E-04    3.06      23.0  T
   6    -71.2363855 -0.119262E-07  0.258E-04    3.06      59.2  T
     SCC iter.                  ...        0 min,  0.014 sec
     gradient                   ...        0 min,  0.027 sec
 * total energy  :   -70.3100551 Eh     change       -0.3265730E-04 Eh
   gradient norm :     0.0024741 Eh/α   predicted    -0.2271905E-04 ( -30.43%)
   displ. norm   :     0.1392693 α      lambda       -0.3579226E-04
   maximum displ.:     0.0782716 α      in ANC's #1, #2, #7, ...

........................................................................
.............................. CYCLE   15 ..............................
........................................................................

 iter      E             dE          RMSdq      gap      omega  full diag
   1    -71.2367549 -0.712368E+02  0.279E-02    3.06       0.0  T
   2    -71.2367552 -0.258545E-06  0.164E-02    3.05       1.0  T
   3    -71.2367551  0.705375E-07  0.272E-03    3.05       5.6  T
   4    -71.2367552 -0.119832E-06  0.137E-03    3.05      11.1  T
   5    -71.2367553 -0.411275E-07  0.455E-04    3.05      33.5  T
   6    -71.2367553 -0.453254E-08  0.184E-04    3.05      82.8  T
     SCC iter.                  ...        0 min,  0.014 sec
     gradient                   ...        0 min,  0.028 sec
 * total energy  :   -70.3100822 Eh     change       -0.2706555E-04 Eh
   gradient norm :     0.0018610 Eh/α   predicted    -0.1824879E-04 ( -32.58%)
   displ. norm   :     0.2237378 α      lambda       -0.3479725E-04
   maximum displ.:     0.1287277 α      in ANC's #1, #8, #2, ...

........................................................................
.............................. CYCLE   16 ..............................
........................................................................

 iter      E             dE          RMSdq      gap      omega  full diag
   1    -71.2370532 -0.712371E+02  0.436E-02    3.05       0.0  T
   2    -71.2370538 -0.642318E-06  0.261E-02    3.05       1.0  T
   3    -71.2370526  0.122091E-05  0.607E-03    3.05       2.5  T
   4    -71.2370540 -0.147036E-05  0.181E-03    3.05       8.4  T
   5    -71.2370541 -0.866052E-07  0.680E-04    3.05      22.4  T
   6    -71.2370541 -0.330007E-08  0.276E-04    3.05      55.2  T
     SCC iter.                  ...        0 min,  0.047 sec
     gradient                   ...        0 min,  0.027 sec
 * total energy  :   -70.3101156 Eh     change       -0.3344889E-04 Eh
   gradient norm :     0.0024810 Eh/α   predicted    -0.1778827E-04 ( -46.82%)
   displ. norm   :     0.0794081 α      lambda       -0.2074931E-04
   maximum displ.:     0.0472019 α      in ANC's #1, #8, #2, ...

........................................................................
.............................. CYCLE   17 ..............................
........................................................................

 iter      E             dE          RMSdq      gap      omega  full diag
   1    -71.2373132 -0.712373E+02  0.166E-02    3.05       0.0  T
   2    -71.2373134 -0.187467E-06  0.963E-03    3.05       1.6  T
   3    -71.2373132  0.221914E-06  0.347E-03    3.05       4.4  T
   4    -71.2373135 -0.275336E-06  0.116E-03    3.05      13.1  T
   5    -71.2373135 -0.339119E-07  0.424E-04    3.05      36.0  T
   6    -71.2373135 -0.291175E-08  0.138E-04    3.05     110.7  T
     SCC iter.                  ...        0 min,  0.014 sec
     gradient                   ...        0 min,  0.054 sec
 * total energy  :   -70.3101329 Eh     change       -0.1727458E-04 Eh
   gradient norm :     0.0020534 Eh/α   predicted    -0.1044261E-04 ( -39.55%)
   displ. norm   :     0.1522756 α      lambda       -0.3242434E-04
   maximum displ.:     0.0946299 α      in ANC's #1, #8, #2, ...

........................................................................
.............................. CYCLE   18 ..............................
........................................................................

 iter      E             dE          RMSdq      gap      omega  full diag
   1    -71.2366052 -0.712366E+02  0.299E-02    3.05       0.0  T
   2    -71.2366059 -0.648089E-06  0.173E-02    3.05       1.0  T
   3    -71.2366054  0.486001E-06  0.604E-03    3.05       2.5  T
   4    -71.2366060 -0.611032E-06  0.202E-03    3.05       7.5  T
   5    -71.2366061 -0.114674E-06  0.782E-04    3.05      19.5  T
   6    -71.2366061 -0.113466E-07  0.259E-04    3.05      58.9  T
     SCC iter.                  ...        0 min,  0.015 sec
     gradient                   ...        0 min,  0.074 sec
 * total energy  :   -70.3101516 Eh     change       -0.1866851E-04 Eh
   gradient norm :     0.0014589 Eh/α   predicted    -0.1658929E-04 ( -11.14%)
   displ. norm   :     0.0983814 α      lambda       -0.1365634E-04
   maximum displ.:     0.0565685 α      in ANC's #1, #6, #8, ...

........................................................................
.............................. CYCLE   19 ..............................
........................................................................

 iter      E             dE          RMSdq      gap      omega  full diag
   1    -71.2377785 -0.712378E+02  0.233E-02    3.05       0.0  T
   2    -71.2377791 -0.612916E-06  0.125E-02    3.05       1.2  T
   3    -71.2377789  0.207099E-06  0.448E-03    3.05       3.4  T
   4    -71.2377792 -0.288238E-06  0.189E-03    3.05       8.1  T
   5    -71.2377792 -0.712158E-07  0.670E-04    3.05      22.8  T
   6    -71.2377792 -0.743267E-08  0.207E-04    3.05      73.6  T
     SCC iter.                  ...        0 min,  0.015 sec
     gradient                   ...        0 min,  0.028 sec
 * total energy  :   -70.3101550 Eh     change       -0.3419445E-05 Eh
   gradient norm :     0.0023684 Eh/α   predicted    -0.6860358E-05 ( 100.63%)
   displ. norm   :     0.0160435 α      lambda       -0.8553541E-05
   maximum displ.:     0.0083319 α      in ANC's #1, #17, #8, ...

........................................................................
.............................. CYCLE   20 ..............................
........................................................................

 iter      E             dE          RMSdq      gap      omega  full diag
   1    -71.2373943 -0.712374E+02  0.484E-03    3.05       0.0  T
   2    -71.2373943 -0.508399E-07  0.267E-03    3.05       5.7  T
   3    -71.2373943  0.161493E-07  0.108E-03    3.05      14.1  T
   4    -71.2373944 -0.248965E-07  0.384E-04    3.05      39.7  T
   5    -71.2373944 -0.268865E-08  0.150E-04    3.05     101.9  T
     SCC iter.                  ...        0 min,  0.012 sec
     gradient                   ...        0 min,  0.027 sec
 * total energy  :   -70.3101617 Eh     change       -0.6675270E-05 Eh
   gradient norm :     0.0013261 Eh/α   predicted    -0.4280146E-05 ( -35.88%)
   displ. norm   :     0.0414531 α      lambda       -0.9210766E-05
   maximum displ.:     0.0235070 α      in ANC's #1, #8, #17, ...
 * RMSD in coord.:     0.3780947 α      energy gain  -0.1307663E-01 Eh

generating ANC from exact Hessian ...
Using Lindh-Hessian (1995)
 Shifting diagonal of input Hessian by    9.8215391605365604E-003
 Lowest  eigenvalues of input Hessian
    0.000000    0.000000    0.000000    0.000000    0.000000    0.000000
    0.010000    0.010107    0.010437    0.010932    0.011550    0.012277
    0.012686    0.013133    0.014358    0.014993    0.015723    0.015894
 Highest eigenvalues
    2.057420    2.083068    2.143868    2.150127    2.251374    2.449072


........................................................................
.............................. CYCLE   21 ..............................
........................................................................

 iter      E             dE          RMSdq      gap      omega  full diag
   1    -71.2366298 -0.712366E+02  0.115E-02    3.05       0.0  T
   2    -71.2366300 -0.198567E-06  0.660E-03    3.05       2.3  T
   3    -71.2366299  0.154787E-06  0.264E-03    3.05       5.8  T
   4    -71.2366301 -0.211668E-06  0.781E-04    3.05      19.5  T
   5    -71.2366301 -0.742369E-08  0.343E-04    3.05      44.5  T
     SCC iter.                  ...        0 min,  0.012 sec
     gradient                   ...        0 min,  0.027 sec
 * total energy  :   -70.3101685 Eh     change       -0.6867123E-05 Eh
   gradient norm :     0.0009228 Eh/α   predicted     0.0000000E+00 (-100.00%)
   displ. norm   :     0.0220704 α      lambda       -0.9361291E-06
   maximum displ.:     0.0190884 α      in ANC's #1, #7, #17, ...

........................................................................
.............................. CYCLE   22 ..............................
........................................................................

 iter      E             dE          RMSdq      gap      omega  full diag
   1    -71.2370020 -0.712370E+02  0.422E-03    3.05       0.0  T
   2    -71.2370020 -0.325336E-07  0.241E-03    3.05       6.3  T
   3    -71.2370020  0.761726E-08  0.750E-04    3.05      20.3  T
   4    -71.2370020 -0.102879E-07  0.276E-04    3.05      55.2  T
     SCC iter.                  ...        0 min,  0.009 sec
     gradient                   ...        0 min,  0.028 sec
 * total energy  :   -70.3101729 Eh     change       -0.4397059E-05 Eh
   gradient norm :     0.0003243 Eh/α   predicted    -0.1955554E-05 ( -55.53%)
   displ. norm   :     0.0358723 α      lambda       -0.3740130E-05
   maximum displ.:     0.0293987 α      in ANC's #1, #7, #3, ...

   *** GEOMETRY OPTIMIZATION CONVERGED AFTER 22 ITERATIONS ***

------------------------------------------------------------------------
 total energy gain   :        -0.0130879 Eh       -8.2128 kcal/mol
 total RMSD          :         0.3785333 a0        0.2003 Å
 total power (kW/mol):        -1.5619214 (step)  -20.0268 (real)
------------------------------------------------------------------------

 ANCopt (total)                0 d,  0 h,  0 min,  1.716 sec
 optimizer setup                ...        0 min,  0.000 sec (  0.004%)
 model hessian                  ...        0 min,  0.021 sec (  1.233%)
 ANC generation                 ...        0 min,  0.003 sec (  0.181%)
 coordinate transformation      ...        0 min,  0.000 sec (  0.011%)
 single point calculation       ...        0 min,  1.658 sec ( 96.609%)
 optimization log               ...        0 min,  0.030 sec (  1.763%)
 hessian update                 ...        0 min,  0.000 sec (  0.017%)
 rational function              ...        0 min,  0.002 sec (  0.138%)

================
 final structure:
================
43
 xtb: 6.7.1 (edcfbbe)
C           -3.63085719089431        2.56087525240628       -2.54148362932500
C           -3.11608096176574        1.27388955415247       -1.97628666708534
C           -2.75060099308519        1.14709211946633       -0.63366070494525
O           -2.86472519933661        2.22823375695421        0.22262405383137
C           -4.16074174349691        2.40075966919592        0.75547387230670
C           -2.23543095684483       -0.06102872992207       -0.15330016455709
C           -1.77282421862992       -0.18039418722697        1.26518436525342
C           -2.96186005804259        0.14732156292910       -2.77380993219714
N           -2.51862132420527       -1.00990690315979       -2.33044463927684
C           -2.16181616770994       -1.12311414549366       -1.05661840634091
C           -1.66971499644081       -2.48163047818589       -0.69537615749725
S           -0.33357912376058       -2.88625194222868       -1.92923342127017
C            0.94315373732141       -1.98635267402659       -1.02521669239286
N            0.95111359426270       -0.74103714749055       -0.65166399128037
C            2.14641998011586       -0.57226002623174        0.00621286908836
C            2.86514923191142       -1.79588733513073        0.00070863469367
N            2.06153258263558       -2.67631531502228       -0.67723048555718
C            4.10323775410898       -1.90549170397040        0.60504367725893
C            4.61827622642333       -0.78010083087105        1.21900658946769
C            3.91592014244560        0.43433838586764        1.23590138926144
O            4.38068903785051        1.57099819875580        1.83344819340876
C            5.63607728458755        1.54570056530243        2.46540916677251
C            2.67108438404016        0.54890894751805        0.62950646227733
O            0.06800097393616       -4.27998893623378       -1.68110624279765
H           -3.32048083888931        3.39711472483620       -1.91994560573404
H           -4.72032156816716        2.54799556834734       -2.59438480198517
H           -3.25005629995098        2.70570235233057       -3.54980701674834
H           -4.11514503740750        3.29076346981908        1.38083398547018
H           -4.90829289152023        2.54599767194164       -0.03077456759923
H           -4.45657636714755        1.54017417613470        1.36656012582772
H           -1.91565820600148        0.76494238861422        1.78082826058953
H           -2.31640218185745       -0.96274706565951        1.79378939940434
H           -0.71027998594411       -0.41647583603428        1.27750981224671
H           -3.21406833450800        0.17921286747427       -3.82584427637494
H           -1.27833630334273       -2.56736230734483        0.31283672912272
H           -2.43494334749621       -3.23736189569731       -0.87271538095593
H            2.19276004667512       -3.65791037533155       -0.86579472150708
H            4.65343994577418       -2.83383447044237        0.60105233862429
H            5.58379145605997       -0.85295551030742        1.69301400591157
H            6.44026563850591        1.31006715463841        1.76037774785567
H            5.65813033679508        0.83118759396646        3.29520034841435
H            5.78685767093691        2.55101572733337        2.85602262031483
H            2.14151427205462        1.48581610803081        0.64795285802441

 Bond Distances (Angstroems)
 ---------------------------
C1-C2=1.4969         C1-H25=1.0872        C1-H26=1.0908        C1-H27=1.0875        C2-C1=1.4969         C2-C3=1.3972         
C2-C8=1.3889         C3-C2=1.3972         C3-O4=1.3839         C3-C6=1.3985         O4-C3=1.3839         O4-C5=1.4119         
C5-O4=1.4119         C5-H28=1.0887        C5-H29=1.0946        C5-H30=1.0962        C6-C3=1.3985         C6-C7=1.4968         
C6-C10=1.3962        C7-C6=1.4968         C7-H31=1.0863        C7-H32=1.0895        C7-H33=1.0885        C8-C2=1.3889         
C8-N9=1.3161         C8-H34=1.0823        N9-C8=1.3161         N9-C10=1.3277        C10-C6=1.3962        C10-N9=1.3277        
C10-C11=1.4894       C11-C10=1.4894       C11-S12=1.8632       C11-H35=1.0849       C11-H36=1.0900       S12-C11=1.8632       
S12-C13=1.8047       S12-O24=1.4715       C13-S12=1.8047       C13-N14=1.3002       C13-N17=1.3594       N14-C13=1.3002       
N14-C15=1.3748       C15-N14=1.3748       C15-C16=1.4191       C15-C23=1.3859       C16-C15=1.4191       C16-N17=1.3713       
C16-C18=1.3821       N17-C13=1.3594       N17-C16=1.3713       N17-H37=1.0081       C18-C16=1.3821       C18-C19=1.3816       
C18-H38=1.0791       C19-C18=1.3816       C19-C20=1.4030       C19-H39=1.0781       C20-C19=1.4030       C20-O21=1.3657       
C20-C23=1.3894       O21-C20=1.3657       O21-C22=1.4057       C22-O21=1.4057       C22-H40=1.0951       C22-H41=1.0952       
C22-H42=1.0890       C23-C15=1.3859       C23-C20=1.3894       C23-H43=1.0764       O24-S12=1.4715       H25-C1=1.0872        
H26-C1=1.0908        H27-C1=1.0875        H28-C5=1.0887        H29-C5=1.0946        H30-C5=1.0962        H31-C7=1.0863        
H32-C7=1.0895        H33-C7=1.0885        H34-C8=1.0823        H35-C11=1.0849       H36-C11=1.0900       H37-N17=1.0081       
H38-C18=1.0791       H39-C19=1.0781       H40-C22=1.0951       H41-C22=1.0952       H42-C22=1.0890       H43-C23=1.0764       
 C  H  Rav=1.0877 sigma=0.0057  Rmin=1.0764  Rmax=1.0962    18
 C  C  Rav=1.4173 sigma=0.0433  Rmin=1.3816  Rmax=1.4969    13
 N  H  Rav=1.0081 sigma=0.0000  Rmin=1.0081  Rmax=1.0081     1
 N  C  Rav=1.3416 sigma=0.0285  Rmin=1.3002  Rmax=1.3748     6
 O  C  Rav=1.3918 sigma=0.0183  Rmin=1.3657  Rmax=1.4119     4
 S  C  Rav=1.8340 sigma=0.0292  Rmin=1.8047  Rmax=1.8632     2
 S  O  Rav=1.4715 sigma=0.0000  Rmin=1.4715  Rmax=1.4715     1

 selected bond angles (degree)
 --------------------
H25-C1-C2=110.32               H26-C1-C2=110.59               H26-C1-H25=108.78              H27-C1-C2=110.13               
H27-C1-H25=109.13              H27-C1-H26=107.84              C3-C2-C1=122.06                C8-C2-C1=121.25                
C8-C2-C3=116.69                O4-C3-C2=120.14                C6-C3-C2=120.32                C6-C3-O4=119.52                
C5-O4-C3=113.87                H28-C5-O4=106.16               H29-C5-O4=111.84               H29-C5-H28=109.43              
H30-C5-O4=111.24               H30-C5-H28=109.44              H30-C5-H29=108.68              C7-C6-C3=120.55                
C10-C6-C3=117.02               C10-C6-C7=122.42               H31-C7-C6=109.87               H32-C7-C6=111.28               
H32-C7-H31=109.21              H33-C7-C6=109.25               H33-C7-H31=108.16              H33-C7-H32=109.01              
N9-C8-C2=123.86                H34-C8-C2=120.56               H34-C8-N9=115.58               C10-N9-C8=119.25               
N9-C10-C6=122.80               C11-C10-C6=123.67              C11-C10-N9=113.53              

 selected dihedral angles (degree)
 ---------------------------------
C3-C2-C1-H25= 21.68           C3-C2-C1-H26=261.29           C3-C2-C1-H27=142.20           C8-C2-C1-H25=202.56           
C8-C2-C1-H26= 82.18           C8-C2-C1-H27=323.09           O4-C3-C2-C1=  0.32            O4-C3-C2-C8=179.48            
C6-C3-C2-C1=181.96            C6-C3-C2-C8=  1.11            C5-O4-C3-C2= 83.34            C5-O4-C3-C6=261.71            
H28-C5-O4-C3=181.54           H29-C5-O4-C3=300.83           H30-C5-O4-C3= 62.56           C7-C6-C3-C2=176.65            
C7-C6-C3-O4=358.28            C10-C6-C3-C2=357.45           C10-C6-C3-O4=179.08           H31-C7-C6-C3=  0.38           
H31-C7-C6-C10=179.54          H32-C7-C6-C3=121.46           H32-C7-C6-C10=300.62          H33-C7-C6-C3=241.88           
H33-C7-C6-C10= 61.04          N9-C8-C2-C1=180.23            N9-C8-C2-C3=  1.08            H34-C8-C2-C1=359.92           
H34-C8-C2-C3=180.76           C10-N9-C8-C2=358.34           C10-N9-C8-H34=178.64          N9-C10-C6-C3=  2.04           
N9-C10-C6-C7=182.85           C11-C10-C6-C3=181.53          C11-C10-C6-C7=  2.34          C6-C10-N9-C8=  0.03           
C11-C10-N9-C8=180.48          
           -------------------------------------------------
          |                Final Singlepoint                |
           -------------------------------------------------

          ...................................................
          :                      SETUP                      :
          :.................................................:
          :  # basis functions                 121          :
          :  # atomic orbitals                 120          :
          :  # shells                           68          :
          :  # electrons                       126          :
          :  max. iterations                   250          :
          :  Hamiltonian                  GFN2-xTB          :
          :  restarted?                      false          :
          :  GBSA solvation                  false          :
          :  PC potential                    false          :
          :  electronic temp.          300.0000000     K    :
          :  accuracy                    1.0000000          :
          :  -> integral cutoff          0.2500000E+02      :
          :  -> integral neglect         0.1000000E-07      :
          :  -> SCF convergence          0.1000000E-05 Eh   :
          :  -> wf. convergence          0.1000000E-03 e    :
          :  Broyden damping             0.4000000          :
          :  net charge                          0          :
          :  unpaired electrons                  0          :
          ...................................................

 iter      E             dE          RMSdq      gap      omega  full diag
   1    -71.2370020 -0.712370E+02  0.102E-04    3.05       0.0  T
   2    -71.2370020 -0.315623E-10  0.596E-05    3.05     255.8  T
   3    -71.2370020  0.228795E-11  0.378E-05    3.05     404.0  T

   *** convergence criteria satisfied after 3 iterations ***

         #    Occupation            Energy/Eh            Energy/eV
      -------------------------------------------------------------
         1        2.0000           -0.7551657             -20.5491
       ...           ...                  ...                  ...
        57        2.0000           -0.4043399             -11.0027
        58        2.0000           -0.3999257             -10.8825
        59        2.0000           -0.3970617             -10.8046
        60        2.0000           -0.3866648             -10.5217
        61        2.0000           -0.3834264             -10.4336
        62        2.0000           -0.3737896             -10.1713
        63        2.0000           -0.3690374             -10.0420 (HOMO)
        64                         -0.2569551              -6.9921 (LUMO)
        65                         -0.2422396              -6.5917
        66                         -0.2315079              -6.2997
        67                         -0.2043659              -5.5611
        68                         -0.2015748              -5.4851
       ...                                ...                  ...
       120                          0.8976221              24.4255
      -------------------------------------------------------------
                  HL-Gap            0.1120823 Eh            3.0499 eV
             Fermi-level           -0.3129962 Eh           -8.5171 eV

 SCC (total)                   0 d,  0 h,  0 min,  0.068 sec
 SCC setup                      ...        0 min,  0.000 sec (  0.493%)
 Dispersion                     ...        0 min,  0.000 sec (  0.501%)
 classical contributions        ...        0 min,  0.000 sec (  0.214%)
 integral evaluation            ...        0 min,  0.008 sec ( 12.186%)
 iterations                     ...        0 min,  0.007 sec ( 10.394%)
 molecular gradient             ...        0 min,  0.052 sec ( 75.973%)
 printout                       ...        0 min,  0.000 sec (  0.229%)

         :::::::::::::::::::::::::::::::::::::::::::::::::::::
         ::                     SUMMARY                     ::
         :::::::::::::::::::::::::::::::::::::::::::::::::::::
         :: total energy             -70.310172920168 Eh    ::
         :: gradient norm              0.000326097792 Eh/a0 ::
         :: HOMO-LUMO gap              3.049913267749 eV    ::
         ::.................................................::
         :: SCC energy               -71.236605066988 Eh    ::
         :: -> isotropic ES            0.091601682330 Eh    ::
         :: -> anisotropic ES          0.008083033059 Eh    ::
         :: -> anisotropic XC          0.029023755828 Eh    ::
         :: -> dispersion             -0.049105433512 Eh    ::
         :: repulsion energy           0.926432146820 Eh    ::
         :: add. restraining           0.000000000000 Eh    ::
         :: total charge               0.000000000000 e     ::
         :::::::::::::::::::::::::::::::::::::::::::::::::::::

           -------------------------------------------------
          |                Property Printout                |
           -------------------------------------------------

    * Orbital Energies and Occupations

         #    Occupation            Energy/Eh            Energy/eV
      -------------------------------------------------------------
         1        2.0000           -0.7551657             -20.5491
       ...           ...                  ...                  ...
        51        2.0000           -0.4518966             -12.2967
        52        2.0000           -0.4460272             -12.1370
        53        2.0000           -0.4404303             -11.9847
        54        2.0000           -0.4340510             -11.8111
        55        2.0000           -0.4183822             -11.3848
        56        2.0000           -0.4144729             -11.2784
        57        2.0000           -0.4043399             -11.0027
        58        2.0000           -0.3999257             -10.8825
        59        2.0000           -0.3970617             -10.8046
        60        2.0000           -0.3866648             -10.5217
        61        2.0000           -0.3834264             -10.4336
        62        2.0000           -0.3737896             -10.1713
        63        2.0000           -0.3690374             -10.0420 (HOMO)
        64                         -0.2569551              -6.9921 (LUMO)
        65                         -0.2422396              -6.5917
        66                         -0.2315079              -6.2997
        67                         -0.2043659              -5.5611
        68                         -0.2015748              -5.4851
        69                         -0.1797060              -4.8900
        70                         -0.1631039              -4.4383
        71                         -0.1146735              -3.1204
        72                         -0.0827358              -2.2514
        73                         -0.0411347              -1.1193
        74                          0.0018153               0.0494
       ...                                ...                  ...
       120                          0.8976221              24.4255
      -------------------------------------------------------------
                  HL-Gap            0.1120823 Eh            3.0499 eV
             Fermi-level           -0.3129962 Eh           -8.5171 eV

     #   Z          covCN         q      C6AA      α(0)
     1   6 C        3.757    -0.104    22.547     6.770
     2   6 C        2.957    -0.015    28.380     8.738
     3   6 C        2.896     0.138    24.995     8.197
     4   8 O        1.703    -0.303    19.053     5.893
     5   6 C        3.656     0.045    20.104     6.436
     6   6 C        2.959    -0.011    28.287     8.724
     7   6 C        3.757    -0.109    22.634     6.783
     8   6 C        2.910     0.042    27.047     8.528
     9   7 N        1.849    -0.246    27.278     7.741
    10   6 C        3.028     0.078    26.238     8.402
    11   6 C        3.805    -0.086    22.146     6.700
    12  16 S        2.905     0.442   124.314    18.766
    13   6 C        3.199     0.105    25.172     8.177
    14   7 N        1.891    -0.291    28.388     7.899
    15   6 C        3.218     0.068    25.802     8.261
    16   6 C        3.095     0.034    27.138     8.538
    17   7 N        2.804    -0.112    23.432     7.189
    18   6 C        2.907    -0.053    29.312     8.878
    19   6 C        2.924    -0.069    29.725     8.941
    20   6 C        2.866     0.136    25.020     8.199
    21   8 O        1.706    -0.269    18.462     5.801
    22   6 C        3.642     0.038    20.288     6.476
    23   6 C        2.911    -0.069    29.709     8.938
    24   8 O        0.859    -0.496    23.698     6.527
    25   1 H        0.925     0.059     2.206     2.323
    26   1 H        0.924     0.046     2.371     2.408
    27   1 H        0.925     0.048     2.344     2.394
    28   1 H        0.925     0.058     2.220     2.330
    29   1 H        0.924     0.034     2.532     2.488
    30   1 H        0.924     0.031     2.578     2.511
    31   1 H        0.925     0.063     2.168     2.302
    32   1 H        0.925     0.041     2.432     2.439
    33   1 H        0.925     0.062     2.178     2.308
    34   1 H        0.925     0.044     2.392     2.418
    35   1 H        0.925     0.065     2.144     2.290
    36   1 H        0.925     0.080     1.984     2.203
    37   1 H        0.860     0.191     1.150     1.680
    38   1 H        0.926     0.037     2.484     2.465
    39   1 H        0.926     0.041     2.429     2.437
    40   1 H        0.924     0.039     2.457     2.451
    41   1 H        0.924     0.039     2.463     2.454
    42   1 H        0.925     0.063     2.168     2.303
    43   1 H        0.926     0.066     2.135     2.285

 Mol. C6AA /au·bohr⁶  :      23706.184914
 Mol. C8AA /au·bohr⁸  :     592442.028017
 Mol. α(0) /au        :        239.990531


Wiberg/Mayer (AO) data.
largest (>0.10) Wiberg bond orders for each atom

 ---------------------------------------------------------------------------
     #   Z sym  total        # sym  WBO       # sym  WBO       # sym  WBO
 ---------------------------------------------------------------------------
     1   6 C    3.995 --     2 C    1.027    25 H    0.980    27 H    0.978
                            26 H    0.966
     2   6 C    3.985 --     8 C    1.394     3 C    1.368     1 C    1.027
     3   6 C    3.943 --     6 C    1.372     2 C    1.368     4 O    1.003
     4   8 O    2.110 --     3 C    1.003     5 C    0.972
     5   6 C    3.949 --    28 H    0.980    30 H    0.980    29 H    0.978
                             4 O    0.972
     6   6 C    3.987 --     3 C    1.372    10 C    1.365     7 C    1.027
                             8 C    0.102
     7   6 C    3.993 --     6 C    1.027    31 H    0.981    32 H    0.972
                            33 H    0.964
     8   6 C    3.982 --     9 N    1.445     2 C    1.394    34 H    0.961
                             6 C    0.102
     9   7 N    3.065 --     8 C    1.445    10 C    1.396
    10   6 C    3.982 --     9 N    1.396     6 C    1.365    11 C    1.027
    11   6 C    3.983 --    10 C    1.027    35 H    0.969    36 H    0.953
                            12 S    0.885
    12  16 S    3.764 --    24 O    1.802    13 C    0.930    11 C    0.885
    13   6 C    3.949 --    14 N    1.550    17 N    1.232    12 S    0.930
    14   7 N    3.015 --    13 C    1.550    15 C    1.199    17 N    0.125
    15   6 C    3.977 --    23 C    1.353    16 C    1.236    14 N    1.199
    16   6 C    3.952 --    18 C    1.355    15 C    1.236    17 N    1.150
    17   7 N    3.563 --    13 C    1.232    16 C    1.150    37 H    0.929
                            14 N    0.125
    18   6 C    3.988 --    19 C    1.474    16 C    1.355    38 H    0.968
                            23 C    0.115
    19   6 C    3.981 --    18 C    1.474    20 C    1.328    39 H    0.966
    20   6 C    3.934 --    23 C    1.403    19 C    1.328    21 O    1.056
    21   8 O    2.222 --    20 C    1.056    22 C    0.987
    22   6 C    3.948 --    21 O    0.987    42 H    0.979    40 H    0.976
                            41 H    0.976
    23   6 C    3.983 --    20 C    1.403    15 C    1.353    43 H    0.964
                            18 C    0.115
    24   8 O    1.978 --    12 S    1.802
    25   1 H    0.996 --     1 C    0.980
    26   1 H    0.997 --     1 C    0.966
    27   1 H    0.997 --     1 C    0.978
    28   1 H    0.996 --     5 C    0.980
    29   1 H    0.999 --     5 C    0.978
    30   1 H    0.999 --     5 C    0.980
    31   1 H    0.996 --     7 C    0.981
    32   1 H    0.998 --     7 C    0.972
    33   1 H    0.996 --     7 C    0.964
    34   1 H    0.997 --     8 C    0.961
    35   1 H    0.995 --    11 C    0.969
    36   1 H    0.993 --    11 C    0.953
    37   1 H    0.963 --    17 N    0.929
    38   1 H    0.999 --    18 C    0.968
    39   1 H    0.998 --    19 C    0.966
    40   1 H    0.998 --    22 C    0.976
    41   1 H    0.998 --    22 C    0.976
    42   1 H    0.996 --    22 C    0.979
    43   1 H    0.995 --    23 C    0.964
 ---------------------------------------------------------------------------

Topologies differ in total number of bonds
Writing topology from bond orders to xtbtopo.mol

molecular dipole:
                 x           y           z       tot (Debye)
 q only:       -0.135       0.778       0.619
   full:        0.065       0.598       1.120       3.231
molecular quadrupole (traceless):
                xx          xy          yy          xz          yz          zz
 q only:       22.176      -7.366     -20.474       5.804      -6.836      -1.702
  q+dip:       27.454     -13.817     -20.324       6.661     -11.741      -7.131
   full:       29.697     -12.275     -22.739       4.560     -12.361      -6.958

           -------------------------------------------------
          |                Geometry Summary                 |
           -------------------------------------------------

      molecular mass/u    :      345.4164963
   center of mass at/Å    :        0.1350482      -0.4733352      -0.3881622
  moments of inertia/u·Å² :        0.1657884E+04   0.3613726E+04   0.4814858E+04
rotational constants/cm⁻¹ :        0.1016816E-01   0.4664890E-02   0.3501169E-02

 * 42 selected distances

     #   Z          #   Z                                           value/Å
     2   6 C        3   6 C                                       1.3972466
     3   6 C        4   8 O                                       1.3838770
     4   8 O        5   6 C                                       1.4118617
     3   6 C        6   6 C                                       1.3984644
     2   6 C        8   6 C                                       1.3888784
     8   6 C        9   7 N                                       1.3161350
     6   6 C       10   6 C                                       1.3962195
     9   7 N       10   6 C                                       1.3276895
    10   6 C       11   6 C                                       1.4893712
    12  16 S       13   6 C                                       1.8047472 (max)
    13   6 C       14   7 N                                       1.3001600
    14   7 N       15   6 C                                       1.3747892
    15   6 C       16   6 C                                       1.4191075
    13   6 C       17   7 N                                       1.3593802
    16   6 C       17   7 N                                       1.3713333
    16   6 C       18   6 C                                       1.3820628
    18   6 C       19   6 C                                       1.3815644
    19   6 C       20   6 C                                       1.4030155
    20   6 C       21   8 O                                       1.3656750
    21   8 O       22   6 C                                       1.4057079
    15   6 C       23   6 C                                       1.3859249
    20   6 C       23   6 C                                       1.3894091
    12  16 S       24   8 O                                       1.4715084
     1   6 C       25   1 H                                       1.0871705
     1   6 C       26   1 H                                       1.0908241
     1   6 C       27   1 H                                       1.0875203
     5   6 C       28   1 H                                       1.0886971
     5   6 C       29   1 H                                       1.0945838
     5   6 C       30   1 H                                       1.0961533
     7   6 C       31   1 H                                       1.0862558
     7   6 C       32   1 H                                       1.0894845
     7   6 C       33   1 H                                       1.0885251
     8   6 C       34   1 H                                       1.0823135
    11   6 C       35   1 H                                       1.0849058
    11   6 C       36   1 H                                       1.0900247
    17   7 N       37   1 H                                       1.0081201 (min)
    18   6 C       38   1 H                                       1.0791473
    19   6 C       39   1 H                                       1.0780588
    22   6 C       40   1 H                                       1.0951308
    22   6 C       41   1 H                                       1.0952483
    22   6 C       42   1 H                                       1.0890236
    23   6 C       43   1 H                                       1.0763735

 * 7 distinct bonds (by element types)

   Z      Z             #   av. dist./Å        max./Å        min./Å
   1 H    6 C          18     1.0877467     1.0961533     1.0763735
   6 C    6 C          11     1.4028422     1.4893712     1.3815644
   1 H    7 N           1     1.0081201     1.0081201     1.0081201
   6 C    7 N           6     1.3415812     1.3747892     1.3001600
   6 C    8 O           4     1.3917804     1.4118617     1.3656750
   6 C   16 S           1     1.8047472     1.8047472     1.8047472
   8 O   16 S           1     1.4715084     1.4715084     1.4715084


optimized geometry written to: xtbopt.xyz


           -------------------------------------------------
          | TOTAL ENERGY              -70.310172920168 Eh   |
          | GRADIENT NORM               0.000326097792 Eh/α |
          | HOMO-LUMO GAP               3.049913267749 eV   |
           -------------------------------------------------

------------------------------------------------------------------------
 * finished run on 2025/05/15 at 16:29:28.197     
------------------------------------------------------------------------
 total:
 * wall-time:     0 d,  0 h,  0 min,  1.887 sec
 *  cpu-time:     0 d,  0 h,  0 min,  1.264 sec
 * ratio c/w:     0.669 speedup
 SCF:
 * wall-time:     0 d,  0 h,  0 min,  0.088 sec
 *  cpu-time:     0 d,  0 h,  0 min,  0.068 sec
 * ratio c/w:     0.778 speedup
 ANC optimizer:
 * wall-time:     0 d,  0 h,  0 min,  1.786 sec
 *  cpu-time:     0 d,  0 h,  0 min,  1.182 sec
 * ratio c/w:     0.662 speedup



----- Single-point -----
      -----------------------------------------------------------      
     |                   =====================                   |     
     |                           x T B                           |     
     |                   =====================                   |     
     |                         S. Grimme                         |     
     |          Mulliken Center for Theoretical Chemistry        |     
     |                    University of Bonn                     |     
      -----------------------------------------------------------      

   * xtb version 6.7.1 (edcfbbe) compiled by 'conda@3ef47c1a292c' on 2024-11-25

   xtb is free software: you can redistribute it and/or modify it under
   the terms of the GNU Lesser General Public License as published by
   the Free Software Foundation, either version 3 of the License, or
   (at your option) any later version.
   
   xtb is distributed in the hope that it will be useful,
   but WITHOUT ANY WARRANTY; without even the implied warranty of
   MERCHANTABILITY or FITNESS FOR A PARTICULAR PURPOSE.  See the
   GNU Lesser General Public License for more details.
   
   Cite this work as:
   * C. Bannwarth, E. Caldeweyher, S. Ehlert, A. Hansen, P. Pracht,
     J. Seibert, S. Spicher, S. Grimme, WIREs Comput. Mol. Sci., 2020, 11,
     e01493. DOI: 10.1002/wcms.1493
   
   for GFN2-xTB:
   * C. Bannwarth, S. Ehlert and S. Grimme., J. Chem. Theory Comput., 2019,
     15, 1652-1671. DOI: 10.1021/acs.jctc.8b01176
   for GFN1-xTB:
   * S. Grimme, C. Bannwarth, P. Shushkov, J. Chem. Theory Comput., 2017,
     13, 1989-2009. DOI: 10.1021/acs.jctc.7b00118
   for GFN0-xTB:
   * P. Pracht, E. Caldeweyher, S. Ehlert, S. Grimme, ChemRxiv, 2019, preprint.
     DOI: 10.26434/chemrxiv.8326202.v1
   for GFN-FF:
   * S. Spicher and S. Grimme, Angew. Chem. Int. Ed., 2020, 59, 15665-15673.
     DOI: 10.1002/anie.202004239
   
   for ALPB and GBSA implicit solvation:
   * S. Ehlert, M. Stahn, S. Spicher, S. Grimme, J. Chem. Theory Comput.,
     2021, 17, 4250-4261. DOI: 10.1021/acs.jctc.1c00471
   
   for ddCOSMO and CPCM-X implicit solvation:
   * M. Stahn, S. Ehlert, S. Grimme, J. Phys. Chem. A,
     2023, XX, XXXX-XXXX. DOI: 10.1021/acs.jpca.3c04382
   
   for DFT-D4:
   * E. Caldeweyher, C. Bannwarth and S. Grimme, J. Chem. Phys., 2017,
     147, 034112. DOI: 10.1063/1.4993215
   * E. Caldeweyher, S. Ehlert, A. Hansen, H. Neugebauer, S. Spicher,
     C. Bannwarth and S. Grimme, J. Chem. Phys., 2019, 150, 154122.
     DOI: 10.1063/1.5090222
   * E. Caldeweyher, J.-M. Mewes, S. Ehlert and S. Grimme, Phys. Chem. Chem. Phys.
     2020, 22, 8499-8512. DOI: 10.1039/D0CP00502A
   
   for sTDA-xTB:
   * S. Grimme and C. Bannwarth, J. Chem. Phys., 2016, 145, 054103.
     DOI: 10.1063/1.4959605
   
   in the mass-spec context:
   * V. Asgeirsson, C. Bauer and S. Grimme, Chem. Sci., 2017, 8, 4879.
     DOI: 10.1039/c7sc00601b
   * J. Koopman and S. Grimme, ACS Omega 2019, 4, 12, 15120-15133.
     DOI: 10.1021/acsomega.9b02011
   
   for metadynamics refer to:
   * S. Grimme, J. Chem. Theory Comput., 2019, 155, 2847-2862
     DOI: 10.1021/acs.jctc.9b00143
   
   for SPH calculations refer to:
   * S. Spicher and S. Grimme, J. Chem. Theory Comput., 2021, 17, 1701-1714
     DOI: 10.1021/acs.jctc.0c01306
   
   for ONIOM refer to:
   * C. Plett, A. Katbashev, S. Ehlert, S. Grimme, M. Bursch,
     Phys. Chem. Chem. Phys., 2023, 25, 17860-17868. DOI: 10.1039/D3CP02178E
   
   for DIPRO refer to:
   * J. Kohn, N. Gildemeister, S. Grimme, D. Fazzi, A. Hansen,
     J. Chem. Phys., 2023, just accepted.
   
   for PTB refer to:
   * S. Grimme, M. Mueller, A. Hansen, J. Chem. Phys., 2023, 158, 124111.
     DOI: 10.1063/5.0137838
   
   with help from (in alphabetical order)
   P. Atkinson, C. Bannwarth, F. Bohle, G. Brandenburg, E. Caldeweyher
   M. Checinski, S. Dohm, S. Ehlert, S. Ehrlich, I. Gerasimov, C. Hölzer
   A. Katbashev, J. Kohn, J. Koopman, C. Lavigne, S. Lehtola, F. März, M. Müller,
   F. Musil, H. Neugebauer, J. Pisarek, C. Plett, P. Pracht, F. Pultar,
   J. Seibert, P. Shushkov, S. Spicher, M. Stahn, M. Steiner, T. Strunk,
   J. Stückrath, T. Rose, and J. Unsleber
   
 * started run on 2025/05/15 at 16:29:28.212     
   ID    Z sym.   atoms
    1    6 C      1-3, 5-8, 10, 11, 13, 15, 16, 18-20, 22, 23
    2    8 O      4, 21, 24
    3    7 N      9, 14, 17
    4   16 S      12
    5    1 H      25-43

           -------------------------------------------------
          |                Calculation Setup                |
           -------------------------------------------------

          program call               : xtb /rds/general/user/hgt20/home/callum/QDESCP/Omeprazole_rdkit_conf_11/Omeprazole_rdkit_conf_11.xyz --acc 1 --gfn 2 --chrg 0 --uhf 0 --etemp 300 --input /rds/general/user/hgt20/home/callum/QDESCP/Omeprazole_rdkit_conf_11/Omeprazole_rdkit_conf_11_xtb.inp -P 1
          hostname                   : login-c
          coordinate file            : /rds/general/user/hgt20/home/callum/QDESCP/Omeprazole_rdkit_conf_11/Omeprazole_rdkit_conf_11.xyz
          omp threads                :                     1


           -------------------------------------------------
          |                 G F N 2 - x T B                 |
           -------------------------------------------------

        Reference                      10.1021/acs.jctc.8b01176
      * Hamiltonian:
        H0-scaling (s, p, d)           1.850000    2.230000    2.230000
        zeta-weighting                 0.500000
      * Dispersion:
        s8                             2.700000
        a1                             0.520000
        a2                             5.000000
        s9                             5.000000
      * Repulsion:
        kExp                           1.500000    1.000000
        rExp                           1.000000
      * Coulomb:
        alpha                          2.000000
        third order                    shell-resolved
        anisotropic                    true
        a3                             3.000000
        a5                             4.000000
        cn-shift                       1.200000
        cn-exp                         4.000000
        max-rad                        5.000000

q/qsh data taken from xtbrestart
CAMM data taken from xtbrestart

          ...................................................
          :                      SETUP                      :
          :.................................................:
          :  # basis functions                 121          :
          :  # atomic orbitals                 120          :
          :  # shells                           68          :
          :  # electrons                       126          :
          :  max. iterations                   250          :
          :  Hamiltonian                  GFN2-xTB          :
          :  restarted?                       true          :
          :  GBSA solvation                  false          :
          :  PC potential                    false          :
          :  electronic temp.          300.0000000     K    :
          :  accuracy                    1.0000000          :
          :  -> integral cutoff          0.2500000E+02      :
          :  -> integral neglect         0.1000000E-07      :
          :  -> SCF convergence          0.1000000E-05 Eh   :
          :  -> wf. convergence          0.1000000E-03 e    :
          :  Broyden damping             0.4000000          :
          :  net charge                          0          :
          :  unpaired electrons                  0          :
          ...................................................

 iter      E             dE          RMSdq      gap      omega  full diag
   1    -71.2370020 -0.712370E+02  0.877E-06    3.05       0.0  T
   2    -71.2370020 -0.113687E-12  0.567E-06    3.05    2690.5  T
   3    -71.2370020 -0.284217E-13  0.380E-06    3.05    4008.1  T

   *** convergence criteria satisfied after 3 iterations ***

         #    Occupation            Energy/Eh            Energy/eV
      -------------------------------------------------------------
         1        2.0000           -0.7551659             -20.5491
       ...           ...                  ...                  ...
        57        2.0000           -0.4043400             -11.0027
        58        2.0000           -0.3999259             -10.8825
        59        2.0000           -0.3970618             -10.8046
        60        2.0000           -0.3866651             -10.5217
        61        2.0000           -0.3834266             -10.4336
        62        2.0000           -0.3737897             -10.1713
        63        2.0000           -0.3690376             -10.0420 (HOMO)
        64                         -0.2569553              -6.9921 (LUMO)
        65                         -0.2422397              -6.5917
        66                         -0.2315080              -6.2997
        67                         -0.2043660              -5.5611
        68                         -0.2015749              -5.4851
       ...                                ...                  ...
       120                          0.8976219              24.4255
      -------------------------------------------------------------
                  HL-Gap            0.1120823 Eh            3.0499 eV
             Fermi-level           -0.3129964 Eh           -8.5171 eV

 SCC (total)                   0 d,  0 h,  0 min,  0.089 sec
 SCC setup                      ...        0 min,  0.000 sec (  0.428%)
 Dispersion                     ...        0 min,  0.001 sec (  0.738%)
 classical contributions        ...        0 min,  0.000 sec (  0.169%)
 integral evaluation            ...        0 min,  0.009 sec ( 10.082%)
 iterations                     ...        0 min,  0.009 sec (  9.886%)
 molecular gradient             ...        0 min,  0.070 sec ( 78.423%)
 printout                       ...        0 min,  0.000 sec (  0.266%)

         :::::::::::::::::::::::::::::::::::::::::::::::::::::
         ::                     SUMMARY                     ::
         :::::::::::::::::::::::::::::::::::::::::::::::::::::
         :: total energy             -70.310172920203 Eh    ::
         :: gradient norm              0.000326034554 Eh/a0 ::
         :: HOMO-LUMO gap              3.049913759247 eV    ::
         ::.................................................::
         :: SCC energy               -71.236605067023 Eh    ::
         :: -> isotropic ES            0.091601626792 Eh    ::
         :: -> anisotropic ES          0.008083051706 Eh    ::
         :: -> anisotropic XC          0.029023766818 Eh    ::
         :: -> dispersion             -0.049105437324 Eh    ::
         :: repulsion energy           0.926432146820 Eh    ::
         :: add. restraining           0.000000000000 Eh    ::
         :: total charge               0.000000000000 e     ::
         :::::::::::::::::::::::::::::::::::::::::::::::::::::

           -------------------------------------------------
          |                Property Printout                |
           -------------------------------------------------

    * Orbital Energies and Occupations

         #    Occupation            Energy/Eh            Energy/eV
      -------------------------------------------------------------
         1        2.0000           -0.7551659             -20.5491
       ...           ...                  ...                  ...
        51        2.0000           -0.4518967             -12.2967
        52        2.0000           -0.4460273             -12.1370
        53        2.0000           -0.4404304             -11.9847
        54        2.0000           -0.4340511             -11.8111
        55        2.0000           -0.4183823             -11.3848
        56        2.0000           -0.4144729             -11.2784
        57        2.0000           -0.4043400             -11.0027
        58        2.0000           -0.3999259             -10.8825
        59        2.0000           -0.3970618             -10.8046
        60        2.0000           -0.3866651             -10.5217
        61        2.0000           -0.3834266             -10.4336
        62        2.0000           -0.3737897             -10.1713
        63        2.0000           -0.3690376             -10.0420 (HOMO)
        64                         -0.2569553              -6.9921 (LUMO)
        65                         -0.2422397              -6.5917
[...]
   
   for DFT-D4:
   * E. Caldeweyher, C. Bannwarth and S. Grimme, J. Chem. Phys., 2017,
     147, 034112. DOI: 10.1063/1.4993215
   * E. Caldeweyher, S. Ehlert, A. Hansen, H. Neugebauer, S. Spicher,
     C. Bannwarth and S. Grimme, J. Chem. Phys., 2019, 150, 154122.
     DOI: 10.1063/1.5090222
   * E. Caldeweyher, J.-M. Mewes, S. Ehlert and S. Grimme, Phys. Chem. Chem. Phys.
     2020, 22, 8499-8512. DOI: 10.1039/D0CP00502A
   
   for sTDA-xTB:
   * S. Grimme and C. Bannwarth, J. Chem. Phys., 2016, 145, 054103.
     DOI: 10.1063/1.4959605
   
   in the mass-spec context:
   * V. Asgeirsson, C. Bauer and S. Grimme, Chem. Sci., 2017, 8, 4879.
     DOI: 10.1039/c7sc00601b
   * J. Koopman and S. Grimme, ACS Omega 2019, 4, 12, 15120-15133.
     DOI: 10.1021/acsomega.9b02011
   
   for metadynamics refer to:
   * S. Grimme, J. Chem. Theory Comput., 2019, 155, 2847-2862
     DOI: 10.1021/acs.jctc.9b00143
   
   for SPH calculations refer to:
   * S. Spicher and S. Grimme, J. Chem. Theory Comput., 2021, 17, 1701-1714
     DOI: 10.1021/acs.jctc.0c01306
   
   for ONIOM refer to:
   * C. Plett, A. Katbashev, S. Ehlert, S. Grimme, M. Bursch,
     Phys. Chem. Chem. Phys., 2023, 25, 17860-17868. DOI: 10.1039/D3CP02178E
   
   for DIPRO refer to:
   * J. Kohn, N. Gildemeister, S. Grimme, D. Fazzi, A. Hansen,
     J. Chem. Phys., 2023, just accepted.
   
   for PTB refer to:
   * S. Grimme, M. Mueller, A. Hansen, J. Chem. Phys., 2023, 158, 124111.
     DOI: 10.1063/5.0137838
   
   with help from (in alphabetical order)
   P. Atkinson, C. Bannwarth, F. Bohle, G. Brandenburg, E. Caldeweyher
   M. Checinski, S. Dohm, S. Ehlert, S. Ehrlich, I. Gerasimov, C. Hölzer
   A. Katbashev, J. Kohn, J. Koopman, C. Lavigne, S. Lehtola, F. März, M. Müller,
   F. Musil, H. Neugebauer, J. Pisarek, C. Plett, P. Pracht, F. Pultar,
   J. Seibert, P. Shushkov, S. Spicher, M. Stahn, M. Steiner, T. Strunk,
   J. Stückrath, T. Rose, and J. Unsleber
   
 * started run on 2025/05/15 at 16:29:30.534     
   ID    Z sym.   atoms
    1    6 C      1-3, 5-8, 10, 11, 13, 15, 16, 18-20, 22, 23
    2    8 O      4, 21, 24
    3    7 N      9, 14, 17
    4   16 S      12
    5    1 H      25-43

           -------------------------------------------------
          |                Calculation Setup                |
           -------------------------------------------------

          program call               : xtb /rds/general/user/hgt20/home/callum/QDESCP/Omeprazole_rdkit_conf_11/Omeprazole_rdkit_conf_11.xyz --acc 1 --gfn 2 --chrg 0 --uhf 2 --etemp 300 --input /rds/general/user/hgt20/home/callum/QDESCP/Omeprazole_rdkit_conf_11/Omeprazole_rdkit_conf_11_xtb.inp -P 1
          hostname                   : login-c
          coordinate file            : /rds/general/user/hgt20/home/callum/QDESCP/Omeprazole_rdkit_conf_11/Omeprazole_rdkit_conf_11.xyz
          omp threads                :                     1


           -------------------------------------------------
          |                 G F N 2 - x T B                 |
           -------------------------------------------------

        Reference                      10.1021/acs.jctc.8b01176
      * Hamiltonian:
        H0-scaling (s, p, d)           1.850000    2.230000    2.230000
        zeta-weighting                 0.500000
      * Dispersion:
        s8                             2.700000
        a1                             0.520000
        a2                             5.000000
        s9                             5.000000
      * Repulsion:
        kExp                           1.500000    1.000000
        rExp                           1.000000
      * Coulomb:
        alpha                          2.000000
        third order                    shell-resolved
        anisotropic                    true
        a3                             3.000000
        a5                             4.000000
        cn-shift                       1.200000
        cn-exp                         4.000000
        max-rad                        5.000000


          ...................................................
          :                      SETUP                      :
          :.................................................:
          :  # basis functions                 121          :
          :  # atomic orbitals                 120          :
          :  # shells                           68          :
          :  # electrons                       126          :
          :  max. iterations                   250          :
          :  Hamiltonian                  GFN2-xTB          :
          :  restarted?                      false          :
          :  GBSA solvation                  false          :
          :  PC potential                    false          :
          :  electronic temp.          300.0000000     K    :
          :  accuracy                    1.0000000          :
          :  -> integral cutoff          0.2500000E+02      :
          :  -> integral neglect         0.1000000E-07      :
          :  -> SCF convergence          0.1000000E-05 Eh   :
          :  -> wf. convergence          0.1000000E-03 e    :
          :  Broyden damping             0.4000000          :
          :  net charge                          0          :
          :  unpaired electrons                  2          :
          ...................................................

 iter      E             dE          RMSdq      gap      omega  full diag
   1    -70.9554703 -0.709555E+02  0.436E+00    0.45       0.0  T
   2    -70.9113142  0.441561E-01  0.293E+00    0.38       1.0  T
   3    -70.7234315  0.187883E+00  0.244E+00    1.03       1.0  T
   4    -71.0095715 -0.286140E+00  0.138E+00    0.33       1.0  T
   5    -71.0044513  0.512018E-02  0.130E+00    0.41       1.0  T
   6    -71.1037250 -0.992737E-01  0.616E-01    0.28       1.0  T
   7    -71.0814539  0.222711E-01  0.707E-01    0.37       1.0  T
   8    -71.0600035  0.214504E-01  0.724E-01    0.23       1.0  T
   9    -71.0206048  0.393987E-01  0.885E-01    0.51       1.0  T
  10    -71.1104764 -0.898716E-01  0.402E-01    0.31       1.0  T
  11    -71.1137019 -0.322549E-02  0.215E-01    0.31       1.0  T
  12    -71.1152761 -0.157424E-02  0.133E-01    0.28       1.0  T
  13    -71.1161943 -0.918129E-03  0.715E-02    0.28       1.0  T
  14    -71.1164965 -0.302265E-03  0.441E-02    0.28       1.0  T
  15    -71.1162705  0.225978E-03  0.575E-02    0.28       1.0  T
  16    -71.1165720 -0.301474E-03  0.255E-02    0.28       1.0  T
  17    -71.1166037 -0.316425E-04  0.175E-02    0.28       1.0  T
  18    -71.1166229 -0.192153E-04  0.628E-03    0.28       2.4  T
  19    -71.1166215  0.139698E-05  0.595E-03    0.28       2.6  T
  20    -71.1166245 -0.299606E-05  0.287E-03    0.28       5.3  T
  21    -71.1166245  0.115483E-07  0.256E-03    0.28       5.9  T
  22    -71.1166247 -0.228390E-06  0.213E-03    0.28       7.2  T
  23    -71.1166252 -0.496961E-06  0.598E-04    0.28      25.5  T
  24    -71.1166252 -0.339293E-07  0.100E-04    0.28     151.8  T

   *** convergence criteria satisfied after 24 iterations ***

         #    Occupation            Energy/Eh            Energy/eV
      -------------------------------------------------------------
         1        2.0000           -0.7491924             -20.3866
       ...           ...                  ...                  ...
        58        2.0000           -0.3957987             -10.7702
        59        2.0000           -0.3921909             -10.6721
        60        1.9983           -0.3815212             -10.3817
        61        1.9803           -0.3791599             -10.3175
        62        1.7107           -0.3763032             -10.2397
        63        1.3107           -0.3746925             -10.1959
        64        0.9957           -0.2490077              -6.7758 (HOMO)
        65        0.0043           -0.2386637              -6.4944 (LUMO)
        66                         -0.2276851              -6.1956
        67                         -0.2048964              -5.5755
        68                         -0.1961685              -5.3380
        69                         -0.1701254              -4.6293
       ...                                ...                  ...
       120                          0.9013060              24.5258
      -------------------------------------------------------------
                  HL-Gap            0.0103440 Eh            0.2815 eV
             Fermi-level           -0.3096426 Eh           -8.4258 eV

 transition dipole moment (au) for excitation:          63          64
     X       Y       Z   
   1.3081  -0.2891   0.5001  total (au/Debye):    1.430   3.635
 dE (eV)             :    3.420
 oscillator strength :  0.24229E+00

 SCC (total)                   0 d,  0 h,  0 min,  0.113 sec
 SCC setup                      ...        0 min,  0.000 sec (  0.343%)
 Dispersion                     ...        0 min,  0.001 sec (  0.447%)
 classical contributions        ...        0 min,  0.000 sec (  0.134%)
 integral evaluation            ...        0 min,  0.009 sec (  7.814%)
 iterations                     ...        0 min,  0.068 sec ( 59.871%)
 molecular gradient             ...        0 min,  0.027 sec ( 24.030%)
 printout                       ...        0 min,  0.008 sec (  7.355%)

         :::::::::::::::::::::::::::::::::::::::::::::::::::::
         ::                     SUMMARY                     ::
         :::::::::::::::::::::::::::::::::::::::::::::::::::::
         :: total energy             -70.189796141926 Eh    ::
         :: gradient norm              0.091555602192 Eh/a0 ::
         :: HOMO-LUMO gap              0.281475557622 eV    ::
         ::.................................................::
         :: SCC energy               -71.116228288746 Eh    ::
         :: -> isotropic ES            0.085723905809 Eh    ::
         :: -> anisotropic ES          0.007455044776 Eh    ::
         :: -> anisotropic XC          0.024504205496 Eh    ::
         :: -> dispersion             -0.049109474008 Eh    ::
         :: repulsion energy           0.926432146820 Eh    ::
         :: add. restraining           0.000000000000 Eh    ::
         :: total charge               0.000000000058 e     ::
         :::::::::::::::::::::::::::::::::::::::::::::::::::::

           -------------------------------------------------
          |                Property Printout                |
           -------------------------------------------------

    * Orbital Energies and Occupations

         #    Occupation            Energy/Eh            Energy/eV
      -------------------------------------------------------------
         1        2.0000           -0.7491924             -20.3866
       ...           ...                  ...                  ...
        52        2.0000           -0.4431495             -12.0587
        53        2.0000           -0.4402358             -11.9794
        54        2.0000           -0.4336272             -11.7996
        55        2.0000           -0.4163531             -11.3295
        56        2.0000           -0.4101617             -11.1611
        57        2.0000           -0.4001564             -10.8888
        58        2.0000           -0.3957987             -10.7702
        59        2.0000           -0.3921909             -10.6721
        60        1.9983           -0.3815212             -10.3817
        61        1.9803           -0.3791599             -10.3175
        62        1.7107           -0.3763032             -10.2397
        63        1.3107           -0.3746925             -10.1959
        64        0.9957           -0.2490077              -6.7758 (HOMO)
        65        0.0043           -0.2386637              -6.4944 (LUMO)
        66                         -0.2276851              -6.1956
        67                         -0.2048964              -5.5755
        68                         -0.1961685              -5.3380
        69                         -0.1701254              -4.6293
        70                         -0.1595779              -4.3423
        71                         -0.1112711              -3.0278
        72                         -0.0811462              -2.2081
        73                         -0.0353943              -0.9631
        74                          0.0063670               0.1733
        75                          0.0236612               0.6439
       ...                                ...                  ...
       120                          0.9013060              24.5258
      -------------------------------------------------------------
                  HL-Gap            0.0103440 Eh            0.2815 eV
             Fermi-level           -0.3096426 Eh           -8.4258 eV

     #   Z          covCN         q      C6AA      α(0)
     1   6 C        3.757    -0.103    22.516     6.765
     2   6 C        2.957    -0.021    28.518     8.759
     3   6 C        2.896     0.125    25.257     8.240
     4   8 O        1.703    -0.304    19.057     5.894
     5   6 C        3.656     0.045    20.114     6.438
     6   6 C        2.959    -0.005    28.148     8.702
     7   6 C        3.757    -0.109    22.630     6.783
     8   6 C        2.910     0.039    27.121     8.539
     9   7 N        1.849    -0.209    26.371     7.611
    10   6 C        3.028     0.061    26.596     8.459
    11   6 C        3.805    -0.083    22.082     6.690
    12  16 S        2.905     0.410   125.461    18.852
    13   6 C        3.199     0.079    25.708     8.264
    14   7 N        1.891    -0.296    28.513     7.916
    15   6 C        3.218     0.071    25.754     8.254
    16   6 C        3.095     0.051    26.737     8.474
    17   7 N        2.804    -0.113    23.470     7.195
    18   6 C        2.907    -0.065    29.624     8.925
    19   6 C        2.924    -0.080    29.997     8.982
    20   6 C        2.866     0.147    24.808     8.164
    21   8 O        1.706    -0.240    17.973     5.724
    22   6 C        3.642     0.032    20.374     6.490
    23   6 C        2.911    -0.078    29.947     8.973
    24   8 O        0.859    -0.475    23.241     6.464
    25   1 H        0.925     0.060     2.197     2.318
    26   1 H        0.924     0.044     2.393     2.419
    27   1 H        0.925     0.047     2.361     2.403
    28   1 H        0.925     0.056     2.241     2.341
    29   1 H        0.924     0.033     2.543     2.494
    30   1 H        0.924     0.030     2.592     2.518
    31   1 H        0.925     0.065     2.143     2.289
    32   1 H        0.925     0.043     2.415     2.430
    33   1 H        0.925     0.064     2.148     2.292
    34   1 H        0.925     0.049     2.331     2.388
    35   1 H        0.925     0.065     2.136     2.286
    36   1 H        0.925     0.075     2.037     2.232
    37   1 H        0.860     0.188     1.168     1.693
    38   1 H        0.926     0.033     2.541     2.493
    39   1 H        0.926     0.035     2.511     2.478
    40   1 H        0.924     0.050     2.316     2.380
    41   1 H        0.924     0.050     2.321     2.382
    42   1 H        0.925     0.068     2.106     2.269
    43   1 H        0.926     0.062     2.170     2.304

 Mol. C6AA /au·bohr⁶  :      23692.689760
 Mol. C8AA /au·bohr⁸  :     592575.322088
 Mol. α(0) /au        :        239.964966


Wiberg/Mayer (AO) data.
largest (>0.10) Wiberg bond orders for each atom

 ---------------------------------------------------------------------------
     #   Z sym  total        # sym  WBO       # sym  WBO       # sym  WBO
 ---------------------------------------------------------------------------
     1   6 C    3.988 --     2 C    1.024    25 H    0.979    27 H    0.977
                            26 H    0.966
     2   6 C    3.900 --     8 C    1.398     3 C    1.298     1 C    1.024
     3   6 C    3.894 --     6 C    1.387     2 C    1.298     4 O    0.998
     4   8 O    2.100 --     3 C    0.998     5 C    0.973
     5   6 C    3.945 --    28 H    0.979    30 H    0.979    29 H    0.978
                             4 O    0.973
     6   6 C    3.957 --     3 C    1.387    10 C    1.325     7 C    1.026
     7   6 C    3.987 --     6 C    1.026    31 H    0.978    32 H    0.971
                            33 H    0.963
     8   6 C    3.956 --     9 N    1.421     2 C    1.398    34 H    0.955
     9   7 N    3.035 --     8 C    1.421    10 C    1.309
    10   6 C    3.909 --     6 C    1.325     9 N    1.309    11 C    1.053
    11   6 C    3.941 --    10 C    1.053    35 H    0.968    36 H    0.954
                            12 S    0.802
    12  16 S    3.799 --    24 O    1.766    13 C    0.979    11 C    0.802
    13   6 C    3.858 --    14 N    1.444    17 N    1.135    12 S    0.979
    14   7 N    2.968 --    13 C    1.444    15 C    1.226
    15   6 C    3.954 --    23 C    1.333    14 N    1.226    16 C    1.198
    16   6 C    3.886 --    18 C    1.303    17 N    1.201    15 C    1.198
    17   7 N    3.491 --    16 C    1.201    13 C    1.135    37 H    0.931
    18   6 C    3.849 --    19 C    1.407    16 C    1.303    38 H    0.968
    19   6 C    3.888 --    18 C    1.407    20 C    1.326    39 H    0.966
    20   6 C    3.820 --    19 C    1.326    23 C    1.280    21 O    1.090
    21   8 O    2.213 --    20 C    1.090    22 C    0.986
    22   6 C    3.939 --    21 O    0.986    42 H    0.978    40 H    0.971
                            41 H    0.971
    23   6 C    3.797 --    15 C    1.333    20 C    1.280    43 H    0.964
    24   8 O    1.954 --    12 S    1.766
    25   1 H    0.994 --     1 C    0.979
    26   1 H    0.993 --     1 C    0.966
    27   1 H    0.995 --     1 C    0.977
    28   1 H    0.995 --     5 C    0.979
    29   1 H    0.999 --     5 C    0.978
    30   1 H    0.999 --     5 C    0.979
    31   1 H    0.993 --     7 C    0.978
    32   1 H    0.997 --     7 C    0.971
    33   1 H    0.995 --     7 C    0.963
    34   1 H    0.989 --     8 C    0.955
    35   1 H    0.994 --    11 C    0.968
    36   1 H    0.992 --    11 C    0.954
    37   1 H    0.964 --    17 N    0.931
    38   1 H    0.998 --    18 C    0.968
    39   1 H    0.998 --    19 C    0.966
    40   1 H    0.991 --    22 C    0.971
    41   1 H    0.991 --    22 C    0.971
    42   1 H    0.995 --    22 C    0.978
    43   1 H    0.995 --    23 C    0.964
 ---------------------------------------------------------------------------

Topologies differ in total number of bonds
Writing topology from bond orders to xtbtopo.mol

molecular dipole:
                 x           y           z       tot (Debye)
 q only:        0.132       0.991       0.799
   full:        0.323       0.748       1.222       3.732
molecular quadrupole (traceless):
                xx          xy          yy          xz          yz          zz
 q only:       24.519      -3.599     -22.631       9.050      -5.868      -1.888
  q+dip:       29.107      -8.757     -22.302      10.501      -9.708      -6.805
   full:       31.160      -7.459     -24.632       8.518     -10.271      -6.528


           -------------------------------------------------
          | TOTAL ENERGY              -70.189796141926 Eh   |
          | GRADIENT NORM               0.091555602192 Eh/α |
          | HOMO-LUMO GAP               0.281475557622 eV   |
           -------------------------------------------------

------------------------------------------------------------------------
 * finished run on 2025/05/15 at 16:29:30.661     
------------------------------------------------------------------------
 total:
 * wall-time:     0 d,  0 h,  0 min,  0.127 sec
 *  cpu-time:     0 d,  0 h,  0 min,  0.115 sec
 * ratio c/w:     0.909 speedup
 SCF:
 * wall-time:     0 d,  0 h,  0 min,  0.113 sec
 *  cpu-time:     0 d,  0 h,  0 min,  0.103 sec
 * ratio c/w:     0.906 speedup


