43
 energy: -70.310172920168 gnorm: 0.000326097792 xtb: 6.7.1 (edcfbbe)
C           -3.63085719089431        2.56087525240628       -2.54148362932500
C           -3.11608096176574        1.27388955415247       -1.97628666708534
C           -2.75060099308519        1.14709211946633       -0.63366070494525
O           -2.86472519933661        2.22823375695421        0.22262405383137
C           -4.16074174349691        2.40075966919592        0.75547387230670
C           -2.23543095684483       -0.06102872992207       -0.15330016455709
C           -1.77282421862992       -0.18039418722697        1.26518436525342
C           -2.96186005804259        0.14732156292910       -2.77380993219714
N           -2.51862132420527       -1.00990690315979       -2.33044463927684
C           -2.16181616770994       -1.12311414549366       -1.05661840634091
C           -1.66971499644081       -2.48163047818589       -0.69537615749725
S           -0.33357912376058       -2.88625194222868       -1.92923342127017
C            0.94315373732141       -1.98635267402659       -1.02521669239286
N            0.95111359426270       -0.74103714749055       -0.65166399128037
C            2.14641998011586       -0.57226002623174        0.00621286908836
C            2.86514923191142       -1.79588733513073        0.00070863469367
N            2.06153258263558       -2.67631531502228       -0.67723048555718
C            4.10323775410898       -1.90549170397040        0.60504367725893
C            4.61827622642333       -0.78010083087105        1.21900658946769
C            3.91592014244560        0.43433838586764        1.23590138926144
O            4.38068903785051        1.57099819875580        1.83344819340876
C            5.63607728458755        1.54570056530243        2.46540916677251
C            2.67108438404016        0.54890894751805        0.62950646227733
O            0.06800097393616       -4.27998893623378       -1.68110624279765
H           -3.32048083888931        3.39711472483620       -1.91994560573404
H           -4.72032156816716        2.54799556834734       -2.59438480198517
H           -3.25005629995098        2.70570235233057       -3.54980701674834
H           -4.11514503740750        3.29076346981908        1.38083398547018
H           -4.90829289152023        2.54599767194164       -0.03077456759923
H           -4.45657636714755        1.54017417613470        1.36656012582772
H           -1.91565820600148        0.76494238861422        1.78082826058953
H           -2.31640218185745       -0.96274706565951        1.79378939940434
H           -0.71027998594411       -0.41647583603428        1.27750981224671
H           -3.21406833450800        0.17921286747427       -3.82584427637494
H           -1.27833630334273       -2.56736230734483        0.31283672912272
H           -2.43494334749621       -3.23736189569731       -0.87271538095593
H            2.19276004667512       -3.65791037533155       -0.86579472150708
H            4.65343994577418       -2.83383447044237        0.60105233862429
H            5.58379145605997       -0.85295551030742        1.69301400591157
H            6.44026563850591        1.31006715463841        1.76037774785567
H            5.65813033679508        0.83118759396646        3.29520034841435
H            5.78685767093691        2.55101572733337        2.85602262031483
H            2.14151427205462        1.48581610803081        0.64795285802441
