57
 energy: -90.581440865777 gnorm: 0.000795347991 xtb: 6.7.1 (edcfbbe)
C            4.46333738884336        3.08631028127092        0.62187600716078
N            3.57738906861127        1.94009497166530        0.62472048196191
C            4.10653629350385        0.71993085878107        0.87925778876218
N            5.40217266411560        0.66693343190617        1.10129929539512
C            5.96018750493508       -0.52873256188837        1.34945154421917
C            5.27540469286983       -1.69938560906011        1.38203108659957
C            3.86308531764169       -1.68420382505369        1.14714002998343
N            3.33827292959956       -0.40208336608504        0.90558988063354
O            3.11287411720636       -2.64237161797940        1.13936386417124
C            2.18193089706636        2.23521671518562        0.34244658171564
C            1.26392231764843        1.96052059206786        1.54191041424093
C           -0.17562341182849        2.32563090411260        1.17213660612873
C            1.67676500864982        1.56566546303301       -0.94289468707071
C            0.20784531693723        1.93316675056089       -1.16462737299928
N           -0.63406182408511        1.61940803432413       -0.01824275069581
C           -0.78629530786932        0.24172042005849        0.20664700406485
N            0.15183669447224       -0.64259688551119        0.40661854421641
C           -0.50053436782007       -1.84030138961818        0.58778264380005
C           -1.89350516596657       -1.62847218287174        0.48984352200354
N           -2.04700093503631       -0.28263959042389        0.25278038031910
C           -3.28152276086878        0.42560742933507        0.04771489682626
C           -4.03268932038096       -0.11518289479872       -1.14290155279327
C           -3.36948589058129       -0.30178846226423       -2.34992765905026
C           -4.03234087042861       -0.81126125920170       -3.44986804940743
C           -5.37290494563383       -1.12980237734584       -3.32742948051008
F           -6.02929638986850       -1.62534741575649       -4.39557822537511
C           -6.05898386847784       -0.95306903248529       -2.14075092571592
C           -5.37733935881943       -0.44629928897837       -1.04871033768235
C           -2.80165047856604       -2.66519724749666        0.63064511851545
C           -2.28003335537493       -3.91964174133880        0.87495170595754
C           -0.90384986912980       -4.13427573120112        0.97799271266059
C            0.00796424238311       -3.10923070465036        0.83747049783900
H            4.46531910344343        3.55939099016354       -0.36226102081107
H            5.46540060309658        2.74226380245987        0.85932842282437
H            4.14025276537201        3.81358790165974        1.36900611162775
H            7.02801101808491       -0.48801045087158        1.52270098633121
H            5.74801577473723       -2.64650037324357        1.57728769552308
H            2.33085858866444       -0.40030028515000        0.74517302638873
H            2.14780616812800        3.31796815239810        0.16480573538358
H            1.29070239701617        0.91055119785849        1.82844771579348
H            1.59355648951878        2.55601044118808        2.39506891752165
H           -0.85148657007196        2.08327843161893        1.99572031676517
H           -0.25599801531515        3.39651387672340        0.96067077675800
H            1.75050933293530        0.48179867372721       -0.88555876921061
H            2.27739425043529        1.90607503082464       -1.78837694903636
H           -0.18445338184635        1.40012753755192       -2.03355822875268
H            0.10640910510343        3.00807325025782       -1.34528386176311
H           -3.01466544030630        1.47619547468174       -0.11308644614394
H           -3.90169064722416        0.34979976287202        0.94818738069459
H           -2.32204420969041       -0.05087969921792       -2.42517380704368
H           -3.52837100250471       -0.96342896354341       -4.39055328153441
H           -7.10315403056867       -1.21502971525392       -2.07990714569743
H           -5.90040593158746       -0.30824073183578       -0.11409465518970
H           -3.86534549205364       -2.50002500397998        0.54749921677797
H           -2.95328365289979       -4.75639709314571        0.99028543385959
H           -0.54706678556287       -5.13439498016683        1.17343445057462
H            1.07102322936741       -3.26504989590579        0.92159841246317
