43
 energy: -70.310830981897 gnorm: 0.000834668407 xtb: 6.7.1 (edcfbbe)
C           -4.38470706184933       -2.42191377519987       -0.03593879296037
C           -3.51899797705892       -1.20552632255672        0.05707472590323
C           -3.91836505893304        0.03201149946401       -0.46183584085313
O           -5.14008092232341        0.16534826080409       -1.08845389470230
C           -5.15378145842716       -0.25149313170661       -2.43956100282514
C           -3.10048682672859        1.15480232259939       -0.30880414427704
C           -3.52047125774952        2.48881278033038       -0.83903004039771
C           -2.27669619800238       -1.25253579360883        0.67110225259041
N           -1.48292649540200       -0.20656935954030        0.80351493936456
C           -1.88006559037305        0.98186998502365        0.35313705965334
C           -0.92539975386102        2.10178203476710        0.53093053347705
S            0.18796126028998        2.23155638154351       -1.00959907206224
C            1.50624600936393        1.20369691615328       -0.32598563460950
N            2.77076350802971        1.40972210552199       -0.55562661419038
C            3.42153539717368        0.37599021549259        0.06238652698908
C            2.47252387057493       -0.48394444288623        0.66386728777673
N            1.24925111337592        0.06983784247895        0.38597984149381
C            2.86668161864565       -1.61584737629609        1.36258748454727
C            4.21643259459891       -1.86295212548032        1.44469065010321
C            5.17138903368320       -1.01239657969690        0.85204321949783
O            6.46661637766366       -1.40498679741943        1.03605780379301
C            7.48590663676530       -0.60600783276689        0.48816985137709
C            4.78691128957735        0.11646817323572        0.15270601191885
O            0.66936174437085        3.60514831795322       -1.02297821404568
H           -5.42804891524569       -2.13383429512574       -0.14315094926378
H           -4.27249920865417       -3.03225404616108        0.85753218932645
H           -4.09945985576715       -3.03105959032637       -0.89500046021338
H           -4.87774360331334       -1.30473339851335       -2.54415090693350
H           -4.47236477229930        0.35487822315514       -3.04635957237467
H           -6.17532585941763       -0.10798091923015       -2.78661040364644
H           -2.78655827553552        2.86724045654291       -1.54963434979439
H           -3.60888669631291        3.20921787930168       -0.02680138354416
H           -4.48837220777756        2.40803821701818       -1.32572058425735
H           -1.89774753817427       -2.18083569911766        1.07872196296696
H           -1.41621505498327        3.06989108570552        0.57921608990007
H           -0.28753631546989        1.96173506359340        1.39912626637658
H            0.32237399720368       -0.24688341806975        0.68422506038412
H            2.14638337823101       -2.27374019043498        1.82358803850083
H            4.58700383400936       -2.72610085328103        1.97444442993149
H            7.41003041711666       -0.55067992142168       -0.60256080794683
H            7.46943621115439        0.40652629403378        0.90392615416809
H            8.42139159301651       -1.09256743996936        0.76051267590082
H            5.48433701881340        0.79016925409146       -0.31413838704273
