33
 energy: -50.362358993004 gnorm: 0.000862970331 xtb: 6.7.1 (edcfbbe)
C            3.80107439659184        1.75883412552786        0.70372968026213
N            2.61599764078727        1.16121100168708        0.13660905696618
C            2.51007205788077       -0.14604448472824       -0.25139883017998
N            1.24109394976835       -0.58259124248930       -0.41418814006264
C            0.96198999663223       -1.86366039162800       -1.02310571426035
C           -0.52490956725045       -2.03225542782510       -1.28454594108213
S           -1.50590472120484       -2.51494929851884        0.17608837492457
C           -1.38408351871034       -1.01698435710520        1.24044102390751
C           -1.89130310201169        0.19311563460379        0.55996360474754
C           -3.18944338412671        0.61230912350728        0.39809532702256
C           -4.47657495638243        0.02159754169469        0.83586453883881
N           -3.10838768671506        1.77070902714974       -0.33039559099136
C           -1.80065383510968        2.00314975116900       -0.58138293527177
N           -1.04655003931253        1.07374763718750       -0.06387253256439
N            3.46792011010112       -0.97523045126698       -0.49208700011262
C            4.75003929493307       -0.83457412293913       -0.42175026300888
N            5.90478860958461       -0.86376086131215       -0.41616122797411
H            3.83288489584922        1.64670030816812        1.79300071159355
H            3.81594587061695        2.82073329740815        0.45765560314723
H            4.68624020773435        1.28763123043406        0.28206099948992
H            1.74302285960791        1.60887574204945        0.37780920371958
H            0.48826107394652        0.10574429948998       -0.39100473257279
H            1.50843073145027       -1.95013121660364       -1.97246642231562
H            1.32528682358504       -2.66273789251626       -0.36666786074453
H           -0.95713214154701       -1.11883099443866       -1.69474290585097
H           -0.69068525725558       -2.84991993448334       -1.98453774817238
H           -1.99165403423535       -1.26650917740451        2.10927985337431
H           -0.34299744092959       -0.90204037258123        1.53373303732786
H           -4.86509746792921       -0.65619051510163        0.07492310963361
H           -5.21586649238800        0.79980343071609        1.01690194017651
H           -4.33261319965896       -0.55110623980511        1.74847364526640
H           -3.88960591877812        2.33684360031808       -0.61908458014517
H           -1.43968575551904        2.84461122963504       -1.13733728509111
