----- Optimization -----
      -----------------------------------------------------------      
     |                   =====================                   |     
     |                           x T B                           |     
     |                   =====================                   |     
     |                         S. Grimme                         |     
     |          Mulliken Center for Theoretical Chemistry        |     
     |                    University of Bonn                     |     
      -----------------------------------------------------------      

   * xtb version 6.7.1 (edcfbbe) compiled by 'conda@3ef47c1a292c' on 2024-11-25

   xtb is free software: you can redistribute it and/or modify it under
   the terms of the GNU Lesser General Public License as published by
   the Free Software Foundation, either version 3 of the License, or
   (at your option) any later version.
   
   xtb is distributed in the hope that it will be useful,
   but WITHOUT ANY WARRANTY; without even the implied warranty of
   MERCHANTABILITY or FITNESS FOR A PARTICULAR PURPOSE.  See the
   GNU Lesser General Public License for more details.
   
   Cite this work as:
   * C. Bannwarth, E. Caldeweyher, S. Ehlert, A. Hansen, P. Pracht,
     J. Seibert, S. Spicher, S. Grimme, WIREs Comput. Mol. Sci., 2020, 11,
     e01493. DOI: 10.1002/wcms.1493
   
   for GFN2-xTB:
   * C. Bannwarth, S. Ehlert and S. Grimme., J. Chem. Theory Comput., 2019,
     15, 1652-1671. DOI: 10.1021/acs.jctc.8b01176
   for GFN1-xTB:
   * S. Grimme, C. Bannwarth, P. Shushkov, J. Chem. Theory Comput., 2017,
     13, 1989-2009. DOI: 10.1021/acs.jctc.7b00118
   for GFN0-xTB:
   * P. Pracht, E. Caldeweyher, S. Ehlert, S. Grimme, ChemRxiv, 2019, preprint.
     DOI: 10.26434/chemrxiv.8326202.v1
   for GFN-FF:
   * S. Spicher and S. Grimme, Angew. Chem. Int. Ed., 2020, 59, 15665-15673.
     DOI: 10.1002/anie.202004239
   
   for ALPB and GBSA implicit solvation:
   * S. Ehlert, M. Stahn, S. Spicher, S. Grimme, J. Chem. Theory Comput.,
     2021, 17, 4250-4261. DOI: 10.1021/acs.jctc.1c00471
   
   for ddCOSMO and CPCM-X implicit solvation:
   * M. Stahn, S. Ehlert, S. Grimme, J. Phys. Chem. A,
     2023, XX, XXXX-XXXX. DOI: 10.1021/acs.jpca.3c04382
   
   for DFT-D4:
   * E. Caldeweyher, C. Bannwarth and S. Grimme, J. Chem. Phys., 2017,
     147, 034112. DOI: 10.1063/1.4993215
   * E. Caldeweyher, S. Ehlert, A. Hansen, H. Neugebauer, S. Spicher,
     C. Bannwarth and S. Grimme, J. Chem. Phys., 2019, 150, 154122.
     DOI: 10.1063/1.5090222
   * E. Caldeweyher, J.-M. Mewes, S. Ehlert and S. Grimme, Phys. Chem. Chem. Phys.
     2020, 22, 8499-8512. DOI: 10.1039/D0CP00502A
   
   for sTDA-xTB:
   * S. Grimme and C. Bannwarth, J. Chem. Phys., 2016, 145, 054103.
     DOI: 10.1063/1.4959605
   
   in the mass-spec context:
   * V. Asgeirsson, C. Bauer and S. Grimme, Chem. Sci., 2017, 8, 4879.
     DOI: 10.1039/c7sc00601b
   * J. Koopman and S. Grimme, ACS Omega 2019, 4, 12, 15120-15133.
     DOI: 10.1021/acsomega.9b02011
   
   for metadynamics refer to:
   * S. Grimme, J. Chem. Theory Comput., 2019, 155, 2847-2862
     DOI: 10.1021/acs.jctc.9b00143
   
   for SPH calculations refer to:
   * S. Spicher and S. Grimme, J. Chem. Theory Comput., 2021, 17, 1701-1714
     DOI: 10.1021/acs.jctc.0c01306
   
   for ONIOM refer to:
   * C. Plett, A. Katbashev, S. Ehlert, S. Grimme, M. Bursch,
     Phys. Chem. Chem. Phys., 2023, 25, 17860-17868. DOI: 10.1039/D3CP02178E
   
   for DIPRO refer to:
   * J. Kohn, N. Gildemeister, S. Grimme, D. Fazzi, A. Hansen,
     J. Chem. Phys., 2023, just accepted.
   
   for PTB refer to:
   * S. Grimme, M. Mueller, A. Hansen, J. Chem. Phys., 2023, 158, 124111.
     DOI: 10.1063/5.0137838
   
   with help from (in alphabetical order)
   P. Atkinson, C. Bannwarth, F. Bohle, G. Brandenburg, E. Caldeweyher
   M. Checinski, S. Dohm, S. Ehlert, S. Ehrlich, I. Gerasimov, C. Hölzer
   A. Katbashev, J. Kohn, J. Koopman, C. Lavigne, S. Lehtola, F. März, M. Müller,
   F. Musil, H. Neugebauer, J. Pisarek, C. Plett, P. Pracht, F. Pultar,
   J. Seibert, P. Shushkov, S. Spicher, M. Stahn, M. Steiner, T. Strunk,
   J. Stückrath, T. Rose, and J. Unsleber
   
 * started run on 2025/05/15 at 16:17:03.112     
   ID    Z sym.   atoms
    1    6 C      1, 3, 5, 6, 8-11, 13, 16
    2    7 N      2, 4, 12, 14, 15, 17
    3   16 S      7
    4    1 H      18-33

           -------------------------------------------------
          |                Calculation Setup                |
           -------------------------------------------------

          program call               : xtb /rds/general/user/hgt20/home/callum/QDESCP/Cimetadine_rdkit_conf_2/Cimetadine_rdkit_conf_2.xyz --opt normal --acc 1 --gfn 2 --chrg 0 --uhf 0 -P 1
          hostname                   : login-c
          coordinate file            : /rds/general/user/hgt20/home/callum/QDESCP/Cimetadine_rdkit_conf_2/Cimetadine_rdkit_conf_2.xyz
          omp threads                :                     1


           -------------------------------------------------
          |                 G F N 2 - x T B                 |
           -------------------------------------------------

        Reference                      10.1021/acs.jctc.8b01176
      * Hamiltonian:
        H0-scaling (s, p, d)           1.850000    2.230000    2.230000
        zeta-weighting                 0.500000
      * Dispersion:
        s8                             2.700000
        a1                             0.520000
        a2                             5.000000
        s9                             5.000000
      * Repulsion:
        kExp                           1.500000    1.000000
        rExp                           1.000000
      * Coulomb:
        alpha                          2.000000
        third order                    shell-resolved
        anisotropic                    true
        a3                             3.000000
        a5                             4.000000
        cn-shift                       1.200000
        cn-exp                         4.000000
        max-rad                        5.000000


          ...................................................
          :                      SETUP                      :
          :.................................................:
          :  # basis functions                  90          :
          :  # atomic orbitals                  89          :
          :  # shells                           51          :
          :  # electrons                        92          :
          :  max. iterations                   250          :
          :  Hamiltonian                  GFN2-xTB          :
          :  restarted?                      false          :
          :  GBSA solvation                  false          :
          :  PC potential                    false          :
          :  electronic temp.          300.0000000     K    :
          :  accuracy                    1.0000000          :
          :  -> integral cutoff          0.2500000E+02      :
          :  -> integral neglect         0.1000000E-07      :
          :  -> SCF convergence          0.1000000E-05 Eh   :
          :  -> wf. convergence          0.1000000E-03 e    :
          :  Broyden damping             0.4000000          :
          :  net charge                          0          :
          :  unpaired electrons                  0          :
          ...................................................

 iter      E             dE          RMSdq      gap      omega  full diag
   1    -50.9015813 -0.509016E+02  0.431E+00    3.74       0.0  T
   2    -50.9962276 -0.946463E-01  0.272E+00    3.62       1.0  T
   3    -50.9938072  0.242033E-02  0.157E+00    3.51       1.0  T
   4    -51.0116237 -0.178164E-01  0.733E-01    3.36       1.0  T
   5    -51.0231777 -0.115540E-01  0.181E-01    3.38       1.0  T
   6    -51.0232012 -0.235243E-04  0.102E-01    3.39       1.0  T
   7    -51.0233370 -0.135830E-03  0.340E-02    3.39       1.0  T
   8    -51.0233511 -0.140212E-04  0.138E-02    3.39       1.3  T
   9    -51.0233522 -0.115105E-05  0.522E-03    3.39       3.3  T
  10    -51.0233523 -0.588210E-07  0.180E-03    3.39       9.7  T
  11    -51.0233523 -0.233360E-07  0.809E-04    3.40      21.5  T
  12    -51.0233523 -0.623645E-08  0.360E-04    3.40      48.3  T

   *** convergence criteria satisfied after 12 iterations ***

         #    Occupation            Energy/Eh            Energy/eV
      -------------------------------------------------------------
         1        2.0000           -0.7153366             -19.4653
       ...           ...                  ...                  ...
        40        2.0000           -0.4179191             -11.3722
        41        2.0000           -0.4015805             -10.9276
        42        2.0000           -0.3866882             -10.5223
        43        2.0000           -0.3808864             -10.3644
        44        2.0000           -0.3673724              -9.9967
        45        2.0000           -0.3634556              -9.8901
        46        2.0000           -0.3599007              -9.7934 (HOMO)
        47                         -0.2351247              -6.3981 (LUMO)
        48                         -0.2218320              -6.0364
        49                         -0.2080136              -5.6603
        50                         -0.1901727              -5.1749
        51                         -0.1423076              -3.8724
       ...                                ...                  ...
        89                          1.1778544              32.0510
      -------------------------------------------------------------
                  HL-Gap            0.1247760 Eh            3.3953 eV
             Fermi-level           -0.2975127 Eh           -8.0957 eV

 SCC (total)                   0 d,  0 h,  0 min,  0.073 sec
 SCC setup                      ...        0 min,  0.000 sec (  0.383%)
 Dispersion                     ...        0 min,  0.000 sec (  0.381%)
 classical contributions        ...        0 min,  0.000 sec (  0.129%)
 integral evaluation            ...        0 min,  0.006 sec (  7.576%)
 iterations                     ...        0 min,  0.017 sec ( 23.501%)
 molecular gradient             ...        0 min,  0.050 sec ( 67.841%)
 printout                       ...        0 min,  0.000 sec (  0.181%)

         :::::::::::::::::::::::::::::::::::::::::::::::::::::
         ::                     SUMMARY                     ::
         :::::::::::::::::::::::::::::::::::::::::::::::::::::
         :: total energy             -50.349315364308 Eh    ::
         :: gradient norm              0.062854339789 Eh/a0 ::
         :: HOMO-LUMO gap              3.395328680136 eV    ::
         ::.................................................::
         :: SCC energy               -51.023041566799 Eh    ::
         :: -> isotropic ES            0.058972188446 Eh    ::
         :: -> anisotropic ES          0.008525676100 Eh    ::
         :: -> anisotropic XC          0.043561676787 Eh    ::
         :: -> dispersion             -0.033788248714 Eh    ::
         :: repulsion energy           0.673726202492 Eh    ::
         :: add. restraining           0.000000000000 Eh    ::
         :: total charge               0.000000000000 e     ::
         :::::::::::::::::::::::::::::::::::::::::::::::::::::

      ----------------------------------------------------------- 
     |                   =====================                   |
     |                        A N C O P T                        |
     |                   =====================                   |
     |               Approximate Normal Coordinate               |
     |                Rational Function Optimizer                |
      ----------------------------------------------------------- 
      ----------------------------------------------------------- 
     |                   =====================                   |
     |                        A N C O P T                        |
     |                   =====================                   |
     |               Approximate Normal Coordinate               |
     |                Rational Function Optimizer                |
      ----------------------------------------------------------- 

          ...................................................
          :                      SETUP                      :
          :.................................................:
          :   optimization level            normal          :
          :   max. optcycles                   200          :
          :   ANC micro-cycles                  20          :
          :   degrees of freedom                93          :
          :.................................................:
          :   RF solver                   davidson          :
          :   write xtbopt.log                true          :
          :   linear?                        false          :
          :   energy convergence         0.5000000E-05 Eh   :
          :   grad. convergence          0.1000000E-02 Eh/α :
          :   maxmium RF displ.          1.0000000          :
          :   Hlow (freq-cutoff)         0.1000000E-01      :
          :   Hmax (freq-cutoff)         5.0000000          :
          :   S6 in model hess.         20.0000000          :
          ...................................................

generating ANC from exact Hessian ...
Using Lindh-Hessian (1995)
 Shifting diagonal of input Hessian by    9.6832025423399231E-003
 Lowest  eigenvalues of input Hessian
    0.000000    0.000000    0.000000    0.000000    0.000000    0.000000
    0.010000    0.010193    0.010370    0.010844    0.011678    0.012422
    0.013646    0.015457    0.016381    0.017186    0.018761    0.020557
 Highest eigenvalues
    1.867121    2.026467    2.075735    2.120738    2.289377    2.735909


........................................................................
.............................. CYCLE    1 ..............................
........................................................................

 iter      E             dE          RMSdq      gap      omega  full diag
   1    -51.0233523 -0.510234E+02  0.106E-04    3.40       0.0  T
   2    -51.0233523 -0.867786E-10  0.592E-05    3.40     294.2  T
   3    -51.0233523 -0.197318E-10  0.376E-05    3.40     463.4  T
     SCC iter.                  ...        0 min,  0.005 sec
     gradient                   ...        0 min,  0.016 sec
 * total energy  :   -50.3493154 Eh     change       -0.8417516E-09 Eh
   gradient norm :     0.0628531 Eh/α   predicted     0.0000000E+00 (-100.00%)
   displ. norm   :     0.3523075 α      lambda       -0.1042966E-01
   maximum displ.:     0.1512172 α      in ANC's #5, #22, #18, ...

........................................................................
.............................. CYCLE    2 ..............................
........................................................................

 iter      E             dE          RMSdq      gap      omega  full diag
   1    -51.0479753 -0.510480E+02  0.377E-01    3.51       0.0  T
   2    -51.0481415 -0.166205E-03  0.218E-01    3.46       1.0  T
   3    -51.0478087  0.332816E-03  0.130E-01    3.45       1.0  T
   4    -51.0482396 -0.430919E-03  0.204E-02    3.44       1.0  T
   5    -51.0482478 -0.811672E-05  0.695E-03    3.45       2.5  T
   6    -51.0482479 -0.164538E-06  0.344E-03    3.45       5.1  T
   7    -51.0482481 -0.167863E-06  0.112E-03    3.45      15.6  T
   8    -51.0482481 -0.145362E-07  0.486E-04    3.45      35.8  T
   9    -51.0482481 -0.863004E-09  0.201E-04    3.45      86.4  T
     SCC iter.                  ...        0 min,  0.012 sec
     gradient                   ...        0 min,  0.032 sec
 * total energy  :   -50.3552056 Eh     change       -0.5890193E-02 Eh
   gradient norm :     0.0397325 Eh/α   predicted    -0.5862132E-02 (  -0.48%)
   displ. norm   :     0.5398981 α      lambda       -0.1141881E-01
   maximum displ.:     0.1922290 α      in ANC's #5, #11, #21, ...

........................................................................
.............................. CYCLE    3 ..............................
........................................................................

 iter      E             dE          RMSdq      gap      omega  full diag
   1    -51.0906715 -0.510907E+02  0.604E-01    3.31       0.0  T
   2    -51.0909516 -0.280129E-03  0.343E-01    3.25       1.0  T
   3    -51.0902392  0.712390E-03  0.205E-01    3.27       1.0  T
   4    -51.0912285 -0.989283E-03  0.211E-02    3.26       1.0  T
   5    -51.0912332 -0.467596E-05  0.965E-03    3.26       1.8  T
   6    -51.0912332 -0.388146E-07  0.398E-03    3.26       4.4  T
   7    -51.0912335 -0.307767E-06  0.130E-03    3.26      13.4  T
   8    -51.0912335 -0.136614E-07  0.638E-04    3.26      27.3  T
   9    -51.0912335 -0.197824E-08  0.218E-04    3.26      79.8  T
     SCC iter.                  ...        0 min,  0.013 sec
     gradient                   ...        0 min,  0.016 sec
 * total energy  :   -50.3542387 Eh     change        0.9668590E-03 Eh
   gradient norm :     0.0673646 Eh/α   predicted    -0.7373645E-02 (-862.64%)
   displ. norm   :     0.2099933 α      lambda       -0.6632634E-02
   maximum displ.:     0.0947755 α      in ANC's #5, #22, #21, ...

........................................................................
.............................. CYCLE    4 ..............................
........................................................................

 iter      E             dE          RMSdq      gap      omega  full diag
   1    -51.0734656 -0.510735E+02  0.241E-01    3.30       0.0  T
   2    -51.0734995 -0.339601E-04  0.142E-01    3.29       1.0  T
   3    -51.0733464  0.153176E-03  0.912E-02    3.27       1.0  T
   4    -51.0735529 -0.206504E-03  0.916E-03    3.27       1.9  T
   5    -51.0735539 -0.106832E-05  0.473E-03    3.27       3.7  T
   6    -51.0735541 -0.127769E-06  0.187E-03    3.27       9.3  T
   7    -51.0735541 -0.428516E-07  0.507E-04    3.27      34.4  T
   8    -51.0735541 -0.415431E-08  0.226E-04    3.27      77.1  T
     SCC iter.                  ...        0 min,  0.011 sec
     gradient                   ...        0 min,  0.057 sec
 * total energy  :   -50.3586571 Eh     change       -0.4418440E-02 Eh
   gradient norm :     0.0178324 Eh/α   predicted    -0.3462571E-02 ( -21.63%)
   displ. norm   :     0.2465661 α      lambda       -0.1880157E-02
   maximum displ.:     0.1576923 α      in ANC's #5, #4, #22, ...

........................................................................
.............................. CYCLE    5 ..............................
........................................................................

 iter      E             dE          RMSdq      gap      omega  full diag
   1    -51.0631243 -0.510631E+02  0.251E-01    3.29       0.0  T
   2    -51.0631809 -0.566124E-04  0.142E-01    3.25       1.0  T
   3    -51.0631677  0.131319E-04  0.303E-02    3.22       1.0  T
   4    -51.0631912 -0.234257E-04  0.118E-02    3.22       1.5  T
   5    -51.0631941 -0.296254E-05  0.380E-03    3.22       4.6  T
   6    -51.0631942 -0.632107E-07  0.193E-03    3.23       9.0  T
   7    -51.0631942 -0.454762E-07  0.567E-04    3.23      30.7  T
   8    -51.0631942 -0.406736E-08  0.280E-04    3.23      62.2  T
     SCC iter.                  ...        0 min,  0.011 sec
     gradient                   ...        0 min,  0.016 sec
 * total energy  :   -50.3595669 Eh     change       -0.9097953E-03 Eh
   gradient norm :     0.0226638 Eh/α   predicted    -0.9972395E-03 (   9.61%)
   displ. norm   :     0.1296871 α      lambda       -0.5469123E-03
   maximum displ.:     0.0749677 α      in ANC's #3, #2, #16, ...

........................................................................
.............................. CYCLE    6 ..............................
........................................................................

 iter      E             dE          RMSdq      gap      omega  full diag
   1    -51.0666141 -0.510666E+02  0.687E-02    3.22       0.0  T
   2    -51.0666186 -0.447011E-05  0.382E-02    3.20       1.0  T
   3    -51.0666101  0.855841E-05  0.224E-02    3.20       1.0  T
   4    -51.0666212 -0.111902E-04  0.371E-03    3.19       4.7  T
   5    -51.0666215 -0.255960E-06  0.122E-03    3.19      14.3  T
   6    -51.0666215 -0.179968E-08  0.373E-04    3.20      46.7  T
   7    -51.0666215 -0.122390E-08  0.145E-04    3.20     119.9  T
     SCC iter.                  ...        0 min,  0.010 sec
     gradient                   ...        0 min,  0.016 sec
 * total energy  :   -50.3600090 Eh     change       -0.4420362E-03 Eh
   gradient norm :     0.0126212 Eh/α   predicted    -0.2780555E-03 ( -37.10%)
   displ. norm   :     0.3585977 α      lambda       -0.8524861E-03
   maximum displ.:     0.2048953 α      in ANC's #3, #2, #4, ...

........................................................................
.............................. CYCLE    7 ..............................
........................................................................

 iter      E             dE          RMSdq      gap      omega  full diag
   1    -51.0687412 -0.510687E+02  0.166E-01    3.20       0.0  T
   2    -51.0687614 -0.202052E-04  0.929E-02    3.16       1.0  T
   3    -51.0687391  0.223357E-04  0.345E-02    3.14       1.0  T
   4    -51.0687681 -0.289922E-04  0.760E-03    3.14       2.3  T
   5    -51.0687690 -0.934521E-06  0.275E-03    3.14       6.3  T
   6    -51.0687690 -0.260679E-07  0.921E-04    3.14      18.9  T
   7    -51.0687690 -0.602113E-08  0.368E-04    3.14      47.3  T
     SCC iter.                  ...        0 min,  0.010 sec
     gradient                   ...        0 min,  0.016 sec
 * total energy  :   -50.3605766 Eh     change       -0.5676412E-03 Eh
   gradient norm :     0.0103111 Eh/α   predicted    -0.4810554E-03 ( -15.25%)
   displ. norm   :     0.2637114 α      lambda       -0.3623303E-03
   maximum displ.:     0.1678465 α      in ANC's #3, #4, #2, ...

........................................................................
.............................. CYCLE    8 ..............................
........................................................................

 iter      E             dE          RMSdq      gap      omega  full diag
   1    -51.0720917 -0.510721E+02  0.987E-02    3.16       0.0  T
   2    -51.0720960 -0.435035E-05  0.551E-02    3.15       1.0  T
   3    -51.0720962 -0.153458E-06  0.816E-03    3.14       2.1  T
   4    -51.0720973 -0.114603E-05  0.403E-03    3.14       4.3  T
   5    -51.0720976 -0.235807E-06  0.149E-03    3.14      11.7  T
   6    -51.0720976 -0.208782E-07  0.472E-04    3.14      36.9  T
   7    -51.0720976 -0.157123E-08  0.249E-04    3.14      70.0  T
     SCC iter.                  ...        0 min,  0.010 sec
     gradient                   ...        0 min,  0.016 sec
 * total energy  :   -50.3608517 Eh     change       -0.2750949E-03 Eh
   gradient norm :     0.0052773 Eh/α   predicted    -0.1937648E-03 ( -29.56%)
   displ. norm   :     0.3801080 α      lambda       -0.3654685E-03
   maximum displ.:     0.2493307 α      in ANC's #3, #4, #2, ...

........................................................................
.............................. CYCLE    9 ..............................
........................................................................

 iter      E             dE          RMSdq      gap      omega  full diag
   1    -51.0721938 -0.510722E+02  0.137E-01    3.17       0.0  T
   2    -51.0722035 -0.963825E-05  0.768E-02    3.17       1.0  T
   3    -51.0721990  0.445295E-05  0.178E-02    3.15       1.0  T
   4    -51.0722067 -0.764367E-05  0.586E-03    3.16       3.0  T
   5    -51.0722072 -0.517314E-06  0.232E-03    3.16       7.5  T
   6    -51.0722072 -0.341818E-07  0.790E-04    3.16      22.0  T
   7    -51.0722072 -0.859621E-08  0.390E-04    3.16      44.6  T
     SCC iter.                  ...        0 min,  0.010 sec
     gradient                   ...        0 min,  0.055 sec
 * total energy  :   -50.3611267 Eh     change       -0.2749552E-03 Eh
   gradient norm :     0.0066074 Eh/α   predicted    -0.2091374E-03 ( -23.94%)
   displ. norm   :     0.3993012 α      lambda       -0.3699310E-03
   maximum displ.:     0.2675502 α      in ANC's #3, #4, #2, ...

........................................................................
.............................. CYCLE   10 ..............................
........................................................................

 iter      E             dE          RMSdq      gap      omega  full diag
   1    -51.0753917 -0.510754E+02  0.106E-01    3.19       0.0  T
   2    -51.0754004 -0.875880E-05  0.590E-02    3.20       1.0  T
   3    -51.0753974  0.300817E-05  0.152E-02    3.19       1.1  T
   4    -51.0754025 -0.511614E-05  0.532E-03    3.19       3.3  T
   5    -51.0754029 -0.397231E-06  0.258E-03    3.19       6.7  T
   6    -51.0754030 -0.836257E-07  0.850E-04    3.19      20.5  T
   7    -51.0754030 -0.434440E-08  0.420E-04    3.19      41.4  T
     SCC iter.                  ...        0 min,  0.010 sec
     gradient                   ...        0 min,  0.016 sec
 * total energy  :   -50.3613805 Eh     change       -0.2538238E-03 Eh
   gradient norm :     0.0092335 Eh/α   predicted    -0.2144624E-03 ( -15.51%)
   displ. norm   :     0.4234083 α      lambda       -0.2526985E-03
   maximum displ.:     0.2886027 α      in ANC's #3, #4, #2, ...

........................................................................
.............................. CYCLE   11 ..............................
........................................................................

 iter      E             dE          RMSdq      gap      omega  full diag
   1    -51.0718961 -0.510719E+02  0.117E-01    3.22       0.0  T
   2    -51.0719030 -0.694325E-05  0.660E-02    3.22       1.0  T
   3    -51.0718870  0.159849E-04  0.274E-02    3.20       1.0  T
   4    -51.0719073 -0.203017E-04  0.445E-03    3.20       3.9  T
   5    -51.0719075 -0.173480E-06  0.216E-03    3.21       8.1  T
   6    -51.0719075 -0.437262E-07  0.745E-04    3.21      23.4  T
   7    -51.0719075 -0.720858E-08  0.339E-04    3.21      51.3  T
     SCC iter.                  ...        0 min,  0.061 sec
     gradient                   ...        0 min,  0.015 sec
 * total energy  :   -50.3615433 Eh     change       -0.1627932E-03 Eh
   gradient norm :     0.0074499 Eh/α   predicted    -0.1490021E-03 (  -8.47%)
   displ. norm   :     0.2249115 α      lambda       -0.1844343E-03
   maximum displ.:     0.1539540 α      in ANC's #3, #2, #4, ...

........................................................................
.............................. CYCLE   12 ..............................
........................................................................

 iter      E             dE          RMSdq      gap      omega  full diag
   1    -51.0743852 -0.510744E+02  0.407E-02    3.22       0.0  T
   2    -51.0743871 -0.181345E-05  0.225E-02    3.22       1.0  T
   3    -51.0743864  0.681916E-06  0.743E-03    3.22       2.3  T
   4    -51.0743874 -0.100469E-05  0.251E-03    3.22       6.9  T
   5    -51.0743875 -0.122305E-06  0.105E-03    3.22      16.5  T
   6    -51.0743875 -0.596549E-08  0.432E-04    3.22      40.3  T
   7    -51.0743875 -0.347050E-08  0.150E-04    3.22     115.8  T
     SCC iter.                  ...        0 min,  0.010 sec
     gradient                   ...        0 min,  0.016 sec
 * total energy  :   -50.3616746 Eh     change       -0.1313472E-03 Eh
   gradient norm :     0.0048745 Eh/α   predicted    -0.9688254E-04 ( -26.24%)
   displ. norm   :     0.2502295 α      lambda       -0.1381601E-03
   maximum displ.:     0.1734926 α      in ANC's #3, #2, #4, ...

........................................................................
.............................. CYCLE   13 ..............................
........................................................................

 iter      E             dE          RMSdq      gap      omega  full diag
   1    -51.0741365 -0.510741E+02  0.454E-02    3.22       0.0  T
   2    -51.0741383 -0.178379E-05  0.254E-02    3.22       1.0  T
   3    -51.0741382  0.109677E-06  0.543E-03    3.22       3.2  T
   4    -51.0741386 -0.436232E-06  0.199E-03    3.22       8.7  T
   5    -51.0741387 -0.538596E-07  0.851E-04    3.22      20.4  T
   6    -51.0741387 -0.360696E-08  0.282E-04    3.22      61.8  T
     SCC iter.                  ...        0 min,  0.009 sec
     gradient                   ...        0 min,  0.048 sec
 * total energy  :   -50.3617703 Eh     change       -0.9565065E-04 Eh
   gradient norm :     0.0062271 Eh/α   predicted    -0.7340678E-04 ( -23.26%)
   displ. norm   :     0.2186652 α      lambda       -0.1163273E-03
   maximum displ.:     0.1503486 α      in ANC's #3, #2, #4, ...

........................................................................
.............................. CYCLE   14 ..............................
........................................................................

 iter      E             dE          RMSdq      gap      omega  full diag
   1    -51.0739835 -0.510740E+02  0.539E-02    3.23       0.0  T
   2    -51.0739855 -0.193412E-05  0.303E-02    3.22       1.0  T
   3    -51.0739845  0.968695E-06  0.794E-03    3.22       2.2  T
   4    -51.0739860 -0.145543E-05  0.277E-03    3.22       6.3  T
   5    -51.0739861 -0.130693E-06  0.103E-03    3.22      16.9  T
   6    -51.0739861 -0.275581E-08  0.329E-04    3.22      52.9  T
   7    -51.0739861 -0.191621E-08  0.134E-04    3.22     129.7  T
     SCC iter.                  ...        0 min,  0.010 sec
     gradient                   ...        0 min,  0.015 sec
 * total energy  :   -50.3618448 Eh     change       -0.7447739E-04 Eh
   gradient norm :     0.0044443 Eh/α   predicted    -0.6094665E-04 ( -18.17%)
   displ. norm   :     0.1765277 α      lambda       -0.7600589E-04
   maximum displ.:     0.1180640 α      in ANC's #3, #2, #4, ...

........................................................................
.............................. CYCLE   15 ..............................
........................................................................

 iter      E             dE          RMSdq      gap      omega  full diag
   1    -51.0732152 -0.510732E+02  0.397E-02    3.23       0.0  T
   2    -51.0732161 -0.863817E-06  0.225E-02    3.23       1.0  T
   3    -51.0732158  0.267833E-06  0.480E-03    3.23       3.6  T
   4    -51.0732163 -0.489536E-06  0.196E-03    3.23       8.9  T
   5    -51.0732163 -0.529510E-07  0.792E-04    3.23      22.0  T
   6    -51.0732163 -0.649931E-08  0.230E-04    3.23      75.5  T
     SCC iter.                  ...        0 min,  0.054 sec
     gradient                   ...        0 min,  0.016 sec
 * total energy  :   -50.3618997 Eh     change       -0.5494406E-04 Eh
   gradient norm :     0.0046153 Eh/α   predicted    -0.3918851E-04 ( -28.68%)
   displ. norm   :     0.1404447 α      lambda       -0.7128088E-04
   maximum displ.:     0.0823430 α      in ANC's #3, #2, #4, ...

........................................................................
.............................. CYCLE   16 ..............................
........................................................................

 iter      E             dE          RMSdq      gap      omega  full diag
   1    -51.0732899 -0.510733E+02  0.360E-02    3.23       0.0  T
   2    -51.0732917 -0.182056E-05  0.204E-02    3.24       1.0  T
   3    -51.0732912  0.500812E-06  0.646E-03    3.24       2.7  T
   4    -51.0732919 -0.705134E-06  0.251E-03    3.24       6.9  T
   5    -51.0732920 -0.128121E-06  0.971E-04    3.24      17.9  T
   6    -51.0732920 -0.740810E-08  0.349E-04    3.24      49.9  T
     SCC iter.                  ...        0 min,  0.009 sec
     gradient                   ...        0 min,  0.016 sec
 * total energy  :   -50.3619471 Eh     change       -0.4743176E-04 Eh
   gradient norm :     0.0030816 Eh/α   predicted    -0.3634612E-04 ( -23.37%)
   displ. norm   :     0.0650494 α      lambda       -0.3243191E-04
   maximum displ.:     0.0255906 α      in ANC's #3, #4, #2, ...

........................................................................
.............................. CYCLE   17 ..............................
........................................................................

 iter      E             dE          RMSdq      gap      omega  full diag
   1    -51.0733700 -0.510734E+02  0.189E-02    3.24       0.0  T
   2    -51.0733711 -0.111419E-05  0.106E-02    3.25       1.6  T
   3    -51.0733711  0.152340E-08  0.387E-03    3.25       4.5  T
   4    -51.0733712 -0.946250E-07  0.108E-03    3.25      16.2  T
   5    -51.0733712 -0.152442E-07  0.471E-04    3.25      37.0  T
   6    -51.0733712 -0.693035E-09  0.215E-04    3.25      80.8  T
     SCC iter.                  ...        0 min,  0.048 sec
     gradient                   ...        0 min,  0.016 sec
 * total energy  :   -50.3619702 Eh     change       -0.2305168E-04 Eh
   gradient norm :     0.0019712 Eh/α   predicted    -0.1628935E-04 ( -29.34%)
   displ. norm   :     0.0895426 α      lambda       -0.2590201E-04
   maximum displ.:     0.0402245 α      in ANC's #11, #4, #6, ...

........................................................................
.............................. CYCLE   18 ..............................
........................................................................

 iter      E             dE          RMSdq      gap      omega  full diag
   1    -51.0736645 -0.510737E+02  0.348E-02    3.25       0.0  T
   2    -51.0736664 -0.194194E-05  0.196E-02    3.26       1.0  T
   3    -51.0736664  0.180946E-07  0.479E-03    3.26       3.6  T
   4    -51.0736667 -0.238683E-06  0.166E-03    3.26      10.5  T
   5    -51.0736667 -0.446227E-07  0.841E-04    3.26      20.7  T
   6    -51.0736667 -0.459112E-08  0.359E-04    3.26      48.5  T
     SCC iter.                  ...        0 min,  0.009 sec
     gradient                   ...        0 min,  0.016 sec
 * total energy  :   -50.3619942 Eh     change       -0.2400630E-04 Eh
   gradient norm :     0.0029700 Eh/α   predicted    -0.1299985E-04 ( -45.85%)
   displ. norm   :     0.0570765 α      lambda       -0.2159852E-04
   maximum displ.:     0.0259196 α      in ANC's #11, #4, #12, ...

........................................................................
.............................. CYCLE   19 ..............................
........................................................................

 iter      E             dE          RMSdq      gap      omega  full diag
   1    -51.0735081 -0.510735E+02  0.206E-02    3.26       0.0  T
   2    -51.0735083 -0.230489E-06  0.116E-02    3.26       1.5  T
   3    -51.0735083 -0.494263E-07  0.133E-03    3.26      13.1  T
   4    -51.0735084 -0.147729E-07  0.718E-04    3.26      24.2  T
   5    -51.0735084 -0.424515E-08  0.360E-04    3.26      48.4  T
     SCC iter.                  ...        0 min,  0.007 sec
     gradient                   ...        0 min,  0.049 sec
 * total energy  :   -50.3620133 Eh     change       -0.1908840E-04 Eh
   gradient norm :     0.0030879 Eh/α   predicted    -0.1083612E-04 ( -43.23%)
   displ. norm   :     0.2211431 α      lambda       -0.8349734E-04
   maximum displ.:     0.1050277 α      in ANC's #11, #12, #4, ...

........................................................................
.............................. CYCLE   20 ..............................
........................................................................

 iter      E             dE          RMSdq      gap      omega  full diag
   1    -51.0730228 -0.510730E+02  0.819E-02    3.26       0.0  T
   2    -51.0730269 -0.411232E-05  0.457E-02    3.26       1.0  T
   3    -51.0730276 -0.654880E-06  0.616E-03    3.26       2.8  T
   4    -51.0730279 -0.269301E-06  0.374E-03    3.26       4.7  T
   5    -51.0730281 -0.228451E-06  0.154E-03    3.26      11.3  T
   6    -51.0730281 -0.191663E-07  0.373E-04    3.26      46.7  T
   7    -51.0730281 -0.120652E-08  0.192E-04    3.26      90.6  T
     SCC iter.                  ...        0 min,  0.010 sec
     gradient                   ...        0 min,  0.016 sec
 * total energy  :   -50.3620634 Eh     change       -0.5016853E-04 Eh
   gradient norm :     0.0034596 Eh/α   predicted    -0.4379265E-04 ( -12.71%)
   displ. norm   :     0.0771317 α      lambda       -0.2456550E-04
   maximum displ.:     0.0370048 α      in ANC's #11, #12, #8, ...
 * RMSD in coord.:     0.5862796 α      energy gain  -0.1274808E-01 Eh

generating ANC from exact Hessian ...
Using Lindh-Hessian (1995)
 Shifting diagonal of input Hessian by    9.7987205159080042E-003
 Lowest  eigenvalues of input Hessian
    0.000000    0.000000    0.000000    0.000000    0.000000    0.000000
    0.010000    0.010330    0.010418    0.011085    0.011397    0.012911
    0.013676    0.016189    0.016918    0.017250    0.017605    0.018968
 Highest eigenvalues
    1.925060    2.085332    2.176673    2.192106    2.290634    2.877886


........................................................................
.............................. CYCLE   21 ..............................
........................................................................

 iter      E             dE          RMSdq      gap      omega  full diag
   1    -51.0731682 -0.510732E+02  0.260E-02    3.26       0.0  T
   2    -51.0731688 -0.553409E-06  0.142E-02    3.26       1.2  T
   3    -51.0731687  0.470400E-07  0.317E-03    3.26       5.5  T
   4    -51.0731689 -0.124764E-06  0.172E-03    3.26      10.1  T
   5    -51.0731689 -0.498386E-07  0.609E-04    3.26      28.6  T
   6    -51.0731689 -0.197483E-08  0.181E-04    3.26      96.2  T
     SCC iter.                  ...        0 min,  0.008 sec
     gradient                   ...        0 min,  0.016 sec
 * total energy  :   -50.3620838 Eh     change       -0.2039067E-04 Eh
   gradient norm :     0.0029217 Eh/α   predicted     0.0000000E+00 (-100.00%)
   displ. norm   :     0.0383917 α      lambda       -0.3022048E-04
   maximum displ.:     0.0177657 α      in ANC's #7, #4, #9, ...

........................................................................
.............................. CYCLE   22 ..............................
........................................................................

 iter      E             dE          RMSdq      gap      omega  full diag
   1    -51.0735525 -0.510736E+02  0.421E-02    3.26       0.0  T
   2    -51.0735533 -0.847201E-06  0.234E-02    3.26       1.0  T
   3    -51.0735535 -0.130879E-06  0.287E-03    3.26       6.1  T
   4    -51.0735537 -0.197987E-06  0.941E-04    3.26      18.5  T
   5    -51.0735537 -0.757443E-08  0.417E-04    3.26      41.8  T
     SCC iter.                  ...        0 min,  0.007 sec
     gradient                   ...        0 min,  0.055 sec
 * total energy  :   -50.3620902 Eh     change       -0.6359154E-05 Eh
   gradient norm :     0.0024314 Eh/α   predicted    -0.1606247E-04 ( 152.59%)
   displ. norm   :     0.0606077 α      lambda       -0.5866239E-04
   maximum displ.:     0.0361151 α      in ANC's #7, #5, #11, ...

........................................................................
.............................. CYCLE   23 ..............................
........................................................................

 iter      E             dE          RMSdq      gap      omega  full diag
   1    -51.0744755 -0.510745E+02  0.279E-02    3.27       0.0  T
   2    -51.0744761 -0.568960E-06  0.157E-02    3.27       1.1  T
   3    -51.0744761 -0.308859E-07  0.239E-03    3.27       7.3  T
   4    -51.0744762 -0.993163E-07  0.933E-04    3.27      18.7  T
   5    -51.0744762 -0.723619E-08  0.421E-04    3.27      41.4  T
     SCC iter.                  ...        0 min,  0.007 sec
     gradient                   ...        0 min,  0.016 sec
 * total energy  :   -50.3621232 Eh     change       -0.3298531E-04 Eh
   gradient norm :     0.0031942 Eh/α   predicted    -0.2944041E-04 ( -10.75%)
   displ. norm   :     0.0498569 α      lambda       -0.2156869E-04
   maximum displ.:     0.0295671 α      in ANC's #7, #10, #9, ...

........................................................................
.............................. CYCLE   24 ..............................
........................................................................

 iter      E             dE          RMSdq      gap      omega  full diag
   1    -51.0738564 -0.510739E+02  0.112E-02    3.27       0.0  T
   2    -51.0738565 -0.105315E-06  0.649E-03    3.27       2.7  T
   3    -51.0738565  0.312064E-07  0.152E-03    3.27      11.5  T
   4    -51.0738565 -0.452720E-07  0.592E-04    3.27      29.4  T
   5    -51.0738565 -0.466103E-08  0.295E-04    3.27      59.0  T
     SCC iter.                  ...        0 min,  0.007 sec
     gradient                   ...        0 min,  0.015 sec
 * total energy  :   -50.3621406 Eh     change       -0.1739454E-04 Eh
   gradient norm :     0.0015772 Eh/α   predicted    -0.1081228E-04 ( -37.84%)
   displ. norm   :     0.2141915 α      lambda       -0.4351799E-04
   maximum displ.:     0.1204365 α      in ANC's #7, #9, #10, ...

........................................................................
.............................. CYCLE   25 ..............................
........................................................................

 iter      E             dE          RMSdq      gap      omega  full diag
   1    -51.0720430 -0.510720E+02  0.423E-02    3.28       0.0  T
   2    -51.0720438 -0.799872E-06  0.249E-02    3.27       1.0  T
   3    -51.0720430  0.792152E-06  0.638E-03    3.28       2.7  T
   4    -51.0720440 -0.980840E-06  0.202E-03    3.27       8.6  T
   5    -51.0720440 -0.553329E-07  0.955E-04    3.27      18.2  T
   6    -51.0720441 -0.874436E-08  0.291E-04    3.27      59.9  T
     SCC iter.                  ...        0 min,  0.009 sec
     gradient                   ...        0 min,  0.015 sec
 * total energy  :   -50.3621634 Eh     change       -0.2282703E-04 Eh
   gradient norm :     0.0046020 Eh/α   predicted    -0.2220316E-04 (  -2.73%)
   displ. norm   :     0.0169156 α      lambda       -0.2375811E-04
   maximum displ.:     0.0095205 α      in ANC's #7, #11, #13, ...

........................................................................
.............................. CYCLE   26 ..............................
........................................................................

 iter      E             dE          RMSdq      gap      omega  full diag
   1    -51.0726678 -0.510727E+02  0.699E-03    3.27       0.0  T
   2    -51.0726679 -0.717632E-07  0.389E-03    3.27       4.5  T
   3    -51.0726679  0.132929E-07  0.130E-03    3.27      13.4  T
   4    -51.0726679 -0.193752E-07  0.554E-04    3.27      31.4  T
   5    -51.0726679 -0.558667E-08  0.219E-04    3.27      79.7  T
     SCC iter.                  ...        0 min,  0.007 sec
     gradient                   ...        0 min,  0.067 sec
 * total energy  :   -50.3621826 Eh     change       -0.1914959E-04 Eh
   gradient norm :     0.0031649 Eh/α   predicted    -0.1188488E-04 ( -37.94%)
   displ. norm   :     0.0873310 α      lambda       -0.4840274E-04
   maximum displ.:     0.0424086 α      in ANC's #9, #12, #10, ...

........................................................................
.............................. CYCLE   27 ..............................
........................................................................

 iter      E             dE          RMSdq      gap      omega  full diag
   1    -51.0736567 -0.510737E+02  0.204E-02    3.27       0.0  T
   2    -51.0736570 -0.353725E-06  0.116E-02    3.27       1.5  T
   3    -51.0736570  0.355469E-07  0.242E-03    3.27       7.2  T
   4    -51.0736571 -0.711864E-07  0.111E-03    3.27      15.6  T
   5    -51.0736571 -0.240230E-07  0.460E-04    3.27      37.8  T
   6    -51.0736571 -0.103514E-08  0.171E-04    3.27     101.6  T
     SCC iter.                  ...        0 min,  0.009 sec
     gradient                   ...        0 min,  0.015 sec
 * total energy  :   -50.3622173 Eh     change       -0.3471962E-04 Eh
   gradient norm :     0.0010764 Eh/α   predicted    -0.2439068E-04 ( -29.75%)
   displ. norm   :     0.2743216 α      lambda       -0.4633639E-04
   maximum displ.:     0.1223969 α      in ANC's #9, #12, #10, ...

........................................................................
.............................. CYCLE   28 ..............................
........................................................................

 iter      E             dE          RMSdq      gap      omega  full diag
   1    -51.0730957 -0.510731E+02  0.551E-02    3.27       0.0  T
   2    -51.0730966 -0.842754E-06  0.320E-02    3.27       1.0  T
   3    -51.0730968 -0.243537E-06  0.272E-03    3.26       6.4  T
   4    -51.0730968 -0.448382E-07  0.158E-03    3.27      11.0  T
   5    -51.0730969 -0.128646E-07  0.787E-04    3.26      22.1  T
   6    -51.0730969 -0.111050E-07  0.185E-04    3.26      94.0  T
     SCC iter.                  ...        0 min,  0.009 sec
     gradient                   ...        0 min,  0.056 sec
 * total energy  :   -50.3622575 Eh     change       -0.4024181E-04 Eh
   gradient norm :     0.0039414 Eh/α   predicted    -0.2394847E-04 ( -40.49%)
   displ. norm   :     0.0523126 α      lambda       -0.2421950E-04
   maximum displ.:     0.0226862 α      in ANC's #12, #10, #3, ...

........................................................................
.............................. CYCLE   29 ..............................
........................................................................

 iter      E             dE          RMSdq      gap      omega  full diag
   1    -51.0732522 -0.510733E+02  0.183E-02    3.26       0.0  T
   2    -51.0732524 -0.210688E-06  0.104E-02    3.26       1.7  T
   3    -51.0732524  0.347299E-07  0.195E-03    3.26       8.9  T
   4    -51.0732525 -0.867579E-07  0.744E-04    3.26      23.4  T
   5    -51.0732525 -0.966400E-08  0.305E-04    3.26      57.1  T
     SCC iter.                  ...        0 min,  0.007 sec
     gradient                   ...        0 min,  0.015 sec
 * total energy  :   -50.3622783 Eh     change       -0.2083594E-04 Eh
   gradient norm :     0.0029654 Eh/α   predicted    -0.1214466E-04 ( -41.71%)
   displ. norm   :     0.1899090 α      lambda       -0.5704505E-04
   maximum displ.:     0.0808713 α      in ANC's #12, #10, #11, ...

........................................................................
.............................. CYCLE   30 ..............................
........................................................................

 iter      E             dE          RMSdq      gap      omega  full diag
   1    -51.0727216 -0.510727E+02  0.523E-02    3.26       0.0  T
   2    -51.0727230 -0.137216E-05  0.299E-02    3.26       1.0  T
   3    -51.0727219  0.105544E-05  0.767E-03    3.27       2.3  T
   4    -51.0727235 -0.153669E-05  0.199E-03    3.26       8.7  T
   5    -51.0727235 -0.459118E-07  0.938E-04    3.26      18.6  T
   6    -51.0727235 -0.279304E-08  0.360E-04    3.26      48.4  T
     SCC iter.                  ...        0 min,  0.009 sec
     gradient                   ...        0 min,  0.055 sec
 * total energy  :   -50.3623120 Eh     change       -0.3363602E-04 Eh
   gradient norm :     0.0026854 Eh/α   predicted    -0.2955794E-04 ( -12.12%)
   displ. norm   :     0.0349433 α      lambda       -0.2693421E-04
   maximum displ.:     0.0222528 α      in ANC's #11, #7, #9, ...

........................................................................
.............................. CYCLE   31 ..............................
........................................................................

 iter      E             dE          RMSdq      gap      omega  full diag
   1    -51.0739561 -0.510740E+02  0.215E-02    3.26       0.0  T
   2    -51.0739567 -0.652620E-06  0.120E-02    3.26       1.4  T
   3    -51.0739564  0.267838E-06  0.432E-03    3.26       4.0  T
   4    -51.0739568 -0.353646E-06  0.151E-03    3.26      11.5  T
   5    -51.0739568 -0.464016E-07  0.488E-04    3.26      35.6  T
   6    -51.0739568  0.199883E-09  0.234E-04    3.26      74.4  T
     SCC iter.                  ...        0 min,  0.009 sec
     gradient                   ...        0 min,  0.016 sec
 * total energy  :   -50.3623152 Eh     change       -0.3227802E-05 Eh
   gradient norm :     0.0024127 Eh/α   predicted    -0.1348413E-04 ( 317.75%)
   displ. norm   :     0.0910467 α      lambda       -0.2130185E-04
   maximum displ.:     0.0409102 α      in ANC's #10, #12, #9, ...

........................................................................
.............................. CYCLE   32 ..............................
........................................................................

 iter      E             dE          RMSdq      gap      omega  full diag
   1    -51.0732297 -0.510732E+02  0.181E-02    3.26       0.0  T
   2    -51.0732298 -0.118249E-06  0.106E-02    3.26       1.6  T
   3    -51.0732298  0.347618E-07  0.183E-03    3.26       9.5  T
   4    -51.0732298 -0.642927E-07  0.757E-04    3.26      23.0  T
   5    -51.0732298 -0.784836E-08  0.317E-04    3.26      54.9  T
     SCC iter.                  ...        0 min,  0.061 sec
     gradient                   ...        0 min,  0.015 sec
 * total energy  :   -50.3623289 Eh     change       -0.1366001E-04 Eh
   gradient norm :     0.0016337 Eh/α   predicted    -0.1074107E-04 ( -21.37%)
   displ. norm   :     0.0814777 α      lambda       -0.7804315E-05
   maximum displ.:     0.0406539 α      in ANC's #10, #9, #12, ...

........................................................................
.............................. CYCLE   33 ..............................
........................................................................

 iter      E             dE          RMSdq      gap      omega  full diag
   1    -51.0730250 -0.510730E+02  0.157E-02    3.26       0.0  T
   2    -51.0730252 -0.137545E-06  0.917E-03    3.26       1.9  T
   3    -51.0730251  0.858014E-07  0.234E-03    3.26       7.4  T
   4    -51.0730252 -0.101845E-06  0.896E-04    3.26      19.4  T
   5    -51.0730252 -0.155619E-07  0.308E-04    3.26      56.4  T
     SCC iter.                  ...        0 min,  0.007 sec
     gradient                   ...        0 min,  0.016 sec
 * total energy  :   -50.3623359 Eh     change       -0.7068940E-05 Eh
   gradient norm :     0.0018738 Eh/α   predicted    -0.3914940E-05 ( -44.62%)
   displ. norm   :     0.0397234 α      lambda       -0.1055548E-04
   maximum displ.:     0.0197383 α      in ANC's #10, #2, #4, ...

........................................................................
.............................. CYCLE   34 ..............................
........................................................................

 iter      E             dE          RMSdq      gap      omega  full diag
   1    -51.0737582 -0.510738E+02  0.140E-02    3.26       0.0  T
   2    -51.0737586 -0.410024E-06  0.762E-03    3.26       2.3  T
   3    -51.0737586  0.102609E-07  0.252E-03    3.26       6.9  T
   4    -51.0737587 -0.493763E-07  0.978E-04    3.26      17.8  T
   5    -51.0737587 -0.174589E-07  0.399E-04    3.26      43.6  T
     SCC iter.                  ...        0 min,  0.007 sec
     gradient                   ...        0 min,  0.049 sec
 * total energy  :   -50.3623440 Eh     change       -0.8078940E-05 Eh
   gradient norm :     0.0014569 Eh/α   predicted    -0.5285515E-05 ( -34.58%)
   displ. norm   :     0.0316600 α      lambda        0.1523647E-05
   maximum displ.:     0.0147215 α      in ANC's #4, #10, #8, ...

........................................................................
.............................. CYCLE   35 ..............................
........................................................................

 iter      E             dE          RMSdq      gap      omega  full diag
   1    -51.0738032 -0.510738E+02  0.120E-02    3.26       0.0  T
   2    -51.0738034 -0.222370E-06  0.666E-03    3.26       2.6  T
   3    -51.0738034  0.469265E-07  0.219E-03    3.26       7.9  T
   4    -51.0738034 -0.750906E-07  0.864E-04    3.26      20.1  T
   5    -51.0738034 -0.155482E-07  0.303E-04    3.26      57.5  T
     SCC iter.                  ...        0 min,  0.007 sec
     gradient                   ...        0 min,  0.016 sec
 * total energy  :   -50.3623428 Eh     change        0.1248738E-05 Eh
   gradient norm :     0.0021514 Eh/α   predicted     0.7620968E-06 ( -38.97%)
   displ. norm   :     0.0610333 α      lambda       -0.1027278E-04
   maximum displ.:     0.0287879 α      in ANC's #10, #12, #11, ...

........................................................................
.............................. CYCLE   36 ..............................
........................................................................

 iter      E             dE          RMSdq      gap      omega  full diag
   1    -51.0735823 -0.510736E+02  0.129E-02    3.26       0.0  T
   2    -51.0735824 -0.655161E-07  0.757E-03    3.26       2.3  T
   3    -51.0735823  0.926617E-08  0.108E-03    3.26      16.1  T
   4    -51.0735824 -0.255990E-07  0.389E-04    3.26      44.8  T
   5    -51.0735824 -0.126900E-08  0.190E-04    3.26      91.8  T
     SCC iter.                  ...        0 min,  0.007 sec
     gradient                   ...        0 min,  0.061 sec
 * total energy  :   -50.3623504 Eh     change       -0.7673045E-05 Eh
   gradient norm :     0.0013712 Eh/α   predicted    -0.5156551E-05 ( -32.80%)
   displ. norm   :     0.0986676 α      lambda       -0.8256953E-05
   maximum displ.:     0.0482945 α      in ANC's #10, #12, #11, ...

........................................................................
.............................. CYCLE   37 ..............................
........................................................................

 iter      E             dE          RMSdq      gap      omega  full diag
   1    -51.0733430 -0.510733E+02  0.201E-02    3.26       0.0  T
   2    -51.0733432 -0.202042E-06  0.118E-02    3.26       1.5  T
   3    -51.0733431  0.635754E-07  0.216E-03    3.27       8.1  T
   4    -51.0733432 -0.987012E-07  0.791E-04    3.27      22.0  T
   5    -51.0733433 -0.974030E-08  0.374E-04    3.27      46.5  T
     SCC iter.                  ...        0 min,  0.007 sec
     gradient                   ...        0 min,  0.016 sec
 * total energy  :   -50.3623557 Eh     change       -0.5251857E-05 Eh
   gradient norm :     0.0012514 Eh/α   predicted    -0.4148425E-05 ( -21.01%)
   displ. norm   :     0.0292644 α      lambda       -0.3686620E-05
   maximum displ.:     0.0134892 α      in ANC's #1, #4, #7, ...

........................................................................
.............................. CYCLE   38 ..............................
........................................................................

 iter      E             dE          RMSdq      gap      omega  full diag
   1    -51.0737788 -0.510738E+02  0.917E-03    3.27       0.0  T
   2    -51.0737789 -0.498953E-07  0.517E-03    3.27       3.4  T
   3    -51.0737789  0.413154E-08  0.987E-04    3.27      17.6  T
   4    -51.0737789 -0.166637E-07  0.440E-04    3.27      39.6  T
     SCC iter.                  ...        0 min,  0.006 sec
     gradient                   ...        0 min,  0.055 sec
 * total energy  :   -50.3623590 Eh     change       -0.3293459E-05 Eh
   gradient norm :     0.0008676 Eh/α   predicted    -0.1845305E-05 ( -43.97%)
   displ. norm   :     0.0768739 α      lambda       -0.5002586E-05
   maximum displ.:     0.0372428 α      in ANC's #4, #10, #2, ...

   *** GEOMETRY OPTIMIZATION CONVERGED AFTER 38 ITERATIONS ***

------------------------------------------------------------------------
 total energy gain   :        -0.0130436 Eh       -8.1850 kcal/mol
 total RMSD          :         0.6429543 a0        0.3402 Å
 total power (kW/mol):        -0.9012114 (step)  -17.1527 (real)
------------------------------------------------------------------------

 ANCopt (total)                0 d,  0 h,  0 min,  1.997 sec
 optimizer setup                ...        0 min,  0.000 sec (  0.004%)
 model hessian                  ...        0 min,  0.073 sec (  3.663%)
 ANC generation                 ...        0 min,  0.002 sec (  0.097%)
 coordinate transformation      ...        0 min,  0.000 sec (  0.010%)
 single point calculation       ...        0 min,  1.910 sec ( 95.690%)
 optimization log               ...        0 min,  0.005 sec (  0.262%)
 hessian update                 ...        0 min,  0.000 sec (  0.019%)
 rational function              ...        0 min,  0.003 sec (  0.163%)

================
 final structure:
================
33
 xtb: 6.7.1 (edcfbbe)
C            3.80107439659184        1.75883412552786        0.70372968026213
N            2.61599764078727        1.16121100168708        0.13660905696618
C            2.51007205788077       -0.14604448472824       -0.25139883017998
N            1.24109394976835       -0.58259124248930       -0.41418814006264
C            0.96198999663223       -1.86366039162800       -1.02310571426035
C           -0.52490956725045       -2.03225542782510       -1.28454594108213
S           -1.50590472120484       -2.51494929851884        0.17608837492457
C           -1.38408351871034       -1.01698435710520        1.24044102390751
C           -1.89130310201169        0.19311563460379        0.55996360474754
C           -3.18944338412671        0.61230912350728        0.39809532702256
C           -4.47657495638243        0.02159754169469        0.83586453883881
N           -3.10838768671506        1.77070902714974       -0.33039559099136
C           -1.80065383510968        2.00314975116900       -0.58138293527177
N           -1.04655003931253        1.07374763718750       -0.06387253256439
N            3.46792011010112       -0.97523045126698       -0.49208700011262
C            4.75003929493307       -0.83457412293913       -0.42175026300888
N            5.90478860958461       -0.86376086131215       -0.41616122797411
H            3.83288489584922        1.64670030816812        1.79300071159355
H            3.81594587061695        2.82073329740815        0.45765560314723
H            4.68624020773435        1.28763123043406        0.28206099948992
H            1.74302285960791        1.60887574204945        0.37780920371958
H            0.48826107394652        0.10574429948998       -0.39100473257279
H            1.50843073145027       -1.95013121660364       -1.97246642231562
H            1.32528682358504       -2.66273789251626       -0.36666786074453
H           -0.95713214154701       -1.11883099443866       -1.69474290585097
H           -0.69068525725558       -2.84991993448334       -1.98453774817238
H           -1.99165403423535       -1.26650917740451        2.10927985337431
H           -0.34299744092959       -0.90204037258123        1.53373303732786
H           -4.86509746792921       -0.65619051510163        0.07492310963361
H           -5.21586649238800        0.79980343071609        1.01690194017651
H           -4.33261319965896       -0.55110623980511        1.74847364526640
H           -3.88960591877812        2.33684360031808       -0.61908458014517
H           -1.43968575551904        2.84461122963504       -1.13733728509111

 Bond Distances (Angstroems)
 ---------------------------
C1-N2=1.4433         C1-H18=1.0955        C1-H19=1.0901        C1-H20=1.0878        N2-C1=1.4433         N2-C3=1.3677         
N2-H21=1.0103        C3-N2=1.3677         C3-N4=1.3518         C3-N15=1.2896        N4-C3=1.3518         N4-C5=1.4456         
N4-H22=1.0203        C5-N4=1.4456         C5-C6=1.5191         C5-H23=1.0988        C5-H24=1.0961        C6-C5=1.5191         
C6-S7=1.8245         C6-H25=1.0906        C6-H26=1.0891        S7-C6=1.8245         S7-C8=1.8416         C8-S7=1.8416         
C8-C9=1.4781         C8-H27=1.0892        C8-H28=1.0877        C9-C8=1.4781         C9-C10=1.3737        C9-N14=1.3705        
C10-C9=1.3737        C10-C11=1.4823       C10-N12=1.3708       C11-C10=1.4823       C11-H29=1.0906       C11-H30=1.0885       
C11-H31=1.0870       N12-C10=1.3708       N12-C13=1.3517       N12-H32=1.0071       C13-N12=1.3517       C13-N14=1.3039       
C13-H33=1.0712       N14-C9=1.3705        N14-C13=1.3039       N15-C3=1.2896        N15-C16=1.2917       C16-N15=1.2917       
C16-N17=1.1551       N17-C16=1.1551       H18-C1=1.0955        H19-C1=1.0901        H20-C1=1.0878        H21-N2=1.0103        
H22-N4=1.0203        H23-C5=1.0988        H24-C5=1.0961        H25-C6=1.0906        H26-C6=1.0891        H27-C8=1.0892        
H28-C8=1.0877        H29-C11=1.0906       H30-C11=1.0885       H31-C11=1.0870       H32-N12=1.0071       H33-C13=1.0712       
 C  H  Rav=1.0894 sigma=0.0063  Rmin=1.0712  Rmax=1.0988    13
 C  C  Rav=1.4633 sigma=0.0541  Rmin=1.3737  Rmax=1.5191     4
 N  H  Rav=1.0126 sigma=0.0057  Rmin=1.0071  Rmax=1.0203     3
 N  C  Rav=1.3402 sigma=0.0769  Rmin=1.1551  Rmax=1.4456    11
 S  C  Rav=1.8331 sigma=0.0086  Rmin=1.8245  Rmax=1.8416     2

 selected bond angles (degree)
 --------------------
H18-C1-N2=111.85               H19-C1-N2=109.02               H19-C1-H18=108.89              H20-C1-N2=109.66               
H20-C1-H18=108.51              H20-C1-H19=108.87              C3-N2-C1=124.81                H21-N2-C1=115.61               
H21-N2-C3=115.11               N4-C3-N2=114.55                N15-C3-N2=127.59               N15-C3-N4=117.85               
C5-N4-C3=121.21                H22-N4-C3=118.17               H22-N4-C5=117.71               C6-C5-N4=111.09                
H23-C5-N4=109.73               H23-C5-C6=109.23               H24-C5-N4=109.26               H24-C5-C6=110.28               
H24-C5-H23=107.17              S7-C6-C5=114.70                H25-C6-C5=111.08               H25-C6-S7=108.04               
H26-C6-C5=110.06               H26-C6-S7=103.54               H26-C6-H25=109.07              C8-S7-C6=102.23                
C9-C8-S7=112.16                H27-C8-S7=103.76               H27-C8-C9=111.31               H28-C8-S7=107.76               
H28-C8-C9=111.47               H28-C8-H27=110.06              C10-C9-C8=128.93               N14-C9-C8=121.61               
N14-C9-C10=109.44              C11-C10-C9=131.62              N12-C10-C9=105.34              N12-C10-C11=123.03             

 selected dihedral angles (degree)
 ---------------------------------
C3-N2-C1-H18=271.95           C3-N2-C1-H19=151.48           C3-N2-C1-H20= 32.38           H21-N2-C1-H18= 66.94          
H21-N2-C1-H19=306.47          H21-N2-C1-H20=187.37          N4-C3-N2-C1=163.11            N4-C3-N2-H21=  8.00           
N15-C3-N2-C1=341.91           N15-C3-N2-H21=186.81          C5-N4-C3-N2=170.00            C5-N4-C3-N15=351.07           
H22-N4-C3-N2=  9.78           H22-N4-C3-N15=190.85          C6-C5-N4-C3=188.64            C6-C5-N4-H22=348.94           
H23-C5-N4-C3=309.52           H23-C5-N4-H22=109.83          H24-C5-N4-C3= 66.75           H24-C5-N4-H22=227.06          
S7-C6-C5-N4=280.15            S7-C6-C5-H23=158.96           S7-C6-C5-H24= 41.43           H25-C6-C5-N4= 43.00           
H25-C6-C5-H23=281.82          H25-C6-C5-H24=164.29          H26-C6-C5-N4=163.90           H26-C6-C5-H23= 42.72          
H26-C6-C5-H24=285.19          C8-S7-C6-C5= 67.27            C8-S7-C6-H25=302.79           C8-S7-C6-H26=187.21           
C9-C8-S7-C6= 57.93            H27-C8-S7-C6=178.17           H28-C8-S7-C6=294.87           C10-C9-C8-S7= 80.46           
C10-C9-C8-H27=324.71          C10-C9-C8-H28=201.41          N14-C9-C8-S7=262.52           N14-C9-C8-H27=146.77          
N14-C9-C8-H28= 23.46          C11-C10-C9-C8=  0.20          C11-C10-C9-N14=178.35         N12-C10-C9-C8=181.48          
N12-C10-C9-N14=359.62         
           -------------------------------------------------
          |                Final Singlepoint                |
           -------------------------------------------------

          ...................................................
          :                      SETUP                      :
          :.................................................:
          :  # basis functions                  90          :
          :  # atomic orbitals                  89          :
          :  # shells                           51          :
          :  # electrons                        92          :
          :  max. iterations                   250          :
          :  Hamiltonian                  GFN2-xTB          :
          :  restarted?                      false          :
          :  GBSA solvation                  false          :
          :  PC potential                    false          :
          :  electronic temp.          300.0000000     K    :
          :  accuracy                    1.0000000          :
          :  -> integral cutoff          0.2500000E+02      :
          :  -> integral neglect         0.1000000E-07      :
          :  -> SCF convergence          0.1000000E-05 Eh   :
          :  -> wf. convergence          0.1000000E-03 e    :
          :  Broyden damping             0.4000000          :
          :  net charge                          0          :
          :  unpaired electrons                  0          :
          ...................................................

 iter      E             dE          RMSdq      gap      omega  full diag
   1    -51.0737789 -0.510738E+02  0.185E-04    3.27       0.0  T
   2    -51.0737789 -0.485727E-10  0.116E-04    3.27     150.4  T
   3    -51.0737789 -0.485656E-10  0.812E-05    3.27     214.5  T

   *** convergence criteria satisfied after 3 iterations ***

         #    Occupation            Energy/Eh            Energy/eV
      -------------------------------------------------------------
         1        2.0000           -0.7190292             -19.5658
       ...           ...                  ...                  ...
        40        2.0000           -0.4180415             -11.3755
        41        2.0000           -0.4025816             -10.9548
        42        2.0000           -0.3865502             -10.5186
        43        2.0000           -0.3712553             -10.1024
        44        2.0000           -0.3652315              -9.9385
        45        2.0000           -0.3582864              -9.7495
        46        2.0000           -0.3526928              -9.5973 (HOMO)
        47                         -0.2326771              -6.3315 (LUMO)
        48                         -0.2220432              -6.0421
        49                         -0.2032869              -5.5317
        50                         -0.1852513              -5.0409
        51                         -0.1408259              -3.8321
       ...                                ...                  ...
        89                          1.2629443              34.3665
      -------------------------------------------------------------
                  HL-Gap            0.1200156 Eh            3.2658 eV
             Fermi-level           -0.2926850 Eh           -7.9644 eV

 SCC (total)                   0 d,  0 h,  0 min,  0.026 sec
 SCC setup                      ...        0 min,  0.000 sec (  0.766%)
 Dispersion                     ...        0 min,  0.000 sec (  0.717%)
 classical contributions        ...        0 min,  0.000 sec (  0.334%)
 integral evaluation            ...        0 min,  0.005 sec ( 20.406%)
 iterations                     ...        0 min,  0.005 sec ( 17.655%)
 molecular gradient             ...        0 min,  0.015 sec ( 59.657%)
 printout                       ...        0 min,  0.000 sec (  0.440%)

         :::::::::::::::::::::::::::::::::::::::::::::::::::::
         ::                     SUMMARY                     ::
         :::::::::::::::::::::::::::::::::::::::::::::::::::::
         :: total energy             -50.362358993004 Eh    ::
         :: gradient norm              0.000862970331 Eh/a0 ::
         :: HOMO-LUMO gap              3.265791484115 eV    ::
         ::.................................................::
         :: SCC energy               -51.073539090734 Eh    ::
         :: -> isotropic ES            0.061557642193 Eh    ::
         :: -> anisotropic ES          0.007109600577 Eh    ::
         :: -> anisotropic XC          0.041182193450 Eh    ::
         :: -> dispersion             -0.033300391298 Eh    ::
         :: repulsion energy           0.711180097730 Eh    ::
         :: add. restraining           0.000000000000 Eh    ::
         :: total charge               0.000000000000 e     ::
         :::::::::::::::::::::::::::::::::::::::::::::::::::::

           -------------------------------------------------
          |                Property Printout                |
           -------------------------------------------------

    * Orbital Energies and Occupations

         #    Occupation            Energy/Eh            Energy/eV
      -------------------------------------------------------------
         1        2.0000           -0.7190292             -19.5658
       ...           ...                  ...                  ...
        34        2.0000           -0.4746501             -12.9159
        35        2.0000           -0.4727984             -12.8655
        36        2.0000           -0.4554386             -12.3931
        37        2.0000           -0.4484913             -12.2041
        38        2.0000           -0.4398016             -11.9676
        39        2.0000           -0.4328065             -11.7773
        40        2.0000           -0.4180415             -11.3755
        41        2.0000           -0.4025816             -10.9548
        42        2.0000           -0.3865502             -10.5186
        43        2.0000           -0.3712553             -10.1024
        44        2.0000           -0.3652315              -9.9385
        45        2.0000           -0.3582864              -9.7495
        46        2.0000           -0.3526928              -9.5973 (HOMO)
        47                         -0.2326771              -6.3315 (LUMO)
        48                         -0.2220432              -6.0421
        49                         -0.2032869              -5.5317
        50                         -0.1852513              -5.0409
        51                         -0.1408259              -3.8321
        52                         -0.1231318              -3.3506
        53                         -0.0759436              -2.0665
        54                         -0.0220438              -0.5998
        55                         -0.0189682              -0.5162
        56                         -0.0041447              -0.1128
        57                         -0.0005619              -0.0153
       ...                                ...                  ...
        89                          1.2629443              34.3665
      -------------------------------------------------------------
                  HL-Gap            0.1200156 Eh            3.2658 eV
             Fermi-level           -0.2926850 Eh           -7.9644 eV

     #   Z          covCN         q      C6AA      α(0)
     1   6 C        3.685    -0.035    21.411     6.625
     2   7 N        2.694    -0.200    25.339     7.476
     3   6 C        2.776     0.227    23.222     7.893
     4   7 N        2.712    -0.201    25.372     7.481
     5   6 C        3.759     0.012    20.423     6.443
     6   6 C        3.796    -0.012    20.800     6.494
     7  16 S        1.990    -0.207   149.869    20.604
     8   6 C        3.797    -0.016    20.861     6.504
     9   6 C        3.216     0.044    26.338     8.349
    10   6 C        3.066     0.031    27.238     8.558
    11   6 C        3.754    -0.113    22.713     6.796
    12   7 N        2.818    -0.100    23.188     7.152
    13   6 C        3.115     0.088    25.883     8.334
    14   7 N        1.917    -0.293    28.439     7.907
    15   7 N        1.844    -0.282    28.168     7.866
    16   6 C        1.852     0.168    27.107     8.410
    17   7 N        0.912    -0.374    29.639     7.873
    18   1 H        0.924     0.039     2.465     2.455
    19   1 H        0.925     0.048     2.339     2.392
    20   1 H        0.925     0.080     1.983     2.202
    21   1 H        0.860     0.165     1.303     1.788
    22   1 H        0.860     0.199     1.112     1.652
    23   1 H        0.923     0.052     2.296     2.370
    24   1 H        0.924     0.069     2.093     2.262
    25   1 H        0.925     0.047     2.353     2.399
    26   1 H        0.925     0.061     2.182     2.310
    27   1 H        0.925     0.057     2.236     2.339
    28   1 H        0.925     0.067     2.124     2.279
    29   1 H        0.924     0.062     2.171     2.304
    30   1 H        0.925     0.048     2.351     2.398
    31   1 H        0.925     0.060     2.198     2.318
    32   1 H        0.860     0.169     1.279     1.771
    33   1 H        0.926     0.038     2.471     2.458

 Mol. C6AA /au·bohr⁶  :      13069.328645
 Mol. C8AA /au·bohr⁸  :     325121.546489
 Mol. α(0) /au        :        176.461445


Wiberg/Mayer (AO) data.
largest (>0.10) Wiberg bond orders for each atom

 ---------------------------------------------------------------------------
     #   Z sym  total        # sym  WBO       # sym  WBO       # sym  WBO
 ---------------------------------------------------------------------------
     1   6 C    3.967 --     2 N    1.009    19 H    0.981    18 H    0.975
                            20 H    0.967
     2   7 N    3.360 --     3 C    1.172     1 C    1.009    21 H    0.940
                            15 N    0.105
     3   6 C    3.967 --    15 N    1.445     4 N    1.222     2 N    1.172
     4   7 N    3.388 --     3 C    1.222     5 C    0.999    22 H    0.874
     5   6 C    3.974 --     6 C    1.015     4 N    0.999    24 H    0.963
                            23 H    0.958
     6   6 C    3.982 --     5 C    1.015     7 S    0.992    25 H    0.971
                            26 H    0.968
     7  16 S    2.089 --     6 C    0.992     8 C    0.959
     8   6 C    3.982 --     9 C    1.039    28 H    0.968    27 H    0.963
                             7 S    0.959
     9   6 C    3.970 --    10 C    1.513    14 N    1.249     8 C    1.039
    10   6 C    3.944 --     9 C    1.513    12 N    1.193    11 C    1.035
                            13 C    0.111
    11   6 C    3.994 --    10 C    1.035    30 H    0.979    31 H    0.976
                            29 H    0.964
    12   7 N    3.587 --    13 C    1.259    10 C    1.193    32 H    0.942
                            14 N    0.106
    13   6 C    3.957 --    14 N    1.538    12 N    1.259    33 H    0.965
                            10 C    0.111
    14   7 N    3.069 --    13 C    1.538     9 C    1.249    12 N    0.106
    15   7 N    3.200 --     3 C    1.445    16 C    1.315    17 N    0.197
                             2 N    0.105
    16   6 C    3.951 --    17 N    2.586    15 N    1.315
    17   7 N    2.946 --    16 C    2.586    15 N    0.197
    18   1 H    0.998 --     1 C    0.975
    19   1 H    0.997 --     1 C    0.981
    20   1 H    0.994 --     1 C    0.967
    21   1 H    0.973 --     2 N    0.940
    22   1 H    0.960 --     4 N    0.874
    23   1 H    0.997 --     5 C    0.958
    24   1 H    0.995 --     5 C    0.963
    25   1 H    0.998 --     6 C    0.971
    26   1 H    0.996 --     6 C    0.968
    27   1 H    0.997 --     8 C    0.963
    28   1 H    0.996 --     8 C    0.968
    29   1 H    0.996 --    11 C    0.964
    30   1 H    0.998 --    11 C    0.979
    31   1 H    0.996 --    11 C    0.976
    32   1 H    0.971 --    12 N    0.942
    33   1 H    0.998 --    13 C    0.965
 ---------------------------------------------------------------------------

Topologies differ in total number of bonds
Writing topology from bond orders to xtbtopo.mol

molecular dipole:
                 x           y           z       tot (Debye)
 q only:       -3.935       1.719       0.168
   full:       -4.831       2.611       0.102      13.961
molecular quadrupole (traceless):
                xx          xy          yy          xz          yz          zz
 q only:      -26.081       6.294      12.900       6.379       0.697      13.181
  q+dip:      -31.021       1.201      13.549       9.429      -0.431      17.473
   full:      -33.744       2.441      14.390       9.029       0.623      19.354

           -------------------------------------------------
          |                Geometry Summary                 |
           -------------------------------------------------

      molecular mass/u    :      252.3394177
   center of mass at/Å    :        0.2278996      -0.2877724      -0.0520534
  moments of inertia/u·Å² :        0.6484065E+03   0.2253081E+04   0.2697799E+04
rotational constants/cm⁻¹ :        0.2599856E-01   0.7482035E-02   0.6248660E-02

 * 31 selected distances

     #   Z          #   Z                                           value/Å
     1   6 C        2   7 N                                       1.4433248
     2   7 N        3   6 C                                       1.3677308
     3   6 C        4   7 N                                       1.3518059
     4   7 N        5   6 C                                       1.4456203
     5   6 C        6   6 C                                       1.5190938 (max)
     8   6 C        9   6 C                                       1.4780608
     9   6 C       10   6 C                                       1.3737151
    10   6 C       11   6 C                                       1.4823259
    10   6 C       12   7 N                                       1.3708245
    12   7 N       13   6 C                                       1.3517365
     9   6 C       14   7 N                                       1.3705081
    13   6 C       14   7 N                                       1.3039471
     3   6 C       15   7 N                                       1.2895555
    15   7 N       16   6 C                                       1.2917281
    16   6 C       17   7 N                                       1.1551317
     1   6 C       18   1 H                                       1.0954896
     1   6 C       19   1 H                                       1.0901393
     1   6 C       20   1 H                                       1.0878214
     2   7 N       21   1 H                                       1.0102804
     4   7 N       22   1 H                                       1.0203435
     5   6 C       23   1 H                                       1.0987996
     5   6 C       24   1 H                                       1.0960932
     6   6 C       25   1 H                                       1.0906064
     6   6 C       26   1 H                                       1.0890572
     8   6 C       27   1 H                                       1.0891674
     8   6 C       28   1 H                                       1.0877007
    11   6 C       29   1 H                                       1.0905863
[...]
     J. Seibert, S. Spicher, S. Grimme, WIREs Comput. Mol. Sci., 2020, 11,
     e01493. DOI: 10.1002/wcms.1493
   
   for GFN2-xTB:
   * C. Bannwarth, S. Ehlert and S. Grimme., J. Chem. Theory Comput., 2019,
     15, 1652-1671. DOI: 10.1021/acs.jctc.8b01176
   for GFN1-xTB:
   * S. Grimme, C. Bannwarth, P. Shushkov, J. Chem. Theory Comput., 2017,
     13, 1989-2009. DOI: 10.1021/acs.jctc.7b00118
   for GFN0-xTB:
   * P. Pracht, E. Caldeweyher, S. Ehlert, S. Grimme, ChemRxiv, 2019, preprint.
     DOI: 10.26434/chemrxiv.8326202.v1
   for GFN-FF:
   * S. Spicher and S. Grimme, Angew. Chem. Int. Ed., 2020, 59, 15665-15673.
     DOI: 10.1002/anie.202004239
   
   for ALPB and GBSA implicit solvation:
   * S. Ehlert, M. Stahn, S. Spicher, S. Grimme, J. Chem. Theory Comput.,
     2021, 17, 4250-4261. DOI: 10.1021/acs.jctc.1c00471
   
   for ddCOSMO and CPCM-X implicit solvation:
   * M. Stahn, S. Ehlert, S. Grimme, J. Phys. Chem. A,
     2023, XX, XXXX-XXXX. DOI: 10.1021/acs.jpca.3c04382
   
   for DFT-D4:
   * E. Caldeweyher, C. Bannwarth and S. Grimme, J. Chem. Phys., 2017,
     147, 034112. DOI: 10.1063/1.4993215
   * E. Caldeweyher, S. Ehlert, A. Hansen, H. Neugebauer, S. Spicher,
     C. Bannwarth and S. Grimme, J. Chem. Phys., 2019, 150, 154122.
     DOI: 10.1063/1.5090222
   * E. Caldeweyher, J.-M. Mewes, S. Ehlert and S. Grimme, Phys. Chem. Chem. Phys.
     2020, 22, 8499-8512. DOI: 10.1039/D0CP00502A
   
   for sTDA-xTB:
   * S. Grimme and C. Bannwarth, J. Chem. Phys., 2016, 145, 054103.
     DOI: 10.1063/1.4959605
   
   in the mass-spec context:
   * V. Asgeirsson, C. Bauer and S. Grimme, Chem. Sci., 2017, 8, 4879.
     DOI: 10.1039/c7sc00601b
   * J. Koopman and S. Grimme, ACS Omega 2019, 4, 12, 15120-15133.
     DOI: 10.1021/acsomega.9b02011
   
   for metadynamics refer to:
   * S. Grimme, J. Chem. Theory Comput., 2019, 155, 2847-2862
     DOI: 10.1021/acs.jctc.9b00143
   
   for SPH calculations refer to:
   * S. Spicher and S. Grimme, J. Chem. Theory Comput., 2021, 17, 1701-1714
     DOI: 10.1021/acs.jctc.0c01306
   
   for ONIOM refer to:
   * C. Plett, A. Katbashev, S. Ehlert, S. Grimme, M. Bursch,
     Phys. Chem. Chem. Phys., 2023, 25, 17860-17868. DOI: 10.1039/D3CP02178E
   
   for DIPRO refer to:
   * J. Kohn, N. Gildemeister, S. Grimme, D. Fazzi, A. Hansen,
     J. Chem. Phys., 2023, just accepted.
   
   for PTB refer to:
   * S. Grimme, M. Mueller, A. Hansen, J. Chem. Phys., 2023, 158, 124111.
     DOI: 10.1063/5.0137838
   
   with help from (in alphabetical order)
   P. Atkinson, C. Bannwarth, F. Bohle, G. Brandenburg, E. Caldeweyher
   M. Checinski, S. Dohm, S. Ehlert, S. Ehrlich, I. Gerasimov, C. Hölzer
   A. Katbashev, J. Kohn, J. Koopman, C. Lavigne, S. Lehtola, F. März, M. Müller,
   F. Musil, H. Neugebauer, J. Pisarek, C. Plett, P. Pracht, F. Pultar,
   J. Seibert, P. Shushkov, S. Spicher, M. Stahn, M. Steiner, T. Strunk,
   J. Stückrath, T. Rose, and J. Unsleber
   
 * started run on 2025/05/15 at 16:17:07.009     
   ID    Z sym.   atoms
    1    6 C      1, 3, 5, 6, 8-11, 13, 16
    2    7 N      2, 4, 12, 14, 15, 17
    3   16 S      7
    4    1 H      18-33

           -------------------------------------------------
          |                Calculation Setup                |
           -------------------------------------------------

          program call               : xtb /rds/general/user/hgt20/home/callum/QDESCP/Cimetadine_rdkit_conf_2/Cimetadine_rdkit_conf_2.xyz --acc 1 --gfn 2 --chrg 0 --uhf 2 --etemp 300 --input /rds/general/user/hgt20/home/callum/QDESCP/Cimetadine_rdkit_conf_2/Cimetadine_rdkit_conf_2_xtb.inp -P 1
          hostname                   : login-c
          coordinate file            : /rds/general/user/hgt20/home/callum/QDESCP/Cimetadine_rdkit_conf_2/Cimetadine_rdkit_conf_2.xyz
          omp threads                :                     1


           -------------------------------------------------
          |                 G F N 2 - x T B                 |
           -------------------------------------------------

        Reference                      10.1021/acs.jctc.8b01176
      * Hamiltonian:
        H0-scaling (s, p, d)           1.850000    2.230000    2.230000
        zeta-weighting                 0.500000
      * Dispersion:
        s8                             2.700000
        a1                             0.520000
        a2                             5.000000
        s9                             5.000000
      * Repulsion:
        kExp                           1.500000    1.000000
        rExp                           1.000000
      * Coulomb:
        alpha                          2.000000
        third order                    shell-resolved
        anisotropic                    true
        a3                             3.000000
        a5                             4.000000
        cn-shift                       1.200000
        cn-exp                         4.000000
        max-rad                        5.000000


          ...................................................
          :                      SETUP                      :
          :.................................................:
          :  # basis functions                  90          :
          :  # atomic orbitals                  89          :
          :  # shells                           51          :
          :  # electrons                        92          :
          :  max. iterations                   250          :
          :  Hamiltonian                  GFN2-xTB          :
          :  restarted?                      false          :
          :  GBSA solvation                  false          :
          :  PC potential                    false          :
          :  electronic temp.          300.0000000     K    :
          :  accuracy                    1.0000000          :
          :  -> integral cutoff          0.2500000E+02      :
          :  -> integral neglect         0.1000000E-07      :
          :  -> SCF convergence          0.1000000E-05 Eh   :
          :  -> wf. convergence          0.1000000E-03 e    :
          :  Broyden damping             0.4000000          :
          :  net charge                          0          :
          :  unpaired electrons                  2          :
          ...................................................

 iter      E             dE          RMSdq      gap      omega  full diag
   1    -50.6262398 -0.506262E+02  0.453E+00    0.55       0.0  T
   2    -50.6019361  0.243038E-01  0.367E+00    1.77       1.0  T
   3    -50.7038072 -0.101871E+00  0.289E+00    0.40       1.0  T
   4    -50.7073737 -0.356648E-02  0.203E+00    0.55       1.0  T
   5    -50.7624016 -0.550279E-01  0.208E+00    0.17       1.0  T
   6    -50.7744088 -0.120072E-01  0.185E+00    0.25       1.0  T
   7    -50.7910799 -0.166711E-01  0.169E+00    0.11       1.0  T
   8    -50.7358666  0.552133E-01  0.153E+00    0.16       1.0  T
   9    -50.8947892 -0.158923E+00  0.136E+00    0.06       1.0  T
  10    -50.8020118  0.927774E-01  0.144E+00    0.09       1.0  T
  11    -50.8444560 -0.424441E-01  0.112E+00    0.15       1.0  T
  12    -50.9160174 -0.715614E-01  0.702E-01    0.08       1.0  T
  13    -50.8184357  0.975817E-01  0.125E+00    0.16       1.0  T
  14    -50.8883180 -0.698823E-01  0.701E-01    0.10       1.0  T
  15    -50.8877202  0.597785E-03  0.688E-01    0.10       1.0  T
  16    -50.9202831 -0.325629E-01  0.324E-01    0.05       1.0  T
  17    -50.9191657  0.111741E-02  0.213E-01    0.06       1.0  T
  18    -50.9201024 -0.936662E-03  0.146E-01    0.05       1.0  T
  19    -50.9209774 -0.875036E-03  0.727E-02    0.04       1.0  T
  20    -50.9205322  0.445192E-03  0.810E-02    0.05       1.0  T
  21    -50.9209942 -0.461946E-03  0.227E-02    0.04       1.0  T
  22    -50.9210161 -0.219238E-04  0.111E-02    0.04       1.6  T
  23    -50.9210245 -0.837074E-05  0.475E-03    0.04       3.7  T
  24    -50.9210248 -0.364519E-06  0.351E-03    0.04       5.0  T
  25    -50.9210253 -0.503587E-06  0.106E-03    0.04      16.5  T
  26    -50.9210253  0.933338E-08  0.731E-04    0.04      23.8  T
  27    -50.9210254 -0.224484E-07  0.400E-04    0.04      43.5  T

   *** convergence criteria satisfied after 27 iterations ***

         #    Occupation            Energy/Eh            Energy/eV
      -------------------------------------------------------------
         1        2.0000           -0.7207200             -19.6118
       ...           ...                  ...                  ...
        41        2.0000           -0.3963437             -10.7851
        42        2.0000           -0.3928074             -10.6888
        43        1.9973           -0.3846733             -10.4675
        44        1.8990           -0.3811228             -10.3709
        45        1.7992           -0.3803580             -10.3501
        46        1.3044           -0.3782603             -10.2930
        47        0.6791           -0.2148569              -5.8466 (HOMO)
        48        0.2981           -0.2133311              -5.8050 (LUMO)
        49        0.0229           -0.2105777              -5.7301
        50                         -0.1793275              -4.8797
        51                         -0.1476040              -4.0165
        52                         -0.1402325              -3.8159
       ...                                ...                  ...
        89                          1.2382137              33.6935
      -------------------------------------------------------------
                  HL-Gap            0.0015258 Eh            0.0415 eV
             Fermi-level           -0.2965952 Eh           -8.0708 eV

 transition dipole moment (au) for excitation:          46          47
     X       Y       Z   
  -0.6672   0.2546   0.0822  total (au/Debye):    0.719   1.827
 dE (eV)             :    4.446
 oscillator strength :  0.79612E-01

 SCC (total)                   0 d,  0 h,  0 min,  0.079 sec
 SCC setup                      ...        0 min,  0.000 sec (  0.351%)
 Dispersion                     ...        0 min,  0.000 sec (  0.369%)
 classical contributions        ...        0 min,  0.000 sec (  0.118%)
 integral evaluation            ...        0 min,  0.006 sec (  7.040%)
 iterations                     ...        0 min,  0.038 sec ( 48.264%)
 molecular gradient             ...        0 min,  0.029 sec ( 36.898%)
 printout                       ...        0 min,  0.005 sec (  6.951%)

         :::::::::::::::::::::::::::::::::::::::::::::::::::::
         ::                     SUMMARY                     ::
         :::::::::::::::::::::::::::::::::::::::::::::::::::::
         :: total energy             -50.209605464834 Eh    ::
         :: gradient norm              0.110710183185 Eh/a0 ::
         :: HOMO-LUMO gap              0.041520213202 eV    ::
         ::.................................................::
         :: SCC energy               -50.920785562564 Eh    ::
         :: -> isotropic ES            0.049907283579 Eh    ::
         :: -> anisotropic ES          0.004301953122 Eh    ::
         :: -> anisotropic XC          0.036355854760 Eh    ::
         :: -> dispersion             -0.033393689724 Eh    ::
         :: repulsion energy           0.711180097730 Eh    ::
         :: add. restraining           0.000000000000 Eh    ::
         :: total charge              -0.000000000081 e     ::
         :::::::::::::::::::::::::::::::::::::::::::::::::::::

           -------------------------------------------------
          |                Property Printout                |
           -------------------------------------------------

    * Orbital Energies and Occupations

         #    Occupation            Energy/Eh            Energy/eV
      -------------------------------------------------------------
         1        2.0000           -0.7207200             -19.6118
       ...           ...                  ...                  ...
        35        2.0000           -0.4697179             -12.7817
        36        2.0000           -0.4628210             -12.5940
        37        2.0000           -0.4574916             -12.4490
        38        2.0000           -0.4443760             -12.0921
        39        2.0000           -0.4355166             -11.8510
        40        2.0000           -0.4043197             -11.0021
        41        2.0000           -0.3963437             -10.7851
        42        2.0000           -0.3928074             -10.6888
        43        1.9973           -0.3846733             -10.4675
        44        1.8990           -0.3811228             -10.3709
        45        1.7992           -0.3803580             -10.3501
        46        1.3044           -0.3782603             -10.2930
        47        0.6791           -0.2148569              -5.8466 (HOMO)
        48        0.2981           -0.2133311              -5.8050 (LUMO)
        49        0.0229           -0.2105777              -5.7301
        50                         -0.1793275              -4.8797
        51                         -0.1476040              -4.0165
        52                         -0.1402325              -3.8159
        53                         -0.0983255              -2.6756
        54                         -0.0250363              -0.6813
        55                         -0.0228826              -0.6227
        56                         -0.0019627              -0.0534
        57                          0.0000194               0.0005
        58                          0.0182016               0.4953
       ...                                ...                  ...
        89                          1.2382137              33.6935
      -------------------------------------------------------------
                  HL-Gap            0.0015258 Eh            0.0415 eV
             Fermi-level           -0.2965952 Eh           -8.0708 eV

     #   Z          covCN         q      C6AA      α(0)
     1   6 C        3.685    -0.037    21.439     6.629
     2   7 N        2.694    -0.198    25.302     7.471
     3   6 C        2.776     0.195    23.838     7.997
     4   7 N        2.712    -0.189    25.093     7.440
     5   6 C        3.759     0.014    20.393     6.438
     6   6 C        3.796    -0.029    21.087     6.539
     7  16 S        1.990    -0.140   146.931    20.401
     8   6 C        3.797    -0.037    21.241     6.563
     9   6 C        3.216     0.035    26.544     8.381
    10   6 C        3.066     0.009    27.749     8.638
    11   6 C        3.754    -0.107    22.612     6.781
    12   7 N        2.818    -0.117    23.548     7.207
    13   6 C        3.115     0.088    25.896     8.336
    14   7 N        1.917    -0.312    28.929     7.975
    15   7 N        1.844    -0.229    26.855     7.680
    16   6 C        1.852     0.168    27.102     8.410
    17   7 N        0.912    -0.328    28.435     7.712
    18   1 H        0.924     0.041     2.433     2.439
    19   1 H        0.925     0.053     2.286     2.364
    20   1 H        0.925     0.075     2.031     2.229
    21   1 H        0.860     0.172     1.263     1.761
    22   1 H        0.860     0.207     1.071     1.621
    23   1 H        0.923     0.056     2.245     2.343
    24   1 H        0.924     0.067     2.121     2.277
    25   1 H        0.925     0.053     2.288     2.366
    26   1 H        0.925     0.063     2.168     2.303
    27   1 H        0.925     0.050     2.320     2.382
    28   1 H        0.925     0.058     2.227     2.334
    29   1 H        0.924     0.050     2.324     2.384
    30   1 H        0.925     0.039     2.457     2.451
    31   1 H        0.925     0.051     2.304     2.374
    32   1 H        0.860     0.157     1.357     1.825
    33   1 H        0.926     0.024     2.672     2.556

 Mol. C6AA /au·bohr⁶  :      13089.524637
 Mol. C8AA /au·bohr⁸  :     325154.437058
 Mol. α(0) /au        :        176.604806


Wiberg/Mayer (AO) data.
largest (>0.10) Wiberg bond orders for each atom

 ---------------------------------------------------------------------------
     #   Z sym  total        # sym  WBO       # sym  WBO       # sym  WBO
 ---------------------------------------------------------------------------
     1   6 C    3.964 --     2 N    1.012    19 H    0.979    18 H    0.973
                            20 H    0.967
     2   7 N    3.274 --     3 C    1.145     1 C    1.012    21 H    0.938
     3   6 C    3.756 --    15 N    1.316     4 N    1.183     2 N    1.145
     4   7 N    3.317 --     3 C    1.183     5 C    1.005    22 H    0.867
     5   6 C    3.964 --     6 C    1.008     4 N    1.005    24 H    0.959
                            23 H    0.949
     6   6 C    3.954 --     5 C    1.008    26 H    0.972    25 H    0.964
                             7 S    0.947
     7  16 S    2.122 --     6 C    0.947     8 C    0.840
     8   6 C    3.918 --     9 C    1.063    27 H    0.965    28 H    0.959
                             7 S    0.840
     9   6 C    3.888 --    10 C    1.374    14 N    1.241     8 C    1.063
    10   6 C    3.774 --     9 C    1.374    12 N    1.147    11 C    1.036
    11   6 C    3.995 --    10 C    1.036    30 H    0.980    31 H    0.977
                            29 H    0.963
    12   7 N    3.513 --    13 C    1.225    10 C    1.147    32 H    0.946
                            14 N    0.108
    13   6 C    3.894 --    14 N    1.516    12 N    1.225    33 H    0.966
    14   7 N    3.047 --    13 C    1.516     9 C    1.241    12 N    0.108
    15   7 N    3.039 --    16 C    1.389     3 C    1.316    17 N    0.165
    16   6 C    3.870 --    17 N    2.415    15 N    1.389
    17   7 N    2.646 --    16 C    2.415    15 N    0.165
    18   1 H    0.992 --     1 C    0.973
    19   1 H    0.994 --     1 C    0.979
    20   1 H    0.994 --     1 C    0.967
    21   1 H    0.969 --     2 N    0.938
    22   1 H    0.955 --     4 N    0.867
    23   1 H    0.985 --     5 C    0.949
    24   1 H    0.990 --     5 C    0.959
    25   1 H    0.990 --     6 C    0.964
    26   1 H    0.995 --     6 C    0.972
    27   1 H    0.995 --     8 C    0.965
    28   1 H    0.990 --     8 C    0.959
    29   1 H    0.989 --    11 C    0.963
    30   1 H    0.997 --    11 C    0.980
    31   1 H    0.995 --    11 C    0.977
    32   1 H    0.975 --    12 N    0.946
    33   1 H    0.999 --    13 C    0.966
 ---------------------------------------------------------------------------

Topologies differ in total number of bonds
Writing topology from bond orders to xtbtopo.mol

molecular dipole:
                 x           y           z       tot (Debye)
 q only:       -2.591       1.123       0.010
   full:       -3.378       2.120      -0.066      10.139
molecular quadrupole (traceless):
                xx          xy          yy          xz          yz          zz
 q only:      -23.030       7.020      12.161       5.987       1.489      10.868
  q+dip:      -26.627       0.303      10.993       8.527       0.393      15.634
   full:      -28.847       1.260      11.784       8.415       1.204      17.062


           -------------------------------------------------
          | TOTAL ENERGY              -50.209605464834 Eh   |
          | GRADIENT NORM               0.110710183185 Eh/α |
          | HOMO-LUMO GAP               0.041520213202 eV   |
           -------------------------------------------------

------------------------------------------------------------------------
 * finished run on 2025/05/15 at 16:17:07.099     
------------------------------------------------------------------------
 total:
 * wall-time:     0 d,  0 h,  0 min,  0.090 sec
 *  cpu-time:     0 d,  0 h,  0 min,  0.075 sec
 * ratio c/w:     0.834 speedup
 SCF:
 * wall-time:     0 d,  0 h,  0 min,  0.079 sec
 *  cpu-time:     0 d,  0 h,  0 min,  0.065 sec
 * ratio c/w:     0.829 speedup


