31
 energy: -58.960760857102 gnorm: 0.000902031199 xtb: 6.7.1 (edcfbbe)
N            4.84186875653524        0.89104072199580        1.37421011800180
C            3.92286857274127        0.22533369737962        0.66331862259192
N            4.27260380458410       -0.93084012235396        0.09240996061916
C            3.37233183861371       -1.60797007090412       -0.59390100171205
Cl           3.92484578882815       -3.07437683020930       -1.26545493083697
N            2.11150718840293       -1.31341845499695       -0.83090058374032
C            1.75834012298594       -0.15436032249463       -0.27030758302959
C            2.59745888660951        0.66949695513415        0.49801862335046
N            1.89276530253179        1.76682769839762        0.92243044001780
C            0.70011847040054        1.60949767105772        0.43717310192832
N            0.54699468143799        0.46687950527054       -0.29936705134842
C           -0.61383852445869       -0.05357758016359       -0.98155429154799
C           -1.17235105214155       -1.29655134966744       -0.27444510156817
C           -2.67515438103266       -1.18314620736968       -0.54404506568379
C           -2.88375365698057        0.33556772770546       -0.62292060685520
O           -1.63260594808435        0.90619102124444       -1.00907113681729
C           -3.32767429402192        0.96767803252763        0.70161526658596
O           -3.49350329127425        2.35174065432861        0.56633444004033
O           -3.06039866387271       -1.73414508435150       -1.77555007966282
H            5.78107737030638        0.53627569020136        1.40848102885919
H            4.60775194832402        1.78676286937690        1.76234293366649
H           -0.10446249780943        2.30201029842044        0.57964789751236
H           -0.30311831074744       -0.29703521450209       -2.01047188863507
H           -0.97443431661243       -1.23222386251635        0.79628838372266
H           -0.73043106055416       -2.20973055033618       -0.66560877146043
H           -3.26644203589533       -1.61920858364912        0.27342714010315
H           -3.60998520987876        0.57472748764164       -1.40714770133338
H           -4.29356710520112        0.56396523874270        1.01109355994478
H           -2.57919990194570        0.74342614058241        1.47809520140163
H           -2.74869315298224        2.68659589759232        0.05095885166436
H           -2.86091932880877       -2.67733307408410       -1.78489977577793
