----- Optimization -----
      -----------------------------------------------------------      
     |                   =====================                   |     
     |                           x T B                           |     
     |                   =====================                   |     
     |                         S. Grimme                         |     
     |          Mulliken Center for Theoretical Chemistry        |     
     |                    University of Bonn                     |     
      -----------------------------------------------------------      

   * xtb version 6.7.1 (edcfbbe) compiled by 'conda@3ef47c1a292c' on 2024-11-25

   xtb is free software: you can redistribute it and/or modify it under
   the terms of the GNU Lesser General Public License as published by
   the Free Software Foundation, either version 3 of the License, or
   (at your option) any later version.
   
   xtb is distributed in the hope that it will be useful,
   but WITHOUT ANY WARRANTY; without even the implied warranty of
   MERCHANTABILITY or FITNESS FOR A PARTICULAR PURPOSE.  See the
   GNU Lesser General Public License for more details.
   
   Cite this work as:
   * C. Bannwarth, E. Caldeweyher, S. Ehlert, A. Hansen, P. Pracht,
     J. Seibert, S. Spicher, S. Grimme, WIREs Comput. Mol. Sci., 2020, 11,
     e01493. DOI: 10.1002/wcms.1493
   
   for GFN2-xTB:
   * C. Bannwarth, S. Ehlert and S. Grimme., J. Chem. Theory Comput., 2019,
     15, 1652-1671. DOI: 10.1021/acs.jctc.8b01176
   for GFN1-xTB:
   * S. Grimme, C. Bannwarth, P. Shushkov, J. Chem. Theory Comput., 2017,
     13, 1989-2009. DOI: 10.1021/acs.jctc.7b00118
   for GFN0-xTB:
   * P. Pracht, E. Caldeweyher, S. Ehlert, S. Grimme, ChemRxiv, 2019, preprint.
     DOI: 10.26434/chemrxiv.8326202.v1
   for GFN-FF:
   * S. Spicher and S. Grimme, Angew. Chem. Int. Ed., 2020, 59, 15665-15673.
     DOI: 10.1002/anie.202004239
   
   for ALPB and GBSA implicit solvation:
   * S. Ehlert, M. Stahn, S. Spicher, S. Grimme, J. Chem. Theory Comput.,
     2021, 17, 4250-4261. DOI: 10.1021/acs.jctc.1c00471
   
   for ddCOSMO and CPCM-X implicit solvation:
   * M. Stahn, S. Ehlert, S. Grimme, J. Phys. Chem. A,
     2023, XX, XXXX-XXXX. DOI: 10.1021/acs.jpca.3c04382
   
   for DFT-D4:
   * E. Caldeweyher, C. Bannwarth and S. Grimme, J. Chem. Phys., 2017,
     147, 034112. DOI: 10.1063/1.4993215
   * E. Caldeweyher, S. Ehlert, A. Hansen, H. Neugebauer, S. Spicher,
     C. Bannwarth and S. Grimme, J. Chem. Phys., 2019, 150, 154122.
     DOI: 10.1063/1.5090222
   * E. Caldeweyher, J.-M. Mewes, S. Ehlert and S. Grimme, Phys. Chem. Chem. Phys.
     2020, 22, 8499-8512. DOI: 10.1039/D0CP00502A
   
   for sTDA-xTB:
   * S. Grimme and C. Bannwarth, J. Chem. Phys., 2016, 145, 054103.
     DOI: 10.1063/1.4959605
   
   in the mass-spec context:
   * V. Asgeirsson, C. Bauer and S. Grimme, Chem. Sci., 2017, 8, 4879.
     DOI: 10.1039/c7sc00601b
   * J. Koopman and S. Grimme, ACS Omega 2019, 4, 12, 15120-15133.
     DOI: 10.1021/acsomega.9b02011
   
   for metadynamics refer to:
   * S. Grimme, J. Chem. Theory Comput., 2019, 155, 2847-2862
     DOI: 10.1021/acs.jctc.9b00143
   
   for SPH calculations refer to:
   * S. Spicher and S. Grimme, J. Chem. Theory Comput., 2021, 17, 1701-1714
     DOI: 10.1021/acs.jctc.0c01306
   
   for ONIOM refer to:
   * C. Plett, A. Katbashev, S. Ehlert, S. Grimme, M. Bursch,
     Phys. Chem. Chem. Phys., 2023, 25, 17860-17868. DOI: 10.1039/D3CP02178E
   
   for DIPRO refer to:
   * J. Kohn, N. Gildemeister, S. Grimme, D. Fazzi, A. Hansen,
     J. Chem. Phys., 2023, just accepted.
   
   for PTB refer to:
   * S. Grimme, M. Mueller, A. Hansen, J. Chem. Phys., 2023, 158, 124111.
     DOI: 10.1063/5.0137838
   
   with help from (in alphabetical order)
   P. Atkinson, C. Bannwarth, F. Bohle, G. Brandenburg, E. Caldeweyher
   M. Checinski, S. Dohm, S. Ehlert, S. Ehrlich, I. Gerasimov, C. Hölzer
   A. Katbashev, J. Kohn, J. Koopman, C. Lavigne, S. Lehtola, F. März, M. Müller,
   F. Musil, H. Neugebauer, J. Pisarek, C. Plett, P. Pracht, F. Pultar,
   J. Seibert, P. Shushkov, S. Spicher, M. Stahn, M. Steiner, T. Strunk,
   J. Stückrath, T. Rose, and J. Unsleber
   
 * started run on 2025/05/15 at 16:24:17.847     
   ID    Z sym.   atoms
    1    7 N      1, 3, 6, 9, 11
    2    6 C      2, 4, 7, 8, 10, 12-15, 17
    3   17 Cl     5
    4    8 O      16, 18, 19
    5    1 H      20-31

           -------------------------------------------------
          |                Calculation Setup                |
           -------------------------------------------------

          program call               : xtb /rds/general/user/hgt20/home/callum/QDESCP/Cladribine_rdkit_conf_9/Cladribine_rdkit_conf_9.xyz --opt normal --acc 1 --gfn 2 --chrg 0 --uhf 0 -P 1
          hostname                   : login-c
          coordinate file            : /rds/general/user/hgt20/home/callum/QDESCP/Cladribine_rdkit_conf_9/Cladribine_rdkit_conf_9.xyz
          omp threads                :                     1


           -------------------------------------------------
          |                 G F N 2 - x T B                 |
           -------------------------------------------------

        Reference                      10.1021/acs.jctc.8b01176
      * Hamiltonian:
        H0-scaling (s, p, d)           1.850000    2.230000    2.230000
        zeta-weighting                 0.500000
      * Dispersion:
        s8                             2.700000
        a1                             0.520000
        a2                             5.000000
        s9                             5.000000
      * Repulsion:
        kExp                           1.500000    1.000000
        rExp                           1.000000
      * Coulomb:
        alpha                          2.000000
        third order                    shell-resolved
        anisotropic                    true
        a3                             3.000000
        a5                             4.000000
        cn-shift                       1.200000
        cn-exp                         4.000000
        max-rad                        5.000000


          ...................................................
          :                      SETUP                      :
          :.................................................:
          :  # basis functions                  94          :
          :  # atomic orbitals                  93          :
          :  # shells                           51          :
          :  # electrons                       102          :
          :  max. iterations                   250          :
          :  Hamiltonian                  GFN2-xTB          :
          :  restarted?                      false          :
          :  GBSA solvation                  false          :
          :  PC potential                    false          :
          :  electronic temp.          300.0000000     K    :
          :  accuracy                    1.0000000          :
          :  -> integral cutoff          0.2500000E+02      :
          :  -> integral neglect         0.1000000E-07      :
          :  -> SCF convergence          0.1000000E-05 Eh   :
          :  -> wf. convergence          0.1000000E-03 e    :
          :  Broyden damping             0.4000000          :
          :  net charge                          0          :
          :  unpaired electrons                  0          :
          ...................................................

 iter      E             dE          RMSdq      gap      omega  full diag
   1    -59.3716090 -0.593716E+02  0.442E+00    2.95       0.0  T
   2    -59.4951594 -0.123550E+00  0.265E+00    3.32       1.0  T
   3    -59.5075010 -0.123417E-01  0.128E+00    3.17       1.0  T
   4    -59.5125829 -0.508184E-02  0.264E-01    3.10       1.0  T
   5    -59.5137135 -0.113060E-02  0.105E-01    3.07       1.0  T
   6    -59.5138045 -0.910069E-04  0.550E-02    3.06       1.0  T
   7    -59.5138331 -0.286772E-04  0.325E-02    3.07       1.0  T
   8    -59.5138401 -0.698706E-05  0.180E-02    3.07       1.0  T
   9    -59.5138425 -0.238305E-05  0.140E-02    3.07       1.3  T
  10    -59.5138447 -0.214427E-05  0.902E-03    3.07       2.0  T
  11    -59.5138459 -0.119777E-05  0.406E-03    3.07       4.4  T
  12    -59.5138461 -0.214721E-06  0.198E-03    3.07       9.1  T
  13    -59.5138461 -0.364717E-07  0.602E-04    3.07      29.8  T
  14    -59.5138461 -0.275897E-08  0.310E-04    3.07      58.0  T

   *** convergence criteria satisfied after 14 iterations ***

         #    Occupation            Energy/Eh            Energy/eV
      -------------------------------------------------------------
         1        2.0000           -1.0580555             -28.7912
       ...           ...                  ...                  ...
        45        2.0000           -0.4313010             -11.7363
        46        2.0000           -0.4278212             -11.6416
        47        2.0000           -0.4253104             -11.5733
        48        2.0000           -0.4225399             -11.4979
        49        2.0000           -0.4104244             -11.1682
        50        2.0000           -0.3987818             -10.8514
        51        2.0000           -0.3888592             -10.5814 (HOMO)
        52                         -0.2761456              -7.5143 (LUMO)
        53                         -0.2497272              -6.7954
        54                         -0.2170810              -5.9071
        55                         -0.1449351              -3.9439
        56                         -0.1237499              -3.3674
       ...                                ...                  ...
        93                          0.6186857              16.8353
      -------------------------------------------------------------
                  HL-Gap            0.1127136 Eh            3.0671 eV
             Fermi-level           -0.3325024 Eh           -9.0479 eV

 SCC (total)                   0 d,  0 h,  0 min,  0.059 sec
 SCC setup                      ...        0 min,  0.000 sec (  0.461%)
 Dispersion                     ...        0 min,  0.000 sec (  0.447%)
 classical contributions        ...        0 min,  0.000 sec (  0.146%)
 integral evaluation            ...        0 min,  0.006 sec (  9.522%)
 iterations                     ...        0 min,  0.037 sec ( 62.931%)
 molecular gradient             ...        0 min,  0.016 sec ( 26.246%)
 printout                       ...        0 min,  0.000 sec (  0.237%)

         :::::::::::::::::::::::::::::::::::::::::::::::::::::
         ::                     SUMMARY                     ::
         :::::::::::::::::::::::::::::::::::::::::::::::::::::
         :: total energy             -58.949033539623 Eh    ::
         :: gradient norm              0.092199903743 Eh/a0 ::
         :: HOMO-LUMO gap              3.067093720066 eV    ::
         ::.................................................::
         :: SCC energy               -59.513727904241 Eh    ::
         :: -> isotropic ES            0.114513162421 Eh    ::
         :: -> anisotropic ES          0.000854779009 Eh    ::
         :: -> anisotropic XC          0.019864772123 Eh    ::
         :: -> dispersion             -0.033002575333 Eh    ::
         :: repulsion energy           0.564694364618 Eh    ::
         :: add. restraining           0.000000000000 Eh    ::
         :: total charge               0.000000000000 e     ::
         :::::::::::::::::::::::::::::::::::::::::::::::::::::

      ----------------------------------------------------------- 
     |                   =====================                   |
     |                        A N C O P T                        |
     |                   =====================                   |
     |               Approximate Normal Coordinate               |
     |                Rational Function Optimizer                |
      ----------------------------------------------------------- 
      ----------------------------------------------------------- 
     |                   =====================                   |
     |                        A N C O P T                        |
     |                   =====================                   |
     |               Approximate Normal Coordinate               |
     |                Rational Function Optimizer                |
      ----------------------------------------------------------- 

          ...................................................
          :                      SETUP                      :
          :.................................................:
          :   optimization level            normal          :
          :   max. optcycles                   200          :
          :   ANC micro-cycles                  20          :
          :   degrees of freedom                87          :
          :.................................................:
          :   RF solver                   davidson          :
          :   write xtbopt.log                true          :
          :   linear?                        false          :
          :   energy convergence         0.5000000E-05 Eh   :
          :   grad. convergence          0.1000000E-02 Eh/α :
          :   maxmium RF displ.          1.0000000          :
          :   Hlow (freq-cutoff)         0.1000000E-01      :
          :   Hmax (freq-cutoff)         5.0000000          :
          :   S6 in model hess.         20.0000000          :
          ...................................................

generating ANC from exact Hessian ...
Using Lindh-Hessian (1995)
 Shifting diagonal of input Hessian by    9.1112365903930261E-003
 Lowest  eigenvalues of input Hessian
    0.000000    0.000000    0.000000    0.000000    0.000000    0.000000
    0.010000    0.010250    0.010528    0.013106    0.014478    0.015583
    0.017556    0.018555    0.020539    0.022936    0.026603    0.029891
 Highest eigenvalues
    1.788650    1.926743    2.064679    2.093683    2.174519    2.292943


........................................................................
.............................. CYCLE    1 ..............................
........................................................................

 iter      E             dE          RMSdq      gap      omega  full diag
   1    -59.5138461 -0.595138E+02  0.199E-04    3.07       0.0  T
   2    -59.5138461 -0.158735E-09  0.163E-04    3.07     109.9  T
   3    -59.5138461 -0.111051E-09  0.111E-04    3.07     161.3  T
     SCC iter.                  ...        0 min,  0.005 sec
     gradient                   ...        0 min,  0.045 sec
 * total energy  :   -58.9490335 Eh     change       -0.8112195E-09 Eh
   gradient norm :     0.0922004 Eh/α   predicted     0.0000000E+00 (-100.00%)
   displ. norm   :     0.2421260 α      lambda       -0.1162904E-01
   maximum displ.:     0.1127873 α      in ANC's #13, #17, #39, ...

........................................................................
.............................. CYCLE    2 ..............................
........................................................................

 iter      E             dE          RMSdq      gap      omega  full diag
   1    -59.5452769 -0.595453E+02  0.213E-01    3.18       0.0  T
   2    -59.5454442 -0.167311E-03  0.128E-01    3.14       1.0  T
   3    -59.5454640 -0.197978E-04  0.719E-02    3.16       1.0  T
   4    -59.5455070 -0.430317E-04  0.189E-02    3.15       1.0  T
   5    -59.5455126 -0.556260E-05  0.111E-02    3.15       1.6  T
   6    -59.5455133 -0.739578E-06  0.843E-03    3.15       2.1  T
   7    -59.5455140 -0.650112E-06  0.609E-03    3.15       3.0  T
   8    -59.5455145 -0.564939E-06  0.268E-03    3.15       6.7  T
   9    -59.5455146 -0.810823E-07  0.137E-03    3.15      13.1  T
  10    -59.5455146 -0.271003E-07  0.436E-04    3.15      41.2  T
  11    -59.5455146 -0.204486E-08  0.205E-04    3.15      87.7  T
     SCC iter.                  ...        0 min,  0.016 sec
     gradient                   ...        0 min,  0.016 sec
 * total energy  :   -58.9571058 Eh     change       -0.8072259E-02 Eh
   gradient norm :     0.0425369 Eh/α   predicted    -0.6156425E-02 ( -23.73%)
   displ. norm   :     0.2010796 α      lambda       -0.4010830E-02
   maximum displ.:     0.0783987 α      in ANC's #13, #17, #6, ...

........................................................................
.............................. CYCLE    3 ..............................
........................................................................

 iter      E             dE          RMSdq      gap      omega  full diag
   1    -59.5619775 -0.595620E+02  0.154E-01    3.23       0.0  T
   2    -59.5621157 -0.138276E-03  0.907E-02    3.20       1.0  T
   3    -59.5621421 -0.263889E-04  0.514E-02    3.21       1.0  T
   4    -59.5621567 -0.145979E-04  0.149E-02    3.21       1.2  T
   5    -59.5621607 -0.392935E-05  0.752E-03    3.21       2.4  T
   6    -59.5621610 -0.342323E-06  0.553E-03    3.21       3.2  T
   7    -59.5621613 -0.256134E-06  0.418E-03    3.21       4.3  T
   8    -59.5621615 -0.250320E-06  0.205E-03    3.21       8.7  T
   9    -59.5621616 -0.513830E-07  0.100E-03    3.21      17.9  T
  10    -59.5621616 -0.156633E-07  0.325E-04    3.21      55.2  T
  11    -59.5621616 -0.954081E-09  0.151E-04    3.21     119.3  T
     SCC iter.                  ...        0 min,  0.016 sec
     gradient                   ...        0 min,  0.043 sec
 * total energy  :   -58.9593661 Eh     change       -0.2260283E-02 Eh
   gradient norm :     0.0125341 Eh/α   predicted    -0.2087138E-02 (  -7.66%)
   displ. norm   :     0.1147297 α      lambda       -0.5347965E-03
   maximum displ.:     0.0651068 α      in ANC's #6, #17, #13, ...

........................................................................
.............................. CYCLE    4 ..............................
........................................................................

 iter      E             dE          RMSdq      gap      omega  full diag
   1    -59.5613057 -0.595613E+02  0.539E-02    3.22       0.0  T
   2    -59.5613151 -0.933917E-05  0.308E-02    3.21       1.0  T
   3    -59.5613142  0.847788E-06  0.157E-02    3.22       1.1  T
   4    -59.5613172 -0.299503E-05  0.378E-03    3.21       4.7  T
   5    -59.5613175 -0.317681E-06  0.167E-03    3.21      10.7  T
   6    -59.5613176 -0.188012E-07  0.722E-04    3.21      24.9  T
   7    -59.5613176 -0.462180E-08  0.387E-04    3.21      46.4  T
     SCC iter.                  ...        0 min,  0.010 sec
     gradient                   ...        0 min,  0.016 sec
 * total energy  :   -58.9597773 Eh     change       -0.4112106E-03 Eh
   gradient norm :     0.0103187 Eh/α   predicted    -0.2709342E-03 ( -34.11%)
   displ. norm   :     0.1883192 α      lambda       -0.5788703E-03
   maximum displ.:     0.1262260 α      in ANC's #6, #17, #8, ...

........................................................................
.............................. CYCLE    5 ..............................
........................................................................

 iter      E             dE          RMSdq      gap      omega  full diag
   1    -59.5589532 -0.595590E+02  0.777E-02    3.23       0.0  T
   2    -59.5589666 -0.134050E-04  0.452E-02    3.22       1.0  T
   3    -59.5589624  0.423909E-05  0.209E-02    3.22       1.0  T
   4    -59.5589704 -0.802479E-05  0.504E-03    3.22       3.6  T
   5    -59.5589708 -0.421943E-06  0.251E-03    3.22       7.2  T
   6    -59.5589709 -0.359771E-07  0.110E-03    3.22      16.3  T
   7    -59.5589709 -0.108996E-07  0.683E-04    3.22      26.3  T
   8    -59.5589709 -0.330699E-08  0.469E-04    3.22      38.3  T
     SCC iter.                  ...        0 min,  0.012 sec
     gradient                   ...        0 min,  0.049 sec
 * total energy  :   -58.9601539 Eh     change       -0.3765618E-03 Eh
   gradient norm :     0.0084908 Eh/α   predicted    -0.2997079E-03 ( -20.41%)
   displ. norm   :     0.1390565 α      lambda       -0.2275130E-03
   maximum displ.:     0.1048337 α      in ANC's #6, #8, #9, ...

........................................................................
.............................. CYCLE    6 ..............................
........................................................................

 iter      E             dE          RMSdq      gap      omega  full diag
   1    -59.5589934 -0.595590E+02  0.502E-02    3.23       0.0  T
   2    -59.5589971 -0.367332E-05  0.296E-02    3.23       1.0  T
   3    -59.5589948  0.226260E-05  0.122E-02    3.23       1.5  T
   4    -59.5589983 -0.344120E-05  0.294E-03    3.23       6.1  T
   5    -59.5589984 -0.121605E-06  0.147E-03    3.23      12.2  T
   6    -59.5589984 -0.846361E-08  0.538E-04    3.23      33.4  T
   7    -59.5589984 -0.296448E-08  0.319E-04    3.23      56.3  T
     SCC iter.                  ...        0 min,  0.010 sec
     gradient                   ...        0 min,  0.015 sec
 * total energy  :   -58.9603283 Eh     change       -0.1744147E-03 Eh
   gradient norm :     0.0069077 Eh/α   predicted    -0.1160055E-03 ( -33.49%)
   displ. norm   :     0.1961636 α      lambda       -0.2488991E-03
   maximum displ.:     0.1460503 α      in ANC's #6, #9, #8, ...

........................................................................
.............................. CYCLE    7 ..............................
........................................................................

 iter      E             dE          RMSdq      gap      omega  full diag
   1    -59.5602847 -0.595603E+02  0.683E-02    3.24       0.0  T
   2    -59.5602896 -0.490971E-05  0.404E-02    3.24       1.0  T
   3    -59.5602858  0.381884E-05  0.145E-02    3.24       1.2  T
   4    -59.5602912 -0.546512E-05  0.364E-03    3.24       4.9  T
   5    -59.5602914 -0.159102E-06  0.183E-03    3.24       9.8  T
   6    -59.5602914 -0.119490E-07  0.571E-04    3.24      31.4  T
   7    -59.5602914 -0.345672E-08  0.338E-04    3.24      53.2  T
     SCC iter.                  ...        0 min,  0.010 sec
     gradient                   ...        0 min,  0.049 sec
 * total energy  :   -58.9605005 Eh     change       -0.1722433E-03 Eh
   gradient norm :     0.0043498 Eh/α   predicted    -0.1292556E-03 ( -24.96%)
   displ. norm   :     0.1408416 α      lambda       -0.1073394E-03
   maximum displ.:     0.0998981 α      in ANC's #6, #2, #9, ...

........................................................................
.............................. CYCLE    8 ..............................
........................................................................

 iter      E             dE          RMSdq      gap      omega  full diag
   1    -59.5616527 -0.595617E+02  0.473E-02    3.25       0.0  T
   2    -59.5616544 -0.172278E-05  0.279E-02    3.25       1.0  T
   3    -59.5616532  0.122086E-05  0.826E-03    3.25       2.2  T
   4    -59.5616550 -0.182083E-05  0.240E-03    3.25       7.5  T
   5    -59.5616551 -0.519511E-07  0.129E-03    3.25      13.9  T
   6    -59.5616551 -0.773083E-08  0.551E-04    3.25      32.6  T
   7    -59.5616551 -0.254263E-08  0.399E-04    3.25      45.0  T
     SCC iter.                  ...        0 min,  0.010 sec
     gradient                   ...        0 min,  0.016 sec
 * total energy  :   -58.9605725 Eh     change       -0.7197226E-04 Eh
   gradient norm :     0.0030697 Eh/α   predicted    -0.5475032E-04 ( -23.93%)
   displ. norm   :     0.0861436 α      lambda       -0.4003130E-04
   maximum displ.:     0.0532537 α      in ANC's #6, #2, #9, ...

........................................................................
.............................. CYCLE    9 ..............................
........................................................................

 iter      E             dE          RMSdq      gap      omega  full diag
   1    -59.5624744 -0.595625E+02  0.277E-02    3.25       0.0  T
   2    -59.5624748 -0.382240E-06  0.164E-02    3.25       1.1  T
   3    -59.5624747  0.138832E-06  0.328E-03    3.25       5.5  T
   4    -59.5624750 -0.296546E-06  0.129E-03    3.25      13.9  T
   5    -59.5624750 -0.577104E-08  0.597E-04    3.25      30.1  T
   6    -59.5624750 -0.365291E-08  0.288E-04    3.25      62.3  T
     SCC iter.                  ...        0 min,  0.009 sec
     gradient                   ...        0 min,  0.015 sec
 * total energy  :   -58.9606002 Eh     change       -0.2768491E-04 Eh
   gradient norm :     0.0023240 Eh/α   predicted    -0.2017672E-04 ( -27.12%)
   displ. norm   :     0.0723235 α      lambda       -0.2423895E-04
   maximum displ.:     0.0373817 α      in ANC's #6, #2, #3, ...

........................................................................
.............................. CYCLE   10 ..............................
........................................................................

 iter      E             dE          RMSdq      gap      omega  full diag
   1    -59.5626007 -0.595626E+02  0.226E-02    3.25       0.0  T
   2    -59.5626009 -0.231614E-06  0.133E-02    3.25       1.3  T
   3    -59.5626009 -0.875588E-08  0.214E-03    3.25       8.4  T
   4    -59.5626010 -0.944186E-07  0.111E-03    3.25      16.2  T
   5    -59.5626010 -0.362134E-08  0.496E-04    3.25      36.2  T
   6    -59.5626010 -0.336115E-08  0.301E-04    3.25      59.7  T
     SCC iter.                  ...        0 min,  0.009 sec
     gradient                   ...        0 min,  0.015 sec
 * total energy  :   -58.9606174 Eh     change       -0.1718062E-04 Eh
   gradient norm :     0.0021934 Eh/α   predicted    -0.1218665E-04 ( -29.07%)
   displ. norm   :     0.0747955 α      lambda       -0.2386652E-04
   maximum displ.:     0.0342460 α      in ANC's #2, #1, #3, ...

........................................................................
.............................. CYCLE   11 ..............................
........................................................................

 iter      E             dE          RMSdq      gap      omega  full diag
   1    -59.5627207 -0.595627E+02  0.218E-02    3.25       0.0  T
   2    -59.5627210 -0.262040E-06  0.129E-02    3.25       1.4  T
   3    -59.5627210 -0.126373E-08  0.230E-03    3.25       7.8  T
   4    -59.5627210 -0.919527E-07  0.110E-03    3.25      16.3  T
   5    -59.5627211 -0.711529E-08  0.646E-04    3.25      27.8  T
   6    -59.5627211 -0.406943E-08  0.292E-04    3.25      61.5  T
     SCC iter.                  ...        0 min,  0.009 sec
     gradient                   ...        0 min,  0.015 sec
 * total energy  :   -58.9606318 Eh     change       -0.1447867E-04 Eh
   gradient norm :     0.0023898 Eh/α   predicted    -0.1201098E-04 ( -17.04%)
   displ. norm   :     0.0669710 α      lambda       -0.1902413E-04
   maximum displ.:     0.0307097 α      in ANC's #3, #1, #2, ...

........................................................................
.............................. CYCLE   12 ..............................
........................................................................

 iter      E             dE          RMSdq      gap      omega  full diag
   1    -59.5622187 -0.595622E+02  0.195E-02    3.25       0.0  T
   2    -59.5622189 -0.173769E-06  0.116E-02    3.25       1.6  T
   3    -59.5622189 -0.597055E-07  0.153E-03    3.25      11.8  T
   4    -59.5622189 -0.152764E-07  0.902E-04    3.25      19.9  T
   5    -59.5622189 -0.257522E-08  0.377E-04    3.25      47.6  T
     SCC iter.                  ...        0 min,  0.040 sec
     gradient                   ...        0 min,  0.016 sec
 * total energy  :   -58.9606430 Eh     change       -0.1115384E-04 Eh
   gradient norm :     0.0021162 Eh/α   predicted    -0.9554956E-05 ( -14.33%)
   displ. norm   :     0.0449016 α      lambda       -0.1362616E-04
   maximum displ.:     0.0283039 α      in ANC's #1, #3, #2, ...

........................................................................
.............................. CYCLE   13 ..............................
........................................................................

 iter      E             dE          RMSdq      gap      omega  full diag
   1    -59.5620668 -0.595621E+02  0.118E-02    3.25       0.0  T
   2    -59.5620668 -0.735448E-07  0.713E-03    3.25       2.5  T
   3    -59.5620668 -0.388688E-09  0.127E-03    3.25      14.1  T
   4    -59.5620669 -0.280053E-07  0.600E-04    3.25      30.0  T
   5    -59.5620669 -0.181179E-08  0.306E-04    3.25      58.7  T
     SCC iter.                  ...        0 min,  0.007 sec
     gradient                   ...        0 min,  0.015 sec
 * total energy  :   -58.9606535 Eh     change       -0.1052296E-04 Eh
   gradient norm :     0.0014785 Eh/α   predicted    -0.6832386E-05 ( -35.07%)
   displ. norm   :     0.0962753 α      lambda       -0.1737657E-04
   maximum displ.:     0.0577457 α      in ANC's #1, #3, #6, ...

........................................................................
.............................. CYCLE   14 ..............................
........................................................................

 iter      E             dE          RMSdq      gap      omega  full diag
   1    -59.5621838 -0.595622E+02  0.241E-02    3.25       0.0  T
   2    -59.5621842 -0.332748E-06  0.147E-02    3.25       1.2  T
   3    -59.5621841  0.649762E-07  0.292E-03    3.25       6.1  T
   4    -59.5621843 -0.177335E-06  0.113E-03    3.25      15.9  T
   5    -59.5621843 -0.784531E-08  0.653E-04    3.25      27.5  T
   6    -59.5621843 -0.239767E-08  0.362E-04    3.25      49.6  T
     SCC iter.                  ...        0 min,  0.009 sec
     gradient                   ...        0 min,  0.043 sec
 * total energy  :   -58.9606663 Eh     change       -0.1278850E-04 Eh
   gradient norm :     0.0017717 Eh/α   predicted    -0.8726132E-05 ( -31.77%)
   displ. norm   :     0.0632722 α      lambda       -0.9243457E-05
   maximum displ.:     0.0355482 α      in ANC's #1, #3, #2, ...

........................................................................
.............................. CYCLE   15 ..............................
........................................................................

 iter      E             dE          RMSdq      gap      omega  full diag
   1    -59.5616901 -0.595617E+02  0.179E-02    3.25       0.0  T
   2    -59.5616903 -0.214625E-06  0.104E-02    3.25       1.7  T
   3    -59.5616902  0.955893E-07  0.263E-03    3.25       6.8  T
   4    -59.5616903 -0.171829E-06  0.910E-04    3.25      19.7  T
   5    -59.5616904 -0.519037E-08  0.474E-04    3.25      37.9  T
     SCC iter.                  ...        0 min,  0.007 sec
     gradient                   ...        0 min,  0.015 sec
 * total energy  :   -58.9606726 Eh     change       -0.6281168E-05 Eh
   gradient norm :     0.0027394 Eh/α   predicted    -0.4630703E-05 ( -26.28%)
   displ. norm   :     0.0411465 α      lambda       -0.1255557E-04
   maximum displ.:     0.0228160 α      in ANC's #1, #3, #2, ...

........................................................................
.............................. CYCLE   16 ..............................
........................................................................

 iter      E             dE          RMSdq      gap      omega  full diag
   1    -59.5620669 -0.595621E+02  0.103E-02    3.25       0.0  T
   2    -59.5620670 -0.739083E-07  0.609E-03    3.25       3.0  T
   3    -59.5620670  0.413013E-07  0.156E-03    3.25      11.5  T
   4    -59.5620670 -0.601344E-07  0.499E-04    3.25      36.0  T
   5    -59.5620670 -0.386515E-08  0.286E-04    3.25      62.7  T
     SCC iter.                  ...        0 min,  0.007 sec
     gradient                   ...        0 min,  0.016 sec
 * total energy  :   -58.9606820 Eh     change       -0.9403159E-05 Eh
   gradient norm :     0.0014964 Eh/α   predicted    -0.6290237E-05 ( -33.11%)
   displ. norm   :     0.1172828 α      lambda       -0.1104788E-04
   maximum displ.:     0.0699568 α      in ANC's #1, #3, #2, ...

........................................................................
.............................. CYCLE   17 ..............................
........................................................................

 iter      E             dE          RMSdq      gap      omega  full diag
   1    -59.5623194 -0.595623E+02  0.265E-02    3.25       0.0  T
   2    -59.5623199 -0.480192E-06  0.157E-02    3.25       1.1  T
   3    -59.5623196  0.267272E-06  0.400E-03    3.25       4.5  T
   4    -59.5623200 -0.406109E-06  0.130E-03    3.25      13.8  T
   5    -59.5623200 -0.214137E-07  0.769E-04    3.25      23.3  T
   6    -59.5623200 -0.355371E-08  0.364E-04    3.25      49.3  T
     SCC iter.                  ...        0 min,  0.010 sec
     gradient                   ...        0 min,  0.034 sec
 * total energy  :   -58.9606900 Eh     change       -0.8027757E-05 Eh
   gradient norm :     0.0015528 Eh/α   predicted    -0.5558248E-05 ( -30.76%)
   displ. norm   :     0.0435212 α      lambda       -0.4157188E-05
   maximum displ.:     0.0247535 α      in ANC's #1, #3, #2, ...

........................................................................
.............................. CYCLE   18 ..............................
........................................................................

 iter      E             dE          RMSdq      gap      omega  full diag
   1    -59.5623072 -0.595623E+02  0.981E-03    3.25       0.0  T
   2    -59.5623072 -0.528092E-07  0.586E-03    3.25       3.1  T
   3    -59.5623072  0.226293E-07  0.121E-03    3.25      14.9  T
   4    -59.5623072 -0.412050E-07  0.468E-04    3.25      38.4  T
   5    -59.5623073 -0.136219E-08  0.280E-04    3.25      64.1  T
     SCC iter.                  ...        0 min,  0.007 sec
     gradient                   ...        0 min,  0.015 sec
 * total energy  :   -58.9606954 Eh     change       -0.5432172E-05 Eh
   gradient norm :     0.0009785 Eh/α   predicted    -0.2081506E-05 ( -61.68%)
   displ. norm   :     0.1156131 α      lambda       -0.1141162E-04
   maximum displ.:     0.0618023 α      in ANC's #3, #1, #5, ...

........................................................................
.............................. CYCLE   19 ..............................
........................................................................

 iter      E             dE          RMSdq      gap      omega  full diag
   1    -59.5622328 -0.595622E+02  0.266E-02    3.25       0.0  T
   2    -59.5622331 -0.319826E-06  0.160E-02    3.25       1.1  T
   3    -59.5622330  0.976343E-07  0.281E-03    3.25       6.4  T
   4    -59.5622332 -0.198899E-06  0.992E-04    3.25      18.1  T
   5    -59.5622332 -0.579288E-08  0.507E-04    3.25      35.4  T
     SCC iter.                  ...        0 min,  0.007 sec
     gradient                   ...        0 min,  0.049 sec
 * total energy  :   -58.9607076 Eh     change       -0.1219304E-04 Eh
   gradient norm :     0.0011567 Eh/α   predicted    -0.5740945E-05 ( -52.92%)
   displ. norm   :     0.1659767 α      lambda       -0.1011169E-04
   maximum displ.:     0.0905909 α      in ANC's #1, #3, #2, ...

........................................................................
.............................. CYCLE   20 ..............................
........................................................................

 iter      E             dE          RMSdq      gap      omega  full diag
   1    -59.5619773 -0.595620E+02  0.366E-02    3.24       0.0  T
   2    -59.5619778 -0.516886E-06  0.220E-02    3.25       1.0  T
   3    -59.5619777  0.984248E-07  0.342E-03    3.24       5.3  T
   4    -59.5619780 -0.270390E-06  0.130E-03    3.25      13.8  T
   5    -59.5619780 -0.815515E-08  0.730E-04    3.25      24.6  T
   6    -59.5619780 -0.384226E-08  0.278E-04    3.25      64.5  T
     SCC iter.                  ...        0 min,  0.009 sec
     gradient                   ...        0 min,  0.015 sec
 * total energy  :   -58.9607195 Eh     change       -0.1187640E-04 Eh
   gradient norm :     0.0017853 Eh/α   predicted    -0.5120393E-05 ( -56.89%)
   displ. norm   :     0.2555086 α      lambda       -0.1512939E-04
   maximum displ.:     0.1385790 α      in ANC's #1, #3, #2, ...
 * RMSD in coord.:     0.2986901 α      energy gain  -0.1168597E-01 Eh

generating ANC from exact Hessian ...
Using Lindh-Hessian (1995)
 Shifting diagonal of input Hessian by    9.0350450562114749E-003
 Lowest  eigenvalues of input Hessian
    0.000000    0.000000    0.000000    0.000000    0.000000    0.000000
    0.010000    0.010203    0.010538    0.013194    0.014573    0.015365
    0.017756    0.019374    0.020839    0.025768    0.027599    0.031041
 Highest eigenvalues
    1.946653    2.018121    2.153552    2.202073    2.320638    2.350744


........................................................................
.............................. CYCLE   21 ..............................
........................................................................

 iter      E             dE          RMSdq      gap      omega  full diag
   1    -59.5615717 -0.595616E+02  0.550E-02    3.24       0.0  T
   2    -59.5615727 -0.989491E-06  0.332E-02    3.24       1.0  T
   3    -59.5615727 -0.133243E-07  0.424E-03    3.24       4.2  T
   4    -59.5615730 -0.326718E-06  0.178E-03    3.24      10.1  T
   5    -59.5615730 -0.126429E-07  0.988E-04    3.24      18.2  T
   6    -59.5615730 -0.750050E-08  0.317E-04    3.24      56.6  T
     SCC iter.                  ...        0 min,  0.009 sec
     gradient                   ...        0 min,  0.048 sec
 * total energy  :   -58.9607356 Eh     change       -0.1613235E-04 Eh
   gradient norm :     0.0023366 Eh/α   predicted     0.0000000E+00 (-100.00%)
   displ. norm   :     0.0182507 α      lambda       -0.1239004E-04
   maximum displ.:     0.0100031 α      in ANC's #2, #15, #10, ...

........................................................................
.............................. CYCLE   22 ..............................
........................................................................

 iter      E             dE          RMSdq      gap      omega  full diag
   1    -59.5620892 -0.595621E+02  0.801E-03    3.24       0.0  T
   2    -59.5620893 -0.763916E-07  0.468E-03    3.24       3.8  T
   3    -59.5620892  0.422611E-07  0.150E-03    3.24      12.0  T
   4    -59.5620893 -0.629514E-07  0.404E-04    3.24      44.5  T
   5    -59.5620893 -0.188663E-08  0.226E-04    3.24      79.5  T
     SCC iter.                  ...        0 min,  0.007 sec
     gradient                   ...        0 min,  0.016 sec
 * total energy  :   -58.9607464 Eh     change       -0.1072636E-04 Eh
   gradient norm :     0.0011706 Eh/α   predicted    -0.6947129E-05 ( -35.23%)
   displ. norm   :     0.0559545 α      lambda       -0.1354022E-04
   maximum displ.:     0.0340104 α      in ANC's #2, #1, #10, ...

........................................................................
.............................. CYCLE   23 ..............................
........................................................................

 iter      E             dE          RMSdq      gap      omega  full diag
   1    -59.5627274 -0.595627E+02  0.207E-02    3.25       0.0  T
   2    -59.5627278 -0.451032E-06  0.120E-02    3.25       1.5  T
   3    -59.5627275  0.264269E-06  0.369E-03    3.25       4.9  T
   4    -59.5627279 -0.396545E-06  0.106E-03    3.25      17.0  T
   5    -59.5627279 -0.106661E-07  0.574E-04    3.25      31.3  T
   6    -59.5627279 -0.218273E-08  0.267E-04    3.25      67.2  T
     SCC iter.                  ...        0 min,  0.009 sec
     gradient                   ...        0 min,  0.015 sec
 * total energy  :   -58.9607559 Eh     change       -0.9529135E-05 Eh
   gradient norm :     0.0014459 Eh/α   predicted    -0.7083241E-05 ( -25.67%)
   displ. norm   :     0.0195986 α      lambda       -0.3514185E-05
   maximum displ.:     0.0132157 α      in ANC's #2, #3, #1, ...

........................................................................
.............................. CYCLE   24 ..............................
........................................................................

 iter      E             dE          RMSdq      gap      omega  full diag
   1    -59.5624554 -0.595625E+02  0.542E-03    3.25       0.0  T
   2    -59.5624554 -0.185936E-07  0.324E-03    3.25       5.5  T
   3    -59.5624554  0.555951E-08  0.760E-04    3.25      23.6  T
   4    -59.5624554 -0.127972E-07  0.286E-04    3.25      62.8  T
     SCC iter.                  ...        0 min,  0.027 sec
     gradient                   ...        0 min,  0.016 sec
 * total energy  :   -58.9607609 Eh     change       -0.4959722E-05 Eh
   gradient norm :     0.0009017 Eh/α   predicted    -0.1929785E-05 ( -61.09%)
   displ. norm   :     0.0720672 α      lambda       -0.9598524E-05
   maximum displ.:     0.0473179 α      in ANC's #2, #3, #1, ...

   *** GEOMETRY OPTIMIZATION CONVERGED AFTER 24 ITERATIONS ***

------------------------------------------------------------------------
 total energy gain   :        -0.0117273 Eh       -7.3590 kcal/mol
 total RMSD          :         0.3051525 a0        0.1615 Å
 total power (kW/mol):        -1.2829194 (step)  -28.3614 (real)
------------------------------------------------------------------------

 ANCopt (total)                0 d,  0 h,  0 min,  1.086 sec
 optimizer setup                ...        0 min,  0.000 sec (  0.006%)
 model hessian                  ...        0 min,  0.023 sec (  2.159%)
 ANC generation                 ...        0 min,  0.002 sec (  0.157%)
 coordinate transformation      ...        0 min,  0.000 sec (  0.010%)
 single point calculation       ...        0 min,  1.054 sec ( 97.071%)
 optimization log               ...        0 min,  0.004 sec (  0.375%)
 hessian update                 ...        0 min,  0.000 sec (  0.019%)
 rational function              ...        0 min,  0.001 sec (  0.136%)

================
 final structure:
================
31
 xtb: 6.7.1 (edcfbbe)
N            4.84186875653524        0.89104072199580        1.37421011800180
C            3.92286857274127        0.22533369737962        0.66331862259192
N            4.27260380458410       -0.93084012235396        0.09240996061916
C            3.37233183861371       -1.60797007090412       -0.59390100171205
Cl           3.92484578882815       -3.07437683020930       -1.26545493083697
N            2.11150718840293       -1.31341845499695       -0.83090058374032
C            1.75834012298594       -0.15436032249463       -0.27030758302959
C            2.59745888660951        0.66949695513415        0.49801862335046
N            1.89276530253179        1.76682769839762        0.92243044001780
C            0.70011847040054        1.60949767105772        0.43717310192832
N            0.54699468143799        0.46687950527054       -0.29936705134842
C           -0.61383852445869       -0.05357758016359       -0.98155429154799
C           -1.17235105214155       -1.29655134966744       -0.27444510156817
C           -2.67515438103266       -1.18314620736968       -0.54404506568379
C           -2.88375365698057        0.33556772770546       -0.62292060685520
O           -1.63260594808435        0.90619102124444       -1.00907113681729
C           -3.32767429402192        0.96767803252763        0.70161526658596
O           -3.49350329127425        2.35174065432861        0.56633444004033
O           -3.06039866387271       -1.73414508435150       -1.77555007966282
H            5.78107737030638        0.53627569020136        1.40848102885919
H            4.60775194832402        1.78676286937690        1.76234293366649
H           -0.10446249780943        2.30201029842044        0.57964789751236
H           -0.30311831074744       -0.29703521450209       -2.01047188863507
H           -0.97443431661243       -1.23222386251635        0.79628838372266
H           -0.73043106055416       -2.20973055033618       -0.66560877146043
H           -3.26644203589533       -1.61920858364912        0.27342714010315
H           -3.60998520987876        0.57472748764164       -1.40714770133338
H           -4.29356710520112        0.56396523874270        1.01109355994478
H           -2.57919990194570        0.74342614058241        1.47809520140163
H           -2.74869315298224        2.68659589759232        0.05095885166436
H           -2.86091932880877       -2.67733307408410       -1.78489977577793

 Bond Distances (Angstroems)
 ---------------------------
N1-C2=1.3391         N1-H20=1.0046        N1-H21=1.0039        C2-N1=1.3391         C2-N3=1.3360         C2-C8=1.4076         
N3-C2=1.3360         N3-C4=1.3191         C4-N3=1.3191         C4-Cl5=1.7049        C4-N6=1.3163         Cl5-C4=1.7049        
N6-C4=1.3163         N6-C7=1.3351         C7-N6=1.3351         C7-C8=1.4047         C7-N11=1.3617        C8-C2=1.4076         
C8-C7=1.4047         C8-N9=1.3714         N9-C8=1.3714         N9-C10=1.2972        C10-N9=1.2972        C10-N11=1.3680       
C10-H22=1.0711       N11-C7=1.3617        N11-C10=1.3680       N11-C12=1.4435       C12-N11=1.4435       C12-C13=1.5352       
C12-O16=1.3999       C12-H23=1.1020       C13-C12=1.5352       C13-C14=1.5310       C13-H24=1.0908       C13-H25=1.0873       
C14-C13=1.5310       C14-C15=1.5350       C14-O19=1.4031       C14-H26=1.0991       C15-C14=1.5350       C15-O16=1.4283       
C15-C17=1.5333       C15-H27=1.0953       O16-C12=1.3999       O16-C15=1.4283       C17-C15=1.5333       C17-O18=1.4005       
C17-H28=1.0917       C17-H29=1.1016       O18-C17=1.4005       O18-H30=0.9657       O19-C14=1.4031       O19-H31=0.9641       
H20-N1=1.0046        H21-N1=1.0039        H22-C10=1.0711       H23-C12=1.1020       H24-C13=1.0908       H25-C13=1.0873       
H26-C14=1.0991       H27-C15=1.0953       H28-C17=1.0917       H29-C17=1.1016       H30-O18=0.9657       H31-O19=0.9641       
 C  H  Rav=1.0923 sigma=0.0094  Rmin=1.0711  Rmax=1.1020     8
 C  C  Rav=1.4911 sigma=0.0601  Rmin=1.4047  Rmax=1.5352     6
 N  H  Rav=1.0042 sigma=0.0003  Rmin=1.0039  Rmax=1.0046     2
 N  C  Rav=1.3487 sigma=0.0388  Rmin=1.2972  Rmax=1.4435    10
 O  H  Rav=0.9649 sigma=0.0008  Rmin=0.9641  Rmax=0.9657     2
 O  C  Rav=1.4080 sigma=0.0118  Rmin=1.3999  Rmax=1.4283     4
 Cl C  Rav=1.7049 sigma=0.0000  Rmin=1.7049  Rmax=1.7049     1

 selected bond angles (degree)
 --------------------
H20-N1-C2=118.96               H21-N1-C2=119.26               H21-N1-H20=121.33              N3-C2-N1=118.52                
C8-C2-N1=123.48                C8-C2-N3=117.99                C4-N3-C2=119.20                Cl5-C4-N3=115.17               
N6-C4-N3=129.24                N6-C4-Cl5=115.59               C7-N6-C4=111.84                C8-C7-N6=125.51                
N11-C7-N6=128.50               N11-C7-C8=105.99               C7-C8-C2=116.21                N9-C8-C2=134.42                
N9-C8-C7=109.37                C10-N9-C8=105.05               N11-C10-N9=113.93              H22-C10-N9=124.23              
H22-C10-N11=121.84             

 selected dihedral angles (degree)
 ---------------------------------
N3-C2-N1-H20=  4.00           N3-C2-N1-H21=176.40           C8-C2-N1-H20=183.12           C8-C2-N1-H21=355.53           
C4-N3-C2-N1=178.97            C4-N3-C2-C8=359.80            Cl5-C4-N3-C2=180.55           N6-C4-N3-C2=  0.43            
C7-N6-C4-N3=  0.00            C7-N6-C4-Cl5=179.89           C8-C7-N6-C4=359.31            N11-C7-N6-C4=180.07           
C7-C8-C2-N1=180.49            C7-C8-C2-N3=359.62            N9-C8-C2-N1=  0.72            N9-C8-C2-N3=179.86            
C2-C8-C7-N6=  0.89            C2-C8-C7-N11=180.26           N9-C8-C7-N6=180.71            N9-C8-C7-N11=  0.08           
C10-N9-C8-C2=179.80           C10-N9-C8-C7=  0.03           N11-C10-N9-C8=359.86          H22-C10-N9-C8=180.39          
           -------------------------------------------------
          |                Final Singlepoint                |
           -------------------------------------------------

          ...................................................
          :                      SETUP                      :
          :.................................................:
          :  # basis functions                  94          :
          :  # atomic orbitals                  93          :
          :  # shells                           51          :
          :  # electrons                       102          :
          :  max. iterations                   250          :
          :  Hamiltonian                  GFN2-xTB          :
          :  restarted?                      false          :
          :  GBSA solvation                  false          :
          :  PC potential                    false          :
          :  electronic temp.          300.0000000     K    :
          :  accuracy                    1.0000000          :
          :  -> integral cutoff          0.2500000E+02      :
          :  -> integral neglect         0.1000000E-07      :
          :  -> SCF convergence          0.1000000E-05 Eh   :
          :  -> wf. convergence          0.1000000E-03 e    :
          :  Broyden damping             0.4000000          :
          :  net charge                          0          :
          :  unpaired electrons                  0          :
          ...................................................

 iter      E             dE          RMSdq      gap      omega  full diag
   1    -59.5624554 -0.595625E+02  0.163E-04    3.25       0.0  T
   2    -59.5624554 -0.148660E-09  0.115E-04    3.25     156.2  T
   3    -59.5624554 -0.788845E-10  0.883E-05    3.25     203.5  T

   *** convergence criteria satisfied after 3 iterations ***

         #    Occupation            Energy/Eh            Energy/eV
      -------------------------------------------------------------
         1        2.0000           -1.0551056             -28.7109
       ...           ...                  ...                  ...
        45        2.0000           -0.4304040             -11.7119
        46        2.0000           -0.4241289             -11.5411
        47        2.0000           -0.4224996             -11.4968
        48        2.0000           -0.4189505             -11.4002
        49        2.0000           -0.4072189             -11.0810
        50        2.0000           -0.3945438             -10.7361
        51        2.0000           -0.3832162             -10.4278 (HOMO)
        52                         -0.2639009              -7.1811 (LUMO)
        53                         -0.2407853              -6.5521
        54                         -0.2076680              -5.6509
        55                         -0.1378449              -3.7509
        56                         -0.1129529              -3.0736
       ...                                ...                  ...
        93                          0.6443121              17.5326
      -------------------------------------------------------------
                  HL-Gap            0.1193153 Eh            3.2467 eV
             Fermi-level           -0.3235586 Eh           -8.8045 eV

 SCC (total)                   0 d,  0 h,  0 min,  0.026 sec
 SCC setup                      ...        0 min,  0.000 sec (  0.776%)
 Dispersion                     ...        0 min,  0.000 sec (  0.632%)
 classical contributions        ...        0 min,  0.000 sec (  0.303%)
 integral evaluation            ...        0 min,  0.005 sec ( 20.971%)
 iterations                     ...        0 min,  0.004 sec ( 16.963%)
 molecular gradient             ...        0 min,  0.016 sec ( 59.921%)
 printout                       ...        0 min,  0.000 sec (  0.413%)

         :::::::::::::::::::::::::::::::::::::::::::::::::::::
         ::                     SUMMARY                     ::
         :::::::::::::::::::::::::::::::::::::::::::::::::::::
         :: total energy             -58.960760857102 Eh    ::
         :: gradient norm              0.000902031199 Eh/a0 ::
         :: HOMO-LUMO gap              3.246733747544 eV    ::
         ::.................................................::
         :: SCC energy               -59.562332387664 Eh    ::
         :: -> isotropic ES            0.112932376566 Eh    ::
         :: -> anisotropic ES         -0.000138826489 Eh    ::
         :: -> anisotropic XC          0.017405420525 Eh    ::
         :: -> dispersion             -0.033421925799 Eh    ::
         :: repulsion energy           0.601571530562 Eh    ::
         :: add. restraining           0.000000000000 Eh    ::
         :: total charge              -0.000000000000 e     ::
         :::::::::::::::::::::::::::::::::::::::::::::::::::::

           -------------------------------------------------
          |                Property Printout                |
           -------------------------------------------------

    * Orbital Energies and Occupations

         #    Occupation            Energy/Eh            Energy/eV
      -------------------------------------------------------------
         1        2.0000           -1.0551056             -28.7109
       ...           ...                  ...                  ...
        39        2.0000           -0.4826855             -13.1345
        40        2.0000           -0.4675803             -12.7235
        41        2.0000           -0.4574857             -12.4488
        42        2.0000           -0.4471464             -12.1675
        43        2.0000           -0.4451489             -12.1131
        44        2.0000           -0.4334693             -11.7953
        45        2.0000           -0.4304040             -11.7119
        46        2.0000           -0.4241289             -11.5411
        47        2.0000           -0.4224996             -11.4968
        48        2.0000           -0.4189505             -11.4002
        49        2.0000           -0.4072189             -11.0810
        50        2.0000           -0.3945438             -10.7361
        51        2.0000           -0.3832162             -10.4278 (HOMO)
        52                         -0.2639009              -7.1811 (LUMO)
        53                         -0.2407853              -6.5521
        54                         -0.2076680              -5.6509
        55                         -0.1378449              -3.7509
        56                         -0.1129529              -3.0736
        57                         -0.0444510              -1.2096
        58                         -0.0250272              -0.6810
        59                         -0.0013434              -0.0366
        60                          0.0106462               0.2897
        61                          0.0137391               0.3739
        62                          0.0185442               0.5046
       ...                                ...                  ...
        93                          0.6443121              17.5326
      -------------------------------------------------------------
                  HL-Gap            0.1193153 Eh            3.2467 eV
             Fermi-level           -0.3235586 Eh           -8.8045 eV

     #   Z          covCN         q      C6AA      α(0)
     1   7 N        2.647    -0.230    26.045     7.579
     2   6 C        2.881     0.174    24.266     8.076
     3   7 N        1.928    -0.304    28.724     7.947
     4   6 C        2.920     0.264    22.556     7.788
     5  17 Cl       1.051    -0.124   103.052    15.531
     6   7 N        1.907    -0.315    29.018     7.987
     7   6 C        3.182     0.133    24.690     8.110
     8   6 C        3.220     0.009    27.087     8.462
     9   7 N        1.885    -0.270    27.874     7.827
    10   6 C        3.181     0.105    25.277     8.207
    11   7 N        2.828    -0.064    22.476     7.041
    12   6 C        3.720     0.184    17.768     6.020
    13   6 C        3.820    -0.084    22.085     6.688
    14   6 C        3.743     0.111    18.836     6.191
    15   6 C        3.779     0.090    19.117     6.229
    16   8 O        1.702    -0.321    19.372     5.942
    17   6 C        3.674     0.069    19.645     6.351
    18   8 O        1.656    -0.428    21.410     6.246
    19   8 O        1.657    -0.434    21.524     6.263
    20   1 H        0.860     0.205     1.082     1.630
    21   1 H        0.861     0.204     1.087     1.633
    22   1 H        0.926     0.060     2.202     2.321
    23   1 H        0.923     0.059     2.212     2.326
    24   1 H        0.924     0.049     2.327     2.386
    25   1 H        0.925     0.069     2.098     2.265
    26   1 H        0.923     0.024     2.679     2.560
    27   1 H        0.924     0.078     2.002     2.213
    28   1 H        0.924     0.056     2.241     2.341
    29   1 H        0.923     0.027     2.630     2.536
    30   1 H        0.805     0.304     0.708     1.322
    31   1 H        0.805     0.302     0.714     1.327

 Mol. C6AA /au·bohr⁶  :      12608.998405
 Mol. C8AA /au·bohr⁸  :     308149.228133
 Mol. α(0) /au        :        169.345340


Wiberg/Mayer (AO) data.
largest (>0.10) Wiberg bond orders for each atom

 ---------------------------------------------------------------------------
     #   Z sym  total        # sym  WBO       # sym  WBO       # sym  WBO
 ---------------------------------------------------------------------------
     1   7 N    3.402 --     2 C    1.281    21 H    0.942    20 H    0.939
     2   6 C    3.971 --     3 N    1.320     1 N    1.281     8 C    1.217
     3   7 N    3.036 --     4 C    1.386     2 C    1.320
     4   6 C    3.938 --     6 N    1.417     3 N    1.386     5 Cl   0.996
     5  17 Cl   1.161 --     4 C    0.996
     6   7 N    3.022 --     4 C    1.417     7 C    1.282
     7   6 C    3.957 --     6 N    1.282     8 C    1.274    11 N    1.175
     8   6 C    3.972 --     7 C    1.274     2 C    1.217     9 N    1.211
     9   7 N    3.023 --    10 C    1.598     8 C    1.211    11 N    0.106
    10   6 C    3.949 --     9 N    1.598    11 N    1.198    22 H    0.961
    11   7 N    3.604 --    10 C    1.198     7 C    1.175    12 C    0.963
                             9 N    0.106
    12   6 C    3.941 --    16 O    0.991    13 C    0.974    11 N    0.963
                            23 H    0.947
    13   6 C    3.992 --    14 C    0.984    24 H    0.975    12 C    0.974
                            25 H    0.973
    14   6 C    3.963 --    19 O    1.002    13 C    0.984    15 C    0.973
                            26 H    0.960
    15   6 C    3.939 --    17 C    0.979    14 C    0.973    27 H    0.956
                            16 O    0.955
    16   8 O    2.082 --    12 C    0.991    15 C    0.955
    17   6 C    3.965 --    18 O    1.015    15 C    0.979    28 H    0.970
                            29 H    0.966
    18   8 O    1.965 --    17 C    1.015    30 H    0.888
    19   8 O    1.966 --    14 C    1.002    31 H    0.891
    20   1 H    0.958 --     1 N    0.939
    21   1 H    0.958 --     1 N    0.942
    22   1 H    0.995 --    10 C    0.961
    23   1 H    0.997 --    12 C    0.947
    24   1 H    0.998 --    13 C    0.975
    25   1 H    0.995 --    13 C    0.973
    26   1 H    0.999 --    14 C    0.960
    27   1 H    0.994 --    15 C    0.956
    28   1 H    0.997 --    17 C    0.970
    29   1 H    0.999 --    17 C    0.966
    30   1 H    0.907 --    18 O    0.888
    31   1 H    0.908 --    19 O    0.891
 ---------------------------------------------------------------------------

Topologies differ in total number of bonds
Writing topology from bond orders to xtbtopo.mol

molecular dipole:
                 x           y           z       tot (Debye)
 q only:       -0.056       0.192       0.891
   full:       -0.063       0.021       0.888       2.262
molecular quadrupole (traceless):
                xx          xy          yy          xz          yz          zz
 q only:        5.301      23.658      -2.977      10.931      -1.338      -2.324
  q+dip:        2.006      29.664      -3.781      10.168      -5.051       1.775
   full:        0.717      29.756      -2.666       9.061      -5.970       1.949

           -------------------------------------------------
          |                Geometry Summary                 |
           -------------------------------------------------

      molecular mass/u    :      285.6873164
   center of mass at/Å    :        0.7300561      -0.2694465      -0.2557870
  moments of inertia/u·Å² :        0.8265904E+03   0.2548788E+04   0.3265594E+04
rotational constants/cm⁻¹ :        0.2039418E-01   0.6613981E-02   0.5162194E-02

 * 33 selected distances

     #   Z          #   Z                                           value/Å
     1   7 N        2   6 C                                       1.3390647
     2   6 C        3   7 N                                       1.3360351
     3   7 N        4   6 C                                       1.3190973
     4   6 C        5  17 Cl                                      1.7048770 (max)
     4   6 C        6   7 N                                       1.3162859
     6   7 N        7   6 C                                       1.3350684
     2   6 C        8   6 C                                       1.4075924
     7   6 C        8   6 C                                       1.4047016
     8   6 C        9   7 N                                       1.3714421
     9   7 N       10   6 C                                       1.2971639
     7   6 C       11   7 N                                       1.3616686
    10   6 C       11   7 N                                       1.3680332
    11   7 N       12   6 C                                       1.4435336
    12   6 C       13   6 C                                       1.5352276
    13   6 C       14   6 C                                       1.5310007
    14   6 C       15   6 C                                       1.5350008
    12   6 C       16   8 O                                       1.3999287
    15   6 C       16   8 O                                       1.4283186
    15   6 C       17   6 C                                       1.5333052
    17   6 C       18   8 O                                       1.4005106
    14   6 C       19   8 O                                       1.4030744
     1   7 N       20   1 H                                       1.0045625
     1   7 N       21   1 H                                       1.0038805
    10   6 C       22   1 H                                       1.0710852
    12   6 C       23   1 H                                       1.1020392
    13   6 C       24   1 H                                       1.0907701
    13   6 C       25   1 H                                       1.0872896
    14   6 C       26   1 H                                       1.0991053
    15   6 C       27   1 H                                       1.0952726
    17   6 C       28   1 H                                       1.0916547
    17   6 C       29   1 H                                       1.1015553
    18   8 O       30   1 H                                       0.9656513
    19   8 O       31   1 H                                       0.9640971 (min)

 * 7 distinct bonds (by element types)

   Z      Z             #   av. dist./Å        max./Å        min./Å
   1 H    6 C           8     1.0923465     1.1020392     1.0710852
   6 C    6 C           6     1.4911380     1.5352276     1.4047016
   1 H    7 N           2     1.0042215     1.0045625     1.0038805
   6 C    7 N          10     1.3487393     1.4435336     1.2971639
   1 H    8 O           2     0.9648742     0.9656513     0.9640971
   6 C    8 O           4     1.4079581     1.4283186     1.3999287
   6 C   17 Cl          1     1.7048770     1.7048770     1.7048770


optimized geometry written to: xtbopt.xyz


           -------------------------------------------------
          | TOTAL ENERGY              -58.960760857102 Eh   |
          | GRADIENT NORM               0.000902031199 Eh/α |
          | HOMO-LUMO GAP               3.246733747544 eV   |
           -------------------------------------------------

------------------------------------------------------------------------
 * finished run on 2025/05/15 at 16:24:19.031     
------------------------------------------------------------------------
 total:
 * wall-time:     0 d,  0 h,  0 min,  1.184 sec
 *  cpu-time:     0 d,  0 h,  0 min,  0.833 sec
 * ratio c/w:     0.704 speedup
 SCF:
 * wall-time:     0 d,  0 h,  0 min,  0.060 sec
 *  cpu-time:     0 d,  0 h,  0 min,  0.043 sec
 * ratio c/w:     0.727 speedup
 ANC optimizer:
 * wall-time:     0 d,  0 h,  0 min,  1.113 sec
 *  cpu-time:     0 d,  0 h,  0 min,  0.780 sec
 * ratio c/w:     0.701 speedup



----- Single-point -----
      -----------------------------------------------------------      
     |                   =====================                   |     
     |                           x T B                           |     
     |                   =====================                   |     
     |                         S. Grimme                         |     
     |          Mulliken Center for Theoretical Chemistry        |     
     |                    University of Bonn                     |     
      -----------------------------------------------------------      

   * xtb version 6.7.1 (edcfbbe) compiled by 'conda@3ef47c1a292c' on 2024-11-25

   xtb is free software: you can redistribute it and/or modify it under
   the terms of the GNU Lesser General Public License as published by
   the Free Software Foundation, either version 3 of the License, or
   (at your option) any later version.
   
   xtb is distributed in the hope that it will be useful,
   but WITHOUT ANY WARRANTY; without even the implied warranty of
   MERCHANTABILITY or FITNESS FOR A PARTICULAR PURPOSE.  See the
   GNU Lesser General Public License for more details.
   
   Cite this work as:
   * C. Bannwarth, E. Caldeweyher, S. Ehlert, A. Hansen, P. Pracht,
     J. Seibert, S. Spicher, S. Grimme, WIREs Comput. Mol. Sci., 2020, 11,
     e01493. DOI: 10.1002/wcms.1493
   
   for GFN2-xTB:
   * C. Bannwarth, S. Ehlert and S. Grimme., J. Chem. Theory Comput., 2019,
     15, 1652-1671. DOI: 10.1021/acs.jctc.8b01176
   for GFN1-xTB:
   * S. Grimme, C. Bannwarth, P. Shushkov, J. Chem. Theory Comput., 2017,
     13, 1989-2009. DOI: 10.1021/acs.jctc.7b00118
   for GFN0-xTB:
   * P. Pracht, E. Caldeweyher, S. Ehlert, S. Grimme, ChemRxiv, 2019, preprint.
     DOI: 10.26434/chemrxiv.8326202.v1
   for GFN-FF:
   * S. Spicher and S. Grimme, Angew. Chem. Int. Ed., 2020, 59, 15665-15673.
     DOI: 10.1002/anie.202004239
   
   for ALPB and GBSA implicit solvation:
   * S. Ehlert, M. Stahn, S. Spicher, S. Grimme, J. Chem. Theory Comput.,
     2021, 17, 4250-4261. DOI: 10.1021/acs.jctc.1c00471
   
   for ddCOSMO and CPCM-X implicit solvation:
   * M. Stahn, S. Ehlert, S. Grimme, J. Phys. Chem. A,
     2023, XX, XXXX-XXXX. DOI: 10.1021/acs.jpca.3c04382
   
   for DFT-D4:
   * E. Caldeweyher, C. Bannwarth and S. Grimme, J. Chem. Phys., 2017,
     147, 034112. DOI: 10.1063/1.4993215
   * E. Caldeweyher, S. Ehlert, A. Hansen, H. Neugebauer, S. Spicher,
     C. Bannwarth and S. Grimme, J. Chem. Phys., 2019, 150, 154122.
     DOI: 10.1063/1.5090222
   * E. Caldeweyher, J.-M. Mewes, S. Ehlert and S. Grimme, Phys. Chem. Chem. Phys.
     2020, 22, 8499-8512. DOI: 10.1039/D0CP00502A
   
   for sTDA-xTB:
   * S. Grimme and C. Bannwarth, J. Chem. Phys., 2016, 145, 054103.
     DOI: 10.1063/1.4959605
   
   in the mass-spec context:
   * V. Asgeirsson, C. Bauer and S. Grimme, Chem. Sci., 2017, 8, 4879.
     DOI: 10.1039/c7sc00601b
   * J. Koopman and S. Grimme, ACS Omega 2019, 4, 12, 15120-15133.
     DOI: 10.1021/acsomega.9b02011
   
   for metadynamics refer to:
   * S. Grimme, J. Chem. Theory Comput., 2019, 155, 2847-2862
     DOI: 10.1021/acs.jctc.9b00143
   
   for SPH calculations refer to:
   * S. Spicher and S. Grimme, J. Chem. Theory Comput., 2021, 17, 1701-1714
     DOI: 10.1021/acs.jctc.0c01306
   
   for ONIOM refer to:
   * C. Plett, A. Katbashev, S. Ehlert, S. Grimme, M. Bursch,
     Phys. Chem. Chem. Phys., 2023, 25, 17860-17868. DOI: 10.1039/D3CP02178E
   
   for DIPRO refer to:
   * J. Kohn, N. Gildemeister, S. Grimme, D. Fazzi, A. Hansen,
     J. Chem. Phys., 2023, just accepted.
   
   for PTB refer to:
   * S. Grimme, M. Mueller, A. Hansen, J. Chem. Phys., 2023, 158, 124111.
     DOI: 10.1063/5.0137838
   
   with help from (in alphabetical order)
   P. Atkinson, C. Bannwarth, F. Bohle, G. Brandenburg, E. Caldeweyher
   M. Checinski, S. Dohm, S. Ehlert, S. Ehrlich, I. Gerasimov, C. Hölzer
   A. Katbashev, J. Kohn, J. Koopman, C. Lavigne, S. Lehtola, F. März, M. Müller,
   F. Musil, H. Neugebauer, J. Pisarek, C. Plett, P. Pracht, F. Pultar,
   J. Seibert, P. Shushkov, S. Spicher, M. Stahn, M. Steiner, T. Strunk,
   J. Stückrath, T. Rose, and J. Unsleber
   
 * started run on 2025/05/15 at 16:24:19.049     
   ID    Z sym.   atoms
    1    7 N      1, 3, 6, 9, 11
    2    6 C      2, 4, 7, 8, 10, 12-15, 17
    3   17 Cl     5
    4    8 O      16, 18, 19
    5    1 H      20-31

           -------------------------------------------------
          |                Calculation Setup                |
           -------------------------------------------------

          program call               : xtb /rds/general/user/hgt20/home/callum/QDESCP/Cladribine_rdkit_conf_9/Cladribine_rdkit_conf_9.xyz --acc 1 --gfn 2 --chrg 0 --uhf 0 --etemp 300 --input /rds/general/user/hgt20/home/callum/QDESCP/Cladribine_rdkit_conf_9/Cladribine_rdkit_conf_9_xtb.inp -P 1
          hostname                   : login-c
          coordinate file            : /rds/general/user/hgt20/home/callum/QDESCP/Cladribine_rdkit_conf_9/Cladribine_rdkit_conf_9.xyz
          omp threads                :                     1


           -------------------------------------------------
          |                 G F N 2 - x T B                 |
           -------------------------------------------------

        Reference                      10.1021/acs.jctc.8b01176
      * Hamiltonian:
        H0-scaling (s, p, d)           1.850000    2.230000    2.230000
        zeta-weighting                 0.500000
      * Dispersion:
        s8                             2.700000
        a1                             0.520000
        a2                             5.000000
        s9                             5.000000
      * Repulsion:
        kExp                           1.500000    1.000000
        rExp                           1.000000
      * Coulomb:
        alpha                          2.000000
        third order                    shell-resolved
        anisotropic                    true
        a3                             3.000000
        a5                             4.000000
        cn-shift                       1.200000
        cn-exp                         4.000000
        max-rad                        5.000000

q/qsh data taken from xtbrestart
CAMM data taken from xtbrestart

          ...................................................
          :                      SETUP                      :
          :.................................................:
          :  # basis functions                  94          :
          :  # atomic orbitals                  93          :
          :  # shells                           51          :
          :  # electrons                       102          :
          :  max. iterations                   250          :
          :  Hamiltonian                  GFN2-xTB          :
          :  restarted?                       true          :
          :  GBSA solvation                  false          :
          :  PC potential                    false          :
          :  electronic temp.          300.0000000     K    :
          :  accuracy                    1.0000000          :
          :  -> integral cutoff          0.2500000E+02      :
          :  -> integral neglect         0.1000000E-07      :
          :  -> SCF convergence          0.1000000E-05 Eh   :
          :  -> wf. convergence          0.1000000E-03 e    :
          :  Broyden damping             0.4000000          :
          :  net charge                          0          :
          :  unpaired electrons                  0          :
          ...................................................

 iter      E             dE          RMSdq      gap      omega  full diag
   1    -59.5624554 -0.595625E+02  0.466E-05    3.25       0.0  T
   2    -59.5624554 -0.100471E-10  0.388E-05    3.25     462.9  T
   3    -59.5624554 -0.669331E-11  0.298E-05    3.25     602.3  T

   *** convergence criteria satisfied after 3 iterations ***

         #    Occupation            Energy/Eh            Energy/eV
      -------------------------------------------------------------
         1        2.0000           -1.0551056             -28.7109
       ...           ...                  ...                  ...
        45        2.0000           -0.4304037             -11.7119
        46        2.0000           -0.4241287             -11.5411
        47        2.0000           -0.4224994             -11.4968
        48        2.0000           -0.4189502             -11.4002
        49        2.0000           -0.4072186             -11.0810
        50        2.0000           -0.3945434             -10.7361
        51        2.0000           -0.3832158             -10.4278 (HOMO)
        52                         -0.2639005              -7.1811 (LUMO)
        53                         -0.2407848              -6.5521
        54                         -0.2076673              -5.6509
        55                         -0.1378435              -3.7509
        56                         -0.1129527              -3.0736
       ...                                ...                  ...
        93                          0.6443125              17.5326
      -------------------------------------------------------------
                  HL-Gap            0.1193153 Eh            3.2467 eV
             Fermi-level           -0.3235582 Eh           -8.8045 eV

 SCC (total)                   0 d,  0 h,  0 min,  0.037 sec
 SCC setup                      ...        0 min,  0.000 sec (  0.710%)
 Dispersion                     ...        0 min,  0.000 sec (  0.700%)
 classical contributions        ...        0 min,  0.000 sec (  0.230%)
 integral evaluation            ...        0 min,  0.006 sec ( 15.453%)
 iterations                     ...        0 min,  0.006 sec ( 14.907%)
 molecular gradient             ...        0 min,  0.025 sec ( 67.526%)
 printout                       ...        0 min,  0.000 sec (  0.457%)

         :::::::::::::::::::::::::::::::::::::::::::::::::::::
         ::                     SUMMARY                     ::
         :::::::::::::::::::::::::::::::::::::::::::::::::::::
         :: total energy             -58.960760857193 Eh    ::
         :: gradient norm              0.000902408818 Eh/a0 ::
         :: HOMO-LUMO gap              3.246733583878 eV    ::
         ::.................................................::
         :: SCC energy               -59.562332387755 Eh    ::
         :: -> isotropic ES            0.112932478813 Eh    ::
         :: -> anisotropic ES         -0.000138628107 Eh    ::
         :: -> anisotropic XC          0.017405824316 Eh    ::
         :: -> dispersion             -0.033421922852 Eh    ::
         :: repulsion energy           0.601571530562 Eh    ::
         :: add. restraining           0.000000000000 Eh    ::
         :: total charge              -0.000000000000 e     ::
         :::::::::::::::::::::::::::::::::::::::::::::::::::::

           -------------------------------------------------
          |                Property Printout                |
           -------------------------------------------------

    * Orbital Energies and Occupations

         #    Occupation            Energy/Eh            Energy/eV
      -------------------------------------------------------------
         1        2.0000           -1.0551056             -28.7109
       ...           ...                  ...                  ...
        39        2.0000           -0.4826853             -13.1345
        40        2.0000           -0.4675801             -12.7235
        41        2.0000           -0.4574853             -12.4488
        42        2.0000           -0.4471459             -12.1675
        43        2.0000           -0.4451486             -12.1131
        44        2.0000           -0.4334688             -11.7953
        45        2.0000           -0.4304037             -11.7119
        46        2.0000           -0.4241287             -11.5411
        47        2.0000           -0.4224994             -11.4968
        48        2.0000           -0.4189502             -11.4002
        49        2.0000           -0.4072186             -11.0810
        50        2.0000           -0.3945434             -10.7361
        51        2.0000           -0.3832158             -10.4278 (HOMO)
        52                         -0.2639005              -7.1811 (LUMO)
        53                         -0.2407848              -6.5521
        54                         -0.2076673              -5.6509
        55                         -0.1378435              -3.7509
        56                         -0.1129527              -3.0736
        57                         -0.0444505              -1.2096
        58                         -0.0250268              -0.6810
        59                         -0.0013433              -0.0366
        60                          0.0106465               0.2897
        61                          0.0137392               0.3739
        62                          0.0185443               0.5046
       ...                                ...                  ...
        93                          0.6443125              17.5326
      -------------------------------------------------------------
                  HL-Gap            0.1193153 Eh            3.2467 eV
             Fermi-level           -0.3235582 Eh           -8.8045 eV

     #   Z          covCN         q      C6AA      α(0)
     1   7 N        2.647    -0.230    26.045     7.579
     2   6 C        2.881     0.174    24.266     8.076
     3   7 N        1.928    -0.304    28.724     7.947
     4   6 C        2.920     0.264    22.556     7.788
     5  17 Cl       1.051    -0.124   103.052    15.531
     6   7 N        1.907    -0.315    29.018     7.987
     7   6 C        3.182     0.133    24.690     8.110
     8   6 C        3.220     0.009    27.087     8.462
     9   7 N        1.885    -0.270    27.874     7.827
    10   6 C        3.181     0.105    25.277     8.207
    11   7 N        2.828    -0.064    22.476     7.041
    12   6 C        3.720     0.184    17.768     6.020
    13   6 C        3.820    -0.084    22.085     6.688
    14   6 C        3.743     0.111    18.836     6.191
    15   6 C        3.779     0.090    19.117     6.229
    16   8 O        1.702    -0.321    19.372     5.942
    17   6 C        3.674     0.069    19.645     6.351
    18   8 O        1.656    -0.428    21.410     6.246
    19   8 O        1.657    -0.434    21.524     6.263
    20   1 H        0.860     0.205     1.082     1.630
[...]
     |                    University of Bonn                     |     
      -----------------------------------------------------------      

   * xtb version 6.7.1 (edcfbbe) compiled by 'conda@3ef47c1a292c' on 2024-11-25

   xtb is free software: you can redistribute it and/or modify it under
   the terms of the GNU Lesser General Public License as published by
   the Free Software Foundation, either version 3 of the License, or
   (at your option) any later version.
   
   xtb is distributed in the hope that it will be useful,
   but WITHOUT ANY WARRANTY; without even the implied warranty of
   MERCHANTABILITY or FITNESS FOR A PARTICULAR PURPOSE.  See the
   GNU Lesser General Public License for more details.
   
   Cite this work as:
   * C. Bannwarth, E. Caldeweyher, S. Ehlert, A. Hansen, P. Pracht,
     J. Seibert, S. Spicher, S. Grimme, WIREs Comput. Mol. Sci., 2020, 11,
     e01493. DOI: 10.1002/wcms.1493
   
   for GFN2-xTB:
   * C. Bannwarth, S. Ehlert and S. Grimme., J. Chem. Theory Comput., 2019,
     15, 1652-1671. DOI: 10.1021/acs.jctc.8b01176
   for GFN1-xTB:
   * S. Grimme, C. Bannwarth, P. Shushkov, J. Chem. Theory Comput., 2017,
     13, 1989-2009. DOI: 10.1021/acs.jctc.7b00118
   for GFN0-xTB:
   * P. Pracht, E. Caldeweyher, S. Ehlert, S. Grimme, ChemRxiv, 2019, preprint.
     DOI: 10.26434/chemrxiv.8326202.v1
   for GFN-FF:
   * S. Spicher and S. Grimme, Angew. Chem. Int. Ed., 2020, 59, 15665-15673.
     DOI: 10.1002/anie.202004239
   
   for ALPB and GBSA implicit solvation:
   * S. Ehlert, M. Stahn, S. Spicher, S. Grimme, J. Chem. Theory Comput.,
     2021, 17, 4250-4261. DOI: 10.1021/acs.jctc.1c00471
   
   for ddCOSMO and CPCM-X implicit solvation:
   * M. Stahn, S. Ehlert, S. Grimme, J. Phys. Chem. A,
     2023, XX, XXXX-XXXX. DOI: 10.1021/acs.jpca.3c04382
   
   for DFT-D4:
   * E. Caldeweyher, C. Bannwarth and S. Grimme, J. Chem. Phys., 2017,
     147, 034112. DOI: 10.1063/1.4993215
   * E. Caldeweyher, S. Ehlert, A. Hansen, H. Neugebauer, S. Spicher,
     C. Bannwarth and S. Grimme, J. Chem. Phys., 2019, 150, 154122.
     DOI: 10.1063/1.5090222
   * E. Caldeweyher, J.-M. Mewes, S. Ehlert and S. Grimme, Phys. Chem. Chem. Phys.
     2020, 22, 8499-8512. DOI: 10.1039/D0CP00502A
   
   for sTDA-xTB:
   * S. Grimme and C. Bannwarth, J. Chem. Phys., 2016, 145, 054103.
     DOI: 10.1063/1.4959605
   
   in the mass-spec context:
   * V. Asgeirsson, C. Bauer and S. Grimme, Chem. Sci., 2017, 8, 4879.
     DOI: 10.1039/c7sc00601b
   * J. Koopman and S. Grimme, ACS Omega 2019, 4, 12, 15120-15133.
     DOI: 10.1021/acsomega.9b02011
   
   for metadynamics refer to:
   * S. Grimme, J. Chem. Theory Comput., 2019, 155, 2847-2862
     DOI: 10.1021/acs.jctc.9b00143
   
   for SPH calculations refer to:
   * S. Spicher and S. Grimme, J. Chem. Theory Comput., 2021, 17, 1701-1714
     DOI: 10.1021/acs.jctc.0c01306
   
   for ONIOM refer to:
   * C. Plett, A. Katbashev, S. Ehlert, S. Grimme, M. Bursch,
     Phys. Chem. Chem. Phys., 2023, 25, 17860-17868. DOI: 10.1039/D3CP02178E
   
   for DIPRO refer to:
   * J. Kohn, N. Gildemeister, S. Grimme, D. Fazzi, A. Hansen,
     J. Chem. Phys., 2023, just accepted.
   
   for PTB refer to:
   * S. Grimme, M. Mueller, A. Hansen, J. Chem. Phys., 2023, 158, 124111.
     DOI: 10.1063/5.0137838
   
   with help from (in alphabetical order)
   P. Atkinson, C. Bannwarth, F. Bohle, G. Brandenburg, E. Caldeweyher
   M. Checinski, S. Dohm, S. Ehlert, S. Ehrlich, I. Gerasimov, C. Hölzer
   A. Katbashev, J. Kohn, J. Koopman, C. Lavigne, S. Lehtola, F. März, M. Müller,
   F. Musil, H. Neugebauer, J. Pisarek, C. Plett, P. Pracht, F. Pultar,
   J. Seibert, P. Shushkov, S. Spicher, M. Stahn, M. Steiner, T. Strunk,
   J. Stückrath, T. Rose, and J. Unsleber
   
 * started run on 2025/05/15 at 16:24:20.228     
   ID    Z sym.   atoms
    1    7 N      1, 3, 6, 9, 11
    2    6 C      2, 4, 7, 8, 10, 12-15, 17
    3   17 Cl     5
    4    8 O      16, 18, 19
    5    1 H      20-31

           -------------------------------------------------
          |                Calculation Setup                |
           -------------------------------------------------

          program call               : xtb /rds/general/user/hgt20/home/callum/QDESCP/Cladribine_rdkit_conf_9/Cladribine_rdkit_conf_9.xyz --acc 1 --gfn 2 --chrg 0 --uhf 2 --etemp 300 --input /rds/general/user/hgt20/home/callum/QDESCP/Cladribine_rdkit_conf_9/Cladribine_rdkit_conf_9_xtb.inp -P 1
          hostname                   : login-c
          coordinate file            : /rds/general/user/hgt20/home/callum/QDESCP/Cladribine_rdkit_conf_9/Cladribine_rdkit_conf_9.xyz
          omp threads                :                     1


           -------------------------------------------------
          |                 G F N 2 - x T B                 |
           -------------------------------------------------

        Reference                      10.1021/acs.jctc.8b01176
      * Hamiltonian:
        H0-scaling (s, p, d)           1.850000    2.230000    2.230000
        zeta-weighting                 0.500000
      * Dispersion:
        s8                             2.700000
        a1                             0.520000
        a2                             5.000000
        s9                             5.000000
      * Repulsion:
        kExp                           1.500000    1.000000
        rExp                           1.000000
      * Coulomb:
        alpha                          2.000000
        third order                    shell-resolved
        anisotropic                    true
        a3                             3.000000
        a5                             4.000000
        cn-shift                       1.200000
        cn-exp                         4.000000
        max-rad                        5.000000


          ...................................................
          :                      SETUP                      :
          :.................................................:
          :  # basis functions                  94          :
          :  # atomic orbitals                  93          :
          :  # shells                           51          :
          :  # electrons                       102          :
          :  max. iterations                   250          :
          :  Hamiltonian                  GFN2-xTB          :
          :  restarted?                      false          :
          :  GBSA solvation                  false          :
          :  PC potential                    false          :
          :  electronic temp.          300.0000000     K    :
          :  accuracy                    1.0000000          :
          :  -> integral cutoff          0.2500000E+02      :
          :  -> integral neglect         0.1000000E-07      :
          :  -> SCF convergence          0.1000000E-05 Eh   :
          :  -> wf. convergence          0.1000000E-03 e    :
          :  Broyden damping             0.4000000          :
          :  net charge                          0          :
          :  unpaired electrons                  2          :
          ...................................................

 iter      E             dE          RMSdq      gap      omega  full diag
   1    -59.1767020 -0.591767E+02  0.454E+00    0.36       0.0  T
   2    -59.3293557 -0.152654E+00  0.297E+00    0.84       1.0  T
   3    -59.3474699 -0.181141E-01  0.211E+00    0.58       1.0  T
   4    -59.2934073  0.540625E-01  0.178E+00    0.77       1.0  T
   5    -59.3817247 -0.883173E-01  0.114E+00    0.36       1.0  T
   6    -59.4268231 -0.450984E-01  0.458E-01    0.40       1.0  T
   7    -59.4307662 -0.394315E-02  0.245E-01    0.40       1.0  T
   8    -59.4325132 -0.174692E-02  0.116E-01    0.41       1.0  T
   9    -59.4326730 -0.159810E-03  0.815E-02    0.40       1.0  T
  10    -59.4327023 -0.293339E-04  0.530E-02    0.40       1.0  T
  11    -59.4327641 -0.618185E-04  0.299E-02    0.40       1.0  T
  12    -59.4327613  0.281248E-05  0.303E-02    0.40       1.0  T
  13    -59.4327738 -0.125310E-04  0.188E-02    0.40       1.0  T
  14    -59.4327804 -0.656179E-05  0.762E-03    0.40       2.4  T
  15    -59.4327813 -0.928339E-06  0.395E-03    0.40       4.6  T
  16    -59.4327818 -0.413064E-06  0.189E-03    0.40       9.5  T
  17    -59.4327818 -0.494218E-07  0.992E-04    0.40      18.1  T
  18    -59.4327818 -0.101590E-07  0.708E-04    0.40      25.4  T

   *** convergence criteria satisfied after 18 iterations ***

         #    Occupation            Energy/Eh            Energy/eV
      -------------------------------------------------------------
         1        2.0000           -1.0559133             -28.7329
       ...           ...                  ...                  ...
        46        2.0000           -0.4253108             -11.5733
        47        2.0000           -0.4235690             -11.5259
        48        2.0000           -0.4194123             -11.4128
        49        2.0000           -0.4144037             -11.2765
        50        1.5513           -0.3940131             -10.7216
        51        1.4487           -0.3936220             -10.7110
        52        0.9995           -0.2562893              -6.9740 (HOMO)
        53        0.0005           -0.2416810              -6.5765 (LUMO)
        54                         -0.2044555              -5.5635
        55                         -0.1371441              -3.7319
        56                         -0.1125787              -3.0634
        57                         -0.0440786              -1.1994
       ...                                ...                  ...
        93                          0.6427902              17.4912
      -------------------------------------------------------------
                  HL-Gap            0.0146083 Eh            0.3975 eV
             Fermi-level           -0.3214014 Eh           -8.7458 eV

 transition dipole moment (au) for excitation:          51          52
     X       Y       Z   
   0.4705  -0.0626   0.0933  total (au/Debye):    0.484   1.230
 dE (eV)             :    3.737
 oscillator strength :  0.30302E-01

 SCC (total)                   0 d,  0 h,  0 min,  0.079 sec
 SCC setup                      ...        0 min,  0.000 sec (  0.340%)
 Dispersion                     ...        0 min,  0.000 sec (  0.383%)
 classical contributions        ...        0 min,  0.000 sec (  0.109%)
 integral evaluation            ...        0 min,  0.006 sec (  7.278%)
 iterations                     ...        0 min,  0.052 sec ( 64.841%)
 molecular gradient             ...        0 min,  0.016 sec ( 19.994%)
 printout                       ...        0 min,  0.006 sec (  7.047%)

         :::::::::::::::::::::::::::::::::::::::::::::::::::::
         ::                     SUMMARY                     ::
         :::::::::::::::::::::::::::::::::::::::::::::::::::::
         :: total energy             -58.831087218680 Eh    ::
         :: gradient norm              0.129480383471 Eh/a0 ::
         :: HOMO-LUMO gap              0.397511182046 eV    ::
         ::.................................................::
         :: SCC energy               -59.432658749241 Eh    ::
         :: -> isotropic ES            0.103896764257 Eh    ::
         :: -> anisotropic ES          0.000240582064 Eh    ::
         :: -> anisotropic XC          0.009886842545 Eh    ::
         :: -> dispersion             -0.033402636486 Eh    ::
         :: repulsion energy           0.601571530562 Eh    ::
         :: add. restraining           0.000000000000 Eh    ::
         :: total charge               0.000000000391 e     ::
         :::::::::::::::::::::::::::::::::::::::::::::::::::::

           -------------------------------------------------
          |                Property Printout                |
           -------------------------------------------------

    * Orbital Energies and Occupations

         #    Occupation            Energy/Eh            Energy/eV
      -------------------------------------------------------------
         1        2.0000           -1.0559133             -28.7329
       ...           ...                  ...                  ...
        40        2.0000           -0.4672412             -12.7143
        41        2.0000           -0.4570441             -12.4368
        42        2.0000           -0.4476497             -12.1812
        43        2.0000           -0.4467200             -12.1559
        44        2.0000           -0.4404439             -11.9851
        45        2.0000           -0.4300369             -11.7019
        46        2.0000           -0.4253108             -11.5733
        47        2.0000           -0.4235690             -11.5259
        48        2.0000           -0.4194123             -11.4128
        49        2.0000           -0.4144037             -11.2765
        50        1.5513           -0.3940131             -10.7216
        51        1.4487           -0.3936220             -10.7110
        52        0.9995           -0.2562893              -6.9740 (HOMO)
        53        0.0005           -0.2416810              -6.5765 (LUMO)
        54                         -0.2044555              -5.5635
        55                         -0.1371441              -3.7319
        56                         -0.1125787              -3.0634
        57                         -0.0440786              -1.1994
        58                         -0.0239718              -0.6523
        59                          0.0004040               0.0110
        60                          0.0107781               0.2933
        61                          0.0132442               0.3604
        62                          0.0172930               0.4706
        63                          0.0174471               0.4748
       ...                                ...                  ...
        93                          0.6427902              17.4912
      -------------------------------------------------------------
                  HL-Gap            0.0146083 Eh            0.3975 eV
             Fermi-level           -0.3214014 Eh           -8.7458 eV

     #   Z          covCN         q      C6AA      α(0)
     1   7 N        2.647    -0.227    25.969     7.568
     2   6 C        2.881     0.120    25.364     8.256
     3   7 N        1.928    -0.256    27.514     7.778
     4   6 C        2.920     0.227    23.245     7.906
     5  17 Cl       1.051    -0.119   102.890    15.519
     6   7 N        1.907    -0.284    28.203     7.874
     7   6 C        3.182     0.139    24.576     8.092
     8   6 C        3.220     0.032    26.586     8.384
     9   7 N        1.885    -0.248    27.314     7.748
    10   6 C        3.181     0.077    25.878     8.304
    11   7 N        2.828    -0.067    22.537     7.051
    12   6 C        3.720     0.184    17.766     6.020
    13   6 C        3.820    -0.084    22.090     6.689
    14   6 C        3.743     0.111    18.836     6.192
    15   6 C        3.779     0.089    19.123     6.230
    16   8 O        1.702    -0.318    19.319     5.934
    17   6 C        3.674     0.069    19.652     6.352
    18   8 O        1.656    -0.428    21.406     6.246
    19   8 O        1.657    -0.434    21.522     6.263
    20   1 H        0.860     0.201     1.101     1.643
    21   1 H        0.861     0.198     1.114     1.653
    22   1 H        0.926     0.053     2.278     2.360
    23   1 H        0.923     0.056     2.245     2.343
    24   1 H        0.924     0.051     2.313     2.379
    25   1 H        0.925     0.066     2.129     2.282
    26   1 H        0.923     0.024     2.674     2.557
    27   1 H        0.924     0.078     1.997     2.210
    28   1 H        0.924     0.056     2.241     2.341
    29   1 H        0.923     0.028     2.615     2.529
    30   1 H        0.805     0.305     0.706     1.320
    31   1 H        0.805     0.302     0.715     1.328

 Mol. C6AA /au·bohr⁶  :      12604.335252
 Mol. C8AA /au·bohr⁸  :     308091.298913
 Mol. α(0) /au        :        169.348916


Wiberg/Mayer (AO) data.
largest (>0.10) Wiberg bond orders for each atom

 ---------------------------------------------------------------------------
     #   Z sym  total        # sym  WBO       # sym  WBO       # sym  WBO
 ---------------------------------------------------------------------------
     1   7 N    3.271 --     2 C    1.221    21 H    0.944    20 H    0.941
     2   6 C    3.865 --     3 N    1.281     1 N    1.221     8 C    1.092
     3   7 N    3.044 --     4 C    1.405     2 C    1.281
     4   6 C    3.844 --     3 N    1.405     6 N    1.200     5 Cl   0.990
     5  17 Cl   1.148 --     4 C    0.990
     6   7 N    2.869 --     7 C    1.292     4 C    1.200
     7   6 C    3.902 --     6 N    1.292     8 C    1.219    11 N    1.183
     8   6 C    3.834 --     9 N    1.309     7 C    1.219     2 C    1.092
     9   7 N    3.009 --    10 C    1.389     8 C    1.309
    10   6 C    3.803 --     9 N    1.389    11 N    1.161    22 H    0.962
    11   7 N    3.578 --     7 C    1.183    10 C    1.161    12 C    0.964
    12   6 C    3.942 --    16 O    0.992    13 C    0.973    11 N    0.964
                            23 H    0.947
    13   6 C    3.991 --    14 C    0.984    24 H    0.975    25 H    0.974
                            12 C    0.973
    14   6 C    3.963 --    19 O    1.002    13 C    0.984    15 C    0.973
                            26 H    0.960
    15   6 C    3.939 --    17 C    0.979    14 C    0.973    27 H    0.956
                            16 O    0.955
    16   8 O    2.083 --    12 C    0.992    15 C    0.955
    17   6 C    3.965 --    18 O    1.015    15 C    0.979    28 H    0.970
                            29 H    0.966
    18   8 O    1.965 --    17 C    1.015    30 H    0.888
    19   8 O    1.966 --    14 C    1.002    31 H    0.891
    20   1 H    0.957 --     1 N    0.941
    21   1 H    0.960 --     1 N    0.944
    22   1 H    0.996 --    10 C    0.962
    23   1 H    0.996 --    12 C    0.947
    24   1 H    0.997 --    13 C    0.975
    25   1 H    0.995 --    13 C    0.974
    26   1 H    0.999 --    14 C    0.960
    27   1 H    0.993 --    15 C    0.956
    28   1 H    0.997 --    17 C    0.970
    29   1 H    0.999 --    17 C    0.966
    30   1 H    0.907 --    18 O    0.888
    31   1 H    0.908 --    19 O    0.891
 ---------------------------------------------------------------------------

Topologies differ in total number of bonds
Writing topology from bond orders to xtbtopo.mol

molecular dipole:
                 x           y           z       tot (Debye)
 q only:       -0.048       0.081       0.833
   full:       -0.003      -0.090       0.841       2.150
molecular quadrupole (traceless):
                xx          xy          yy          xz          yz          zz
 q only:        5.077      22.806      -2.839      10.269      -1.352      -2.238
  q+dip:        1.851      29.248      -3.651       9.741      -4.781       1.800
   full:        1.031      29.333      -2.663       8.992      -5.394       1.632


           -------------------------------------------------
          | TOTAL ENERGY              -58.831087218680 Eh   |
          | GRADIENT NORM               0.129480383471 Eh/α |
          | HOMO-LUMO GAP               0.397511182046 eV   |
           -------------------------------------------------

------------------------------------------------------------------------
 * finished run on 2025/05/15 at 16:24:20.319     
------------------------------------------------------------------------
 total:
 * wall-time:     0 d,  0 h,  0 min,  0.091 sec
 *  cpu-time:     0 d,  0 h,  0 min,  0.065 sec
 * ratio c/w:     0.714 speedup
 SCF:
 * wall-time:     0 d,  0 h,  0 min,  0.080 sec
 *  cpu-time:     0 d,  0 h,  0 min,  0.055 sec
 * ratio c/w:     0.694 speedup


