38
 energy: -65.478620037677 gnorm: 0.000554303254 xtb: 6.7.1 (edcfbbe)
O           -3.94615944912755        2.78911832511172        0.53718127274965
C           -3.02595144596195        1.92171556824569        1.13007367348978
C           -2.22727195835965        1.12514579989289        0.08856351508534
O           -1.10623056092943        0.56442947532021        0.73770446722065
C           -0.26099667395553       -0.14213899652097       -0.13664239725785
C           -0.99059209228816       -1.31696984280702       -0.81213249935904
C           -2.22548910372889       -0.78486427618318       -1.53725642613181
C           -3.08201794930570        0.02201817412008       -0.55649229850316
O           -4.18085200307158        0.60375280327742       -1.21436551068544
O           -3.01778486205363       -1.82381141713901       -2.05897210954917
O           -0.16291621612886       -1.95514652155454       -1.74645172224444
O            0.78840587117625       -0.70929397551012        0.56637304041576
C            1.92000233053315        0.03680989369365        0.78693253895848
C            1.91010898340588        1.40676439564692        0.99560279126807
C            3.10357593716453        2.07189189015970        1.22232306884077
C            4.29900354738838        1.37651358848899        1.24222137184206
C            4.30582430068005        0.00805806391439        1.02499434302104
C            3.12462031182662       -0.67637602455776        0.79238773648323
C            3.09259577458858       -2.15499144282634        0.49615580736738
O            2.55601823962455       -2.44070529974342       -0.78584410232904
H           -4.44906980527743        2.28166173213960       -0.11649655819496
H           -3.52006914953039        1.21558157636801        1.81273716562140
H           -2.33380586659182        2.53590145050396        1.71064014323672
H           -1.89794264095004        1.81632833696812       -0.70617341454216
H            0.11737601708168        0.54538969845636       -0.92280843041740
H           -1.30266273696173       -2.01595721360254       -0.02021445593262
H           -1.89141843284311       -0.12556933727515       -2.35647295015614
H           -3.43289842728455       -0.66289493150347        0.23250338257893
H           -4.56444517708354       -0.08169141609440       -1.77668107836594
H           -2.42148587673709       -2.44038822973786       -2.50089113986888
H            0.67365043938155       -2.20222514516615       -1.30909989749577
H            0.97059939334435        1.93630060190760        0.99997012349903
H            3.09431218469747        3.13834273571422        1.38842293276659
H            5.22684576032931        1.89738780874454        1.42261161954621
H            5.23985969357487       -0.53539556067454        1.03250408633530
H            2.42984129710975       -2.66275211689029        1.20094704434113
H            4.10147269773608       -2.57820037291889        0.58549814372001
H            3.08594764852705       -1.98373979796919       -1.44915327735329
