----- Optimization -----
      -----------------------------------------------------------      
     |                   =====================                   |     
     |                           x T B                           |     
     |                   =====================                   |     
     |                         S. Grimme                         |     
     |          Mulliken Center for Theoretical Chemistry        |     
     |                    University of Bonn                     |     
      -----------------------------------------------------------      

   * xtb version 6.7.1 (edcfbbe) compiled by 'conda@3ef47c1a292c' on 2024-11-25

   xtb is free software: you can redistribute it and/or modify it under
   the terms of the GNU Lesser General Public License as published by
   the Free Software Foundation, either version 3 of the License, or
   (at your option) any later version.
   
   xtb is distributed in the hope that it will be useful,
   but WITHOUT ANY WARRANTY; without even the implied warranty of
   MERCHANTABILITY or FITNESS FOR A PARTICULAR PURPOSE.  See the
   GNU Lesser General Public License for more details.
   
   Cite this work as:
   * C. Bannwarth, E. Caldeweyher, S. Ehlert, A. Hansen, P. Pracht,
     J. Seibert, S. Spicher, S. Grimme, WIREs Comput. Mol. Sci., 2020, 11,
     e01493. DOI: 10.1002/wcms.1493
   
   for GFN2-xTB:
   * C. Bannwarth, S. Ehlert and S. Grimme., J. Chem. Theory Comput., 2019,
     15, 1652-1671. DOI: 10.1021/acs.jctc.8b01176
   for GFN1-xTB:
   * S. Grimme, C. Bannwarth, P. Shushkov, J. Chem. Theory Comput., 2017,
     13, 1989-2009. DOI: 10.1021/acs.jctc.7b00118
   for GFN0-xTB:
   * P. Pracht, E. Caldeweyher, S. Ehlert, S. Grimme, ChemRxiv, 2019, preprint.
     DOI: 10.26434/chemrxiv.8326202.v1
   for GFN-FF:
   * S. Spicher and S. Grimme, Angew. Chem. Int. Ed., 2020, 59, 15665-15673.
     DOI: 10.1002/anie.202004239
   
   for ALPB and GBSA implicit solvation:
   * S. Ehlert, M. Stahn, S. Spicher, S. Grimme, J. Chem. Theory Comput.,
     2021, 17, 4250-4261. DOI: 10.1021/acs.jctc.1c00471
   
   for ddCOSMO and CPCM-X implicit solvation:
   * M. Stahn, S. Ehlert, S. Grimme, J. Phys. Chem. A,
     2023, XX, XXXX-XXXX. DOI: 10.1021/acs.jpca.3c04382
   
   for DFT-D4:
   * E. Caldeweyher, C. Bannwarth and S. Grimme, J. Chem. Phys., 2017,
     147, 034112. DOI: 10.1063/1.4993215
   * E. Caldeweyher, S. Ehlert, A. Hansen, H. Neugebauer, S. Spicher,
     C. Bannwarth and S. Grimme, J. Chem. Phys., 2019, 150, 154122.
     DOI: 10.1063/1.5090222
   * E. Caldeweyher, J.-M. Mewes, S. Ehlert and S. Grimme, Phys. Chem. Chem. Phys.
     2020, 22, 8499-8512. DOI: 10.1039/D0CP00502A
   
   for sTDA-xTB:
   * S. Grimme and C. Bannwarth, J. Chem. Phys., 2016, 145, 054103.
     DOI: 10.1063/1.4959605
   
   in the mass-spec context:
   * V. Asgeirsson, C. Bauer and S. Grimme, Chem. Sci., 2017, 8, 4879.
     DOI: 10.1039/c7sc00601b
   * J. Koopman and S. Grimme, ACS Omega 2019, 4, 12, 15120-15133.
     DOI: 10.1021/acsomega.9b02011
   
   for metadynamics refer to:
   * S. Grimme, J. Chem. Theory Comput., 2019, 155, 2847-2862
     DOI: 10.1021/acs.jctc.9b00143
   
   for SPH calculations refer to:
   * S. Spicher and S. Grimme, J. Chem. Theory Comput., 2021, 17, 1701-1714
     DOI: 10.1021/acs.jctc.0c01306
   
   for ONIOM refer to:
   * C. Plett, A. Katbashev, S. Ehlert, S. Grimme, M. Bursch,
     Phys. Chem. Chem. Phys., 2023, 25, 17860-17868. DOI: 10.1039/D3CP02178E
   
   for DIPRO refer to:
   * J. Kohn, N. Gildemeister, S. Grimme, D. Fazzi, A. Hansen,
     J. Chem. Phys., 2023, just accepted.
   
   for PTB refer to:
   * S. Grimme, M. Mueller, A. Hansen, J. Chem. Phys., 2023, 158, 124111.
     DOI: 10.1063/5.0137838
   
   with help from (in alphabetical order)
   P. Atkinson, C. Bannwarth, F. Bohle, G. Brandenburg, E. Caldeweyher
   M. Checinski, S. Dohm, S. Ehlert, S. Ehrlich, I. Gerasimov, C. Hölzer
   A. Katbashev, J. Kohn, J. Koopman, C. Lavigne, S. Lehtola, F. März, M. Müller,
   F. Musil, H. Neugebauer, J. Pisarek, C. Plett, P. Pracht, F. Pultar,
   J. Seibert, P. Shushkov, S. Spicher, M. Stahn, M. Steiner, T. Strunk,
   J. Stückrath, T. Rose, and J. Unsleber
   
 * started run on 2025/05/15 at 16:05:04.495     
   ID    Z sym.   atoms
    1    8 O      1, 4, 9-12, 20
    2    6 C      2, 3, 5-8, 13-19
    3    1 H      21-38

           -------------------------------------------------
          |                Calculation Setup                |
           -------------------------------------------------

          program call               : xtb /rds/general/user/hgt20/home/callum/QDESCP/Salicin_rdkit_conf_4/Salicin_rdkit_conf_4.xyz --opt normal --acc 1 --gfn 2 --chrg 0 --uhf 0 -P 1
          hostname                   : login-c
          coordinate file            : /rds/general/user/hgt20/home/callum/QDESCP/Salicin_rdkit_conf_4/Salicin_rdkit_conf_4.xyz
          omp threads                :                     1


           -------------------------------------------------
          |                 G F N 2 - x T B                 |
           -------------------------------------------------

        Reference                      10.1021/acs.jctc.8b01176
      * Hamiltonian:
        H0-scaling (s, p, d)           1.850000    2.230000    2.230000
        zeta-weighting                 0.500000
      * Dispersion:
        s8                             2.700000
        a1                             0.520000
        a2                             5.000000
        s9                             5.000000
      * Repulsion:
        kExp                           1.500000    1.000000
        rExp                           1.000000
      * Coulomb:
        alpha                          2.000000
        third order                    shell-resolved
        anisotropic                    true
        a3                             3.000000
        a5                             4.000000
        cn-shift                       1.200000
        cn-exp                         4.000000
        max-rad                        5.000000


          ...................................................
          :                      SETUP                      :
          :.................................................:
          :  # basis functions                  98          :
          :  # atomic orbitals                  98          :
          :  # shells                           58          :
          :  # electrons                       112          :
          :  max. iterations                   250          :
          :  Hamiltonian                  GFN2-xTB          :
          :  restarted?                      false          :
          :  GBSA solvation                  false          :
          :  PC potential                    false          :
          :  electronic temp.          300.0000000     K    :
          :  accuracy                    1.0000000          :
          :  -> integral cutoff          0.2500000E+02      :
          :  -> integral neglect         0.1000000E-07      :
          :  -> SCF convergence          0.1000000E-05 Eh   :
          :  -> wf. convergence          0.1000000E-03 e    :
          :  Broyden damping             0.4000000          :
          :  net charge                          0          :
          :  unpaired electrons                  0          :
          ...................................................

 iter      E             dE          RMSdq      gap      omega  full diag
   1    -66.0124153 -0.660124E+02  0.462E+00    4.21       0.0  T
   2    -66.0749184 -0.625030E-01  0.257E+00    4.24       1.0  T
   3    -66.0729460  0.197232E-02  0.881E-01    4.06       1.0  T
   4    -66.0780709 -0.512490E-02  0.284E-01    4.21       1.0  T
   5    -66.0795249 -0.145395E-02  0.923E-02    4.21       1.0  T
   6    -66.0795706 -0.457317E-04  0.415E-02    4.21       1.0  T
   7    -66.0795776 -0.695904E-05  0.150E-02    4.22       1.1  T
   8    -66.0795797 -0.214178E-05  0.520E-03    4.21       3.1  T
   9    -66.0795800 -0.300735E-06  0.197E-03    4.21       8.2  T
  10    -66.0795801 -0.330249E-07  0.883E-04    4.21      18.4  T
  11    -66.0795801 -0.821473E-08  0.364E-04    4.21      44.6  T

   *** convergence criteria satisfied after 11 iterations ***

         #    Occupation            Energy/Eh            Energy/eV
      -------------------------------------------------------------
         1        2.0000           -0.7329210             -19.9438
       ...           ...                  ...                  ...
        50        2.0000           -0.4304031             -11.7119
        51        2.0000           -0.4284781             -11.6595
        52        2.0000           -0.4274030             -11.6302
        53        2.0000           -0.4212106             -11.4617
        54        2.0000           -0.4177581             -11.3678
        55        2.0000           -0.4075303             -11.0895
        56        2.0000           -0.4032624             -10.9733 (HOMO)
        57                         -0.2484212              -6.7599 (LUMO)
        58                         -0.2422314              -6.5915
        59                         -0.1243901              -3.3848
        60                         -0.0660314              -1.7968
        61                         -0.0251967              -0.6856
       ...                                ...                  ...
        98                          0.6116133              16.6428
      -------------------------------------------------------------
                  HL-Gap            0.1548413 Eh            4.2134 eV
             Fermi-level           -0.3258418 Eh           -8.8666 eV

 SCC (total)                   0 d,  0 h,  0 min,  0.046 sec
 SCC setup                      ...        0 min,  0.000 sec (  0.764%)
 Dispersion                     ...        0 min,  0.000 sec (  0.811%)
 classical contributions        ...        0 min,  0.000 sec (  0.273%)
 integral evaluation            ...        0 min,  0.006 sec ( 14.106%)
 iterations                     ...        0 min,  0.020 sec ( 42.951%)
 molecular gradient             ...        0 min,  0.019 sec ( 40.772%)
 printout                       ...        0 min,  0.000 sec (  0.308%)

         :::::::::::::::::::::::::::::::::::::::::::::::::::::
         ::                     SUMMARY                     ::
         :::::::::::::::::::::::::::::::::::::::::::::::::::::
         :: total energy             -65.467388894237 Eh    ::
         :: gradient norm              0.074821229198 Eh/a0 ::
         :: HOMO-LUMO gap              4.213445475751 eV    ::
         ::.................................................::
         :: SCC energy               -66.079346673300 Eh    ::
         :: -> isotropic ES            0.155569646446 Eh    ::
         :: -> anisotropic ES         -0.007011621352 Eh    ::
         :: -> anisotropic XC          0.000426842838 Eh    ::
         :: -> dispersion             -0.036655660121 Eh    ::
         :: repulsion energy           0.611957779062 Eh    ::
         :: add. restraining           0.000000000000 Eh    ::
         :: total charge              -0.000000000000 e     ::
         :::::::::::::::::::::::::::::::::::::::::::::::::::::

      ----------------------------------------------------------- 
     |                   =====================                   |
     |                        A N C O P T                        |
     |                   =====================                   |
     |               Approximate Normal Coordinate               |
     |                Rational Function Optimizer                |
      ----------------------------------------------------------- 
      ----------------------------------------------------------- 
     |                   =====================                   |
     |                        A N C O P T                        |
     |                   =====================                   |
     |               Approximate Normal Coordinate               |
     |                Rational Function Optimizer                |
      ----------------------------------------------------------- 

          ...................................................
          :                      SETUP                      :
          :.................................................:
          :   optimization level            normal          :
          :   max. optcycles                   200          :
          :   ANC micro-cycles                  20          :
          :   degrees of freedom               108          :
          :.................................................:
          :   RF solver                   davidson          :
          :   write xtbopt.log                true          :
          :   linear?                        false          :
          :   energy convergence         0.5000000E-05 Eh   :
          :   grad. convergence          0.1000000E-02 Eh/α :
          :   maxmium RF displ.          1.0000000          :
          :   Hlow (freq-cutoff)         0.1000000E-01      :
          :   Hmax (freq-cutoff)         5.0000000          :
          :   S6 in model hess.         20.0000000          :
          ...................................................

generating ANC from exact Hessian ...
Using Lindh-Hessian (1995)
 Shifting diagonal of input Hessian by    9.5170186295946303E-003
 Lowest  eigenvalues of input Hessian
    0.000000    0.000000    0.000000    0.000000    0.000000    0.000000
    0.010000    0.010512    0.011568    0.012681    0.013131    0.014162
    0.015211    0.016505    0.017223    0.018409    0.019713    0.021401
 Highest eigenvalues
    1.527697    1.577824    1.706602    1.838876    1.953555    2.025688


........................................................................
.............................. CYCLE    1 ..............................
........................................................................

 iter      E             dE          RMSdq      gap      omega  full diag
   1    -66.0795801 -0.660796E+02  0.107E-04    4.21       0.0  T
   2    -66.0795801 -0.542144E-10  0.611E-05    4.21     265.4  T
   3    -66.0795801 -0.852651E-12  0.317E-05    4.21     511.2  T
     SCC iter.                  ...        0 min,  0.006 sec
     gradient                   ...        0 min,  0.020 sec
 * total energy  :   -65.4673889 Eh     change       -0.3455199E-08 Eh
   gradient norm :     0.0748213 Eh/α   predicted     0.0000000E+00 (-100.00%)
   displ. norm   :     0.2628819 α      lambda       -0.1015409E-01
   maximum displ.:     0.0841707 α      in ANC's #3, #52, #25, ...

........................................................................
.............................. CYCLE    2 ..............................
........................................................................

 iter      E             dE          RMSdq      gap      omega  full diag
   1    -66.1091807 -0.661092E+02  0.170E-01    4.26       0.0  T
   2    -66.1092139 -0.331948E-04  0.102E-01    4.25       1.0  T
   3    -66.1092042  0.961741E-05  0.226E-02    4.26       1.0  T
   4    -66.1092185 -0.142245E-04  0.751E-03    4.25       2.2  T
   5    -66.1092199 -0.138803E-05  0.329E-03    4.25       4.9  T
   6    -66.1092199 -0.523627E-07  0.132E-03    4.25      12.3  T
   7    -66.1092199 -0.101236E-07  0.554E-04    4.25      29.3  T
   8    -66.1092199 -0.362064E-08  0.201E-04    4.25      80.7  T
     SCC iter.                  ...        0 min,  0.013 sec
     gradient                   ...        0 min,  0.019 sec
 * total energy  :   -65.4744880 Eh     change       -0.7099053E-02 Eh
   gradient norm :     0.0375191 Eh/α   predicted    -0.5428780E-02 ( -23.53%)
   displ. norm   :     0.2648753 α      lambda       -0.3718808E-02
   maximum displ.:     0.1528595 α      in ANC's #3, #25, #14, ...

........................................................................
.............................. CYCLE    3 ..............................
........................................................................

 iter      E             dE          RMSdq      gap      omega  full diag
   1    -66.1239883 -0.661240E+02  0.128E-01    4.25       0.0  T
   2    -66.1240076 -0.192503E-04  0.761E-02    4.26       1.0  T
   3    -66.1240069  0.652790E-06  0.145E-02    4.26       1.1  T
   4    -66.1240106 -0.364629E-05  0.496E-03    4.26       3.3  T
   5    -66.1240108 -0.255324E-06  0.258E-03    4.26       6.3  T
   6    -66.1240109 -0.106416E-06  0.103E-03    4.26      15.8  T
   7    -66.1240109 -0.331021E-08  0.425E-04    4.26      38.2  T
   8    -66.1240109 -0.214074E-08  0.117E-04    4.26     139.2  T
     SCC iter.                  ...        0 min,  0.013 sec
     gradient                   ...        0 min,  0.018 sec
 * total energy  :   -65.4766770 Eh     change       -0.2189072E-02 Eh
   gradient norm :     0.0098171 Eh/α   predicted    -0.1990747E-02 (  -9.06%)
   displ. norm   :     0.2024894 α      lambda       -0.6132474E-03
   maximum displ.:     0.1648683 α      in ANC's #3, #9, #6, ...

........................................................................
.............................. CYCLE    4 ..............................
........................................................................

 iter      E             dE          RMSdq      gap      omega  full diag
   1    -66.1239678 -0.661240E+02  0.622E-02    4.25       0.0  T
   2    -66.1239712 -0.336371E-05  0.374E-02    4.25       1.0  T
   3    -66.1239689  0.234757E-05  0.984E-03    4.25       1.6  T
   4    -66.1239719 -0.307852E-05  0.253E-03    4.25       6.4  T
   5    -66.1239721 -0.112891E-06  0.971E-04    4.25      16.7  T
   6    -66.1239721 -0.663201E-08  0.437E-04    4.25      37.1  T
     SCC iter.                  ...        0 min,  0.010 sec
     gradient                   ...        0 min,  0.018 sec
 * total energy  :   -65.4771525 Eh     change       -0.4755051E-03 Eh
   gradient norm :     0.0054005 Eh/α   predicted    -0.3192112E-03 ( -32.87%)
   displ. norm   :     0.2775523 α      lambda       -0.5448921E-03
   maximum displ.:     0.2286692 α      in ANC's #3, #6, #9, ...

........................................................................
.............................. CYCLE    5 ..............................
........................................................................

 iter      E             dE          RMSdq      gap      omega  full diag
   1    -66.1219522 -0.661220E+02  0.806E-02    4.24       0.0  T
   2    -66.1219572 -0.496337E-05  0.486E-02    4.25       1.0  T
   3    -66.1219512  0.600755E-05  0.147E-02    4.25       1.1  T
   4    -66.1219587 -0.754061E-05  0.277E-03    4.25       5.9  T
   5    -66.1219588 -0.113460E-06  0.119E-03    4.25      13.6  T
   6    -66.1219588 -0.738471E-08  0.565E-04    4.25      28.7  T
   7    -66.1219588 -0.144165E-08  0.219E-04    4.25      74.2  T
     SCC iter.                  ...        0 min,  0.011 sec
     gradient                   ...        0 min,  0.018 sec
 * total energy  :   -65.4775673 Eh     change       -0.4148003E-03 Eh
   gradient norm :     0.0063640 Eh/α   predicted    -0.2934342E-03 ( -29.26%)
   displ. norm   :     0.2421361 α      lambda       -0.3316590E-03
   maximum displ.:     0.1987168 α      in ANC's #3, #4, #6, ...

........................................................................
.............................. CYCLE    6 ..............................
........................................................................

 iter      E             dE          RMSdq      gap      omega  full diag
   1    -66.1211922 -0.661212E+02  0.676E-02    4.25       0.0  T
   2    -66.1211948 -0.267532E-05  0.404E-02    4.26       1.0  T
   3    -66.1211909  0.396073E-05  0.120E-02    4.26       1.4  T
   4    -66.1211958 -0.496548E-05  0.202E-03    4.26       8.0  T
   5    -66.1211959 -0.448038E-07  0.977E-04    4.26      16.6  T
   6    -66.1211959 -0.403095E-08  0.464E-04    4.26      35.0  T
     SCC iter.                  ...        0 min,  0.010 sec
     gradient                   ...        0 min,  0.024 sec
 * total energy  :   -65.4778424 Eh     change       -0.2750306E-03 Eh
   gradient norm :     0.0066850 Eh/α   predicted    -0.1755654E-03 ( -36.17%)
   displ. norm   :     0.2520079 α      lambda       -0.3049553E-03
   maximum displ.:     0.2040526 α      in ANC's #3, #4, #6, ...

........................................................................
.............................. CYCLE    7 ..............................
........................................................................

 iter      E             dE          RMSdq      gap      omega  full diag
   1    -66.1218545 -0.661219E+02  0.704E-02    4.26       0.0  T
   2    -66.1218567 -0.226491E-05  0.417E-02    4.27       1.0  T
   3    -66.1218529  0.380205E-05  0.117E-02    4.27       1.4  T
   4    -66.1218577 -0.476910E-05  0.191E-03    4.27       8.5  T
   5    -66.1218577 -0.298756E-07  0.957E-04    4.27      17.0  T
   6    -66.1218577 -0.358824E-08  0.449E-04    4.27      36.1  T
     SCC iter.                  ...        0 min,  0.010 sec
     gradient                   ...        0 min,  0.018 sec
 * total energy  :   -65.4780947 Eh     change       -0.2523412E-03 Eh
   gradient norm :     0.0047337 Eh/α   predicted    -0.1621636E-03 ( -35.74%)
   displ. norm   :     0.2730321 α      lambda       -0.2594657E-03
   maximum displ.:     0.2204619 α      in ANC's #3, #4, #7, ...

........................................................................
.............................. CYCLE    8 ..............................
........................................................................

 iter      E             dE          RMSdq      gap      omega  full diag
   1    -66.1231974 -0.661232E+02  0.772E-02    4.27       0.0  T
   2    -66.1231999 -0.242078E-05  0.455E-02    4.28       1.0  T
   3    -66.1231953  0.453360E-05  0.126E-02    4.28       1.3  T
   4    -66.1232010 -0.563648E-05  0.192E-03    4.28       8.4  T
   5    -66.1232010 -0.276020E-07  0.969E-04    4.28      16.7  T
   6    -66.1232010 -0.418007E-08  0.463E-04    4.28      35.0  T
     SCC iter.                  ...        0 min,  0.010 sec
     gradient                   ...        0 min,  0.019 sec
 * total energy  :   -65.4782975 Eh     change       -0.2027852E-03 Eh
   gradient norm :     0.0026560 Eh/α   predicted    -0.1394043E-03 ( -31.26%)
   displ. norm   :     0.2363004 α      lambda       -0.1547461E-03
   maximum displ.:     0.1916564 α      in ANC's #3, #4, #7, ...

........................................................................
.............................. CYCLE    9 ..............................
........................................................................

 iter      E             dE          RMSdq      gap      omega  full diag
   1    -66.1243604 -0.661244E+02  0.676E-02    4.28       0.0  T
   2    -66.1243623 -0.191307E-05  0.398E-02    4.29       1.0  T
   3    -66.1243585  0.380805E-05  0.115E-02    4.29       1.4  T
   4    -66.1243632 -0.469429E-05  0.158E-03    4.29      10.3  T
   5    -66.1243632 -0.199116E-07  0.797E-04    4.29      20.4  T
   6    -66.1243632 -0.366929E-08  0.393E-04    4.29      41.2  T
     SCC iter.                  ...        0 min,  0.010 sec
     gradient                   ...        0 min,  0.018 sec
 * total energy  :   -65.4784181 Eh     change       -0.1206409E-03 Eh
   gradient norm :     0.0024013 Eh/α   predicted    -0.8169455E-04 ( -32.28%)
   displ. norm   :     0.1868233 α      lambda       -0.9370174E-04
   maximum displ.:     0.1518142 α      in ANC's #3, #4, #7, ...

........................................................................
.............................. CYCLE   10 ..............................
........................................................................

 iter      E             dE          RMSdq      gap      omega  full diag
   1    -66.1251906 -0.661252E+02  0.543E-02    4.29       0.0  T
   2    -66.1251919 -0.130634E-05  0.319E-02    4.29       1.0  T
   3    -66.1251893  0.259327E-05  0.964E-03    4.29       1.7  T
   4    -66.1251925 -0.319130E-05  0.121E-03    4.29      13.4  T
   5    -66.1251925 -0.132972E-07  0.605E-04    4.29      26.8  T
   6    -66.1251925 -0.270551E-08  0.299E-04    4.29      54.3  T
     SCC iter.                  ...        0 min,  0.010 sec
     gradient                   ...        0 min,  0.018 sec
 * total energy  :   -65.4784932 Eh     change       -0.7509203E-04 Eh
   gradient norm :     0.0023389 Eh/α   predicted    -0.4849398E-04 ( -35.42%)
   displ. norm   :     0.1597008 α      lambda       -0.6672429E-04
   maximum displ.:     0.1290674 α      in ANC's #3, #4, #7, ...

........................................................................
.............................. CYCLE   11 ..............................
........................................................................

 iter      E             dE          RMSdq      gap      omega  full diag
   1    -66.1255436 -0.661255E+02  0.475E-02    4.29       0.0  T
   2    -66.1255445 -0.972480E-06  0.279E-02    4.30       1.0  T
   3    -66.1255427  0.181484E-05  0.816E-03    4.29       2.0  T
   4    -66.1255450 -0.223432E-05  0.103E-03    4.30      15.7  T
   5    -66.1255450 -0.108389E-07  0.512E-04    4.30      31.7  T
   6    -66.1255450 -0.193090E-08  0.247E-04    4.30      65.8  T
     SCC iter.                  ...        0 min,  0.037 sec
     gradient                   ...        0 min,  0.019 sec
 * total energy  :   -65.4785458 Eh     change       -0.5260554E-04 Eh
   gradient norm :     0.0019025 Eh/α   predicted    -0.3421605E-04 ( -34.96%)
   displ. norm   :     0.1968768 α      lambda       -0.4274052E-04
   maximum displ.:     0.1582789 α      in ANC's #3, #4, #9, ...

........................................................................
.............................. CYCLE   12 ..............................
........................................................................

 iter      E             dE          RMSdq      gap      omega  full diag
   1    -66.1254343 -0.661254E+02  0.597E-02    4.29       0.0  T
   2    -66.1254355 -0.128063E-05  0.351E-02    4.30       1.0  T
   3    -66.1254334  0.210077E-05  0.885E-03    4.30       1.8  T
   4    -66.1254360 -0.259949E-05  0.129E-03    4.30      12.6  T
   5    -66.1254361 -0.168231E-07  0.645E-04    4.30      25.1  T
   6    -66.1254361 -0.214891E-08  0.296E-04    4.30      54.8  T
     SCC iter.                  ...        0 min,  0.010 sec
     gradient                   ...        0 min,  0.019 sec
 * total energy  :   -65.4785870 Eh     change       -0.4121867E-04 Eh
   gradient norm :     0.0013792 Eh/α   predicted    -0.2174414E-04 ( -47.25%)
   displ. norm   :     0.0715109 α      lambda       -0.1169008E-04
   maximum displ.:     0.0559754 α      in ANC's #3, #2, #9, ...

........................................................................
.............................. CYCLE   13 ..............................
........................................................................

 iter      E             dE          RMSdq      gap      omega  full diag
   1    -66.1255101 -0.661255E+02  0.214E-02    4.30       0.0  T
   2    -66.1255102 -0.106939E-06  0.127E-02    4.30       1.3  T
   3    -66.1255101  0.454287E-07  0.166E-03    4.30       9.8  T
   4    -66.1255102 -0.777700E-07  0.517E-04    4.30      31.4  T
   5    -66.1255102 -0.257184E-08  0.269E-04    4.30      60.4  T
     SCC iter.                  ...        0 min,  0.008 sec
     gradient                   ...        0 min,  0.039 sec
 * total energy  :   -65.4786008 Eh     change       -0.1380715E-04 Eh
   gradient norm :     0.0009090 Eh/α   predicted    -0.5858560E-05 ( -57.57%)
   displ. norm   :     0.0820396 α      lambda       -0.1246588E-04
   maximum displ.:     0.0535313 α      in ANC's #3, #5, #2, ...

........................................................................
.............................. CYCLE   14 ..............................
........................................................................

 iter      E             dE          RMSdq      gap      omega  full diag
   1    -66.1253331 -0.661253E+02  0.249E-02    4.30       0.0  T
   2    -66.1253332 -0.148816E-06  0.149E-02    4.30       1.1  T
   3    -66.1253332 -0.108064E-07  0.133E-03    4.30      12.2  T
   4    -66.1253333 -0.331447E-07  0.609E-04    4.30      26.6  T
   5    -66.1253333 -0.260972E-08  0.317E-04    4.30      51.2  T
     SCC iter.                  ...        0 min,  0.008 sec
     gradient                   ...        0 min,  0.018 sec
 * total energy  :   -65.4786132 Eh     change       -0.1239547E-04 Eh
   gradient norm :     0.0006667 Eh/α   predicted    -0.6253808E-05 ( -49.55%)
   displ. norm   :     0.0580377 α      lambda       -0.5755619E-05
   maximum displ.:     0.0280929 α      in ANC's #3, #5, #6, ...

........................................................................
.............................. CYCLE   15 ..............................
........................................................................

 iter      E             dE          RMSdq      gap      omega  full diag
   1    -66.1253745 -0.661254E+02  0.178E-02    4.30       0.0  T
   2    -66.1253745 -0.670701E-07  0.107E-02    4.30       1.5  T
   3    -66.1253745  0.121620E-07  0.107E-03    4.30      15.1  T
   4    -66.1253746 -0.359752E-07  0.450E-04    4.30      36.1  T
   5    -66.1253746 -0.217389E-08  0.213E-04    4.30      76.1  T
     SCC iter.                  ...        0 min,  0.008 sec
     gradient                   ...        0 min,  0.044 sec
 * total energy  :   -65.4786172 Eh     change       -0.3938035E-05 Eh
   gradient norm :     0.0010128 Eh/α   predicted    -0.2882870E-05 ( -26.79%)
   displ. norm   :     0.0296911 α      lambda       -0.3147541E-05
   maximum displ.:     0.0145893 α      in ANC's #2, #5, #6, ...

........................................................................
.............................. CYCLE   16 ..............................
........................................................................

 iter      E             dE          RMSdq      gap      omega  full diag
   1    -66.1254083 -0.661254E+02  0.992E-03    4.30       0.0  T
   2    -66.1254083 -0.192876E-07  0.597E-03    4.30       2.7  T
   3    -66.1254083  0.147370E-07  0.816E-04    4.30      19.9  T
   4    -66.1254083 -0.228852E-07  0.230E-04    4.30      70.5  T
     SCC iter.                  ...        0 min,  0.007 sec
     gradient                   ...        0 min,  0.018 sec
 * total energy  :   -65.4786200 Eh     change       -0.2853970E-05 Eh
   gradient norm :     0.0005535 Eh/α   predicted    -0.1579191E-05 ( -44.67%)
   displ. norm   :     0.0237480 α      lambda       -0.2026990E-05
   maximum displ.:     0.0116587 α      in ANC's #2, #1, #6, ...

   *** GEOMETRY OPTIMIZATION CONVERGED AFTER 16 ITERATIONS ***

------------------------------------------------------------------------
 total energy gain   :        -0.0112311 Eh       -7.0476 kcal/mol
 total RMSD          :         0.3834945 a0        0.2029 Å
 total power (kW/mol):        -1.8429601 (step)  -43.6811 (real)
------------------------------------------------------------------------

 ANCopt (total)                0 d,  0 h,  0 min,  0.675 sec
 optimizer setup                ...        0 min,  0.000 sec (  0.012%)
 model hessian                  ...        0 min,  0.017 sec (  2.460%)
 ANC generation                 ...        0 min,  0.001 sec (  0.186%)
 coordinate transformation      ...        0 min,  0.000 sec (  0.014%)
 single point calculation       ...        0 min,  0.653 sec ( 96.680%)
 optimization log               ...        0 min,  0.003 sec (  0.412%)
 hessian update                 ...        0 min,  0.000 sec (  0.027%)
 rational function              ...        0 min,  0.001 sec (  0.135%)

================
 final structure:
================
38
 xtb: 6.7.1 (edcfbbe)
O           -3.94615944912755        2.78911832511172        0.53718127274965
C           -3.02595144596195        1.92171556824569        1.13007367348978
C           -2.22727195835965        1.12514579989289        0.08856351508534
O           -1.10623056092943        0.56442947532021        0.73770446722065
C           -0.26099667395553       -0.14213899652097       -0.13664239725785
C           -0.99059209228816       -1.31696984280702       -0.81213249935904
C           -2.22548910372889       -0.78486427618318       -1.53725642613181
C           -3.08201794930570        0.02201817412008       -0.55649229850316
O           -4.18085200307158        0.60375280327742       -1.21436551068544
O           -3.01778486205363       -1.82381141713901       -2.05897210954917
O           -0.16291621612886       -1.95514652155454       -1.74645172224444
O            0.78840587117625       -0.70929397551012        0.56637304041576
C            1.92000233053315        0.03680989369365        0.78693253895848
C            1.91010898340588        1.40676439564692        0.99560279126807
C            3.10357593716453        2.07189189015970        1.22232306884077
C            4.29900354738838        1.37651358848899        1.24222137184206
C            4.30582430068005        0.00805806391439        1.02499434302104
C            3.12462031182662       -0.67637602455776        0.79238773648323
C            3.09259577458858       -2.15499144282634        0.49615580736738
O            2.55601823962455       -2.44070529974342       -0.78584410232904
H           -4.44906980527743        2.28166173213960       -0.11649655819496
H           -3.52006914953039        1.21558157636801        1.81273716562140
H           -2.33380586659182        2.53590145050396        1.71064014323672
H           -1.89794264095004        1.81632833696812       -0.70617341454216
H            0.11737601708168        0.54538969845636       -0.92280843041740
H           -1.30266273696173       -2.01595721360254       -0.02021445593262
H           -1.89141843284311       -0.12556933727515       -2.35647295015614
H           -3.43289842728455       -0.66289493150347        0.23250338257893
H           -4.56444517708354       -0.08169141609440       -1.77668107836594
H           -2.42148587673709       -2.44038822973786       -2.50089113986888
H            0.67365043938155       -2.20222514516615       -1.30909989749577
H            0.97059939334435        1.93630060190760        0.99997012349903
H            3.09431218469747        3.13834273571422        1.38842293276659
H            5.22684576032931        1.89738780874454        1.42261161954621
H            5.23985969357487       -0.53539556067454        1.03250408633530
H            2.42984129710975       -2.66275211689029        1.20094704434113
H            4.10147269773608       -2.57820037291889        0.58549814372001
H            3.08594764852705       -1.98373979796919       -1.44915327735329

 Bond Distances (Angstroems)
 ---------------------------
O1-C2=1.3967         O1-H21=0.9684        C2-O1=1.3967         C2-C3=1.5353         C2-H22=1.0995        C2-H23=1.0924        
C3-C2=1.5353         C3-O4=1.4116         C3-C8=1.5374         C3-H24=1.1035        O4-C3=1.4116         O4-C5=1.4065         
C5-O4=1.4065         C5-C6=1.5391         C5-O12=1.3846        C5-H25=1.1108        C6-C5=1.5391         C6-C7=1.5277         
C6-O11=1.4019        C6-H26=1.1014        C7-C6=1.5277         C7-C8=1.5319         C7-O10=1.4069        C7-H27=1.1034        
C8-C3=1.5374         C8-C7=1.5319         C8-O9=1.4066         C8-H28=1.1022        O9-C8=1.4066         O9-H29=0.9660        
O10-C7=1.4069        O10-H30=0.9649       O11-C6=1.4019        O11-H31=0.9758       O12-C5=1.3846        O12-C13=1.3733       
C13-O12=1.3733       C13-C14=1.3858       C13-C18=1.3999       C14-C13=1.3858       C14-C15=1.3850       C14-H32=1.0785       
C15-C14=1.3850       C15-C16=1.3831       C15-H33=1.0793       C16-C15=1.3831       C16-C17=1.3856       C16-H34=1.0792       
C17-C16=1.3856       C17-C18=1.3848       C17-H35=1.0807       C18-C13=1.3999       C18-C17=1.3848       C18-C19=1.5083       
C19-C18=1.5083       C19-O20=1.4188       C19-H36=1.0926       C19-H37=1.0977       O20-C19=1.4188       O20-H38=0.9642       
H21-O1=0.9684        H22-C2=1.0995        H23-C2=1.0924        H24-C3=1.1035        H25-C5=1.1108        H26-C6=1.1014        
H27-C7=1.1034        H28-C8=1.1022        H29-O9=0.9660        H30-O10=0.9649       H31-O11=0.9758       H32-C14=1.0785       
H33-C15=1.0793       H34-C16=1.0792       H35-C17=1.0807       H36-C19=1.0926       H37-C19=1.0977       H38-O20=0.9642       
 C  H  Rav=1.0939 sigma=0.0107  Rmin=1.0785  Rmax=1.1108    13
 C  C  Rav=1.4587 sigma=0.0718  Rmin=1.3831  Rmax=1.5391    12
 O  H  Rav=0.9678 sigma=0.0042  Rmin=0.9642  Rmax=0.9758     5
 O  C  Rav=1.4008 sigma=0.0133  Rmin=1.3733  Rmax=1.4188     9

 selected bond angles (degree)
 --------------------
H21-O1-C2=107.65               C3-C2-O1=112.15                H22-C2-O1=111.49               H22-C2-C3=108.77               
H23-C2-O1=107.09               H23-C2-C3=108.82               H23-C2-H22=108.41              O4-C3-C2=107.89                
C8-C3-C2=111.57                C8-C3-O4=110.45                H24-C3-C2=108.59               H24-C3-O4=110.06               
H24-C3-C8=108.25               C5-O4-C3=113.01                C6-C5-O4=111.80                O12-C5-O4=110.22               
O12-C5-C6=105.63               H25-C5-O4=109.50               H25-C5-C6=108.86               H25-C5-O12=110.78              
C7-C6-C5=109.00                O11-C6-C5=111.11               O11-C6-C7=108.63               H26-C6-C5=107.65               
H26-C6-C7=109.47               H26-C6-O11=110.95              C8-C7-C6=109.36                O10-C7-C6=111.96               
O10-C7-C8=108.15               H27-C7-C6=108.41               H27-C7-C8=109.26               H27-C7-O10=109.66              
C7-C8-C3=109.62                O9-C8-C3=109.50                O9-C8-C7=110.81                H28-C8-C3=108.82               
H28-C8-C7=108.00               H28-C8-O9=110.07               H29-O9-C8=106.80               H30-O10-C7=107.08              

 selected dihedral angles (degree)
 ---------------------------------
C3-C2-O1-H21= 49.43           H22-C2-O1-H21=287.18          H23-C2-O1-H21=168.75          O4-C3-C2-O1=164.50            
O4-C3-C2-H22=288.28           O4-C3-C2-H23= 46.20           C8-C3-C2-O1=286.00            C8-C3-C2-H22= 49.78           
C8-C3-C2-H23=167.71           H24-C3-C2-O1= 45.23           H24-C3-C2-H22=169.01          H24-C3-C2-H23=286.94          
C5-O4-C3-C2=182.76            C5-O4-C3-C8= 60.56            C5-O4-C3-H24=301.09           C6-C5-O4-C3=299.46            
O12-C5-O4-C3=182.29           H25-C5-O4-C3= 60.19           C7-C6-C5-O4= 56.33            C7-C6-C5-O12=176.23           
C7-C6-C5-H25=295.23           O11-C6-C5-O4=176.01           O11-C6-C5-O12=295.91          O11-C6-C5-H25= 54.91          
H26-C6-C5-O4=297.68           H26-C6-C5-O12= 57.58          H26-C6-C5-H25=176.58          C8-C7-C6-C5=306.13            
C8-C7-C6-O11=184.93           C8-C7-C6-H26= 63.64           O10-C7-C6-C5=186.28           O10-C7-C6-O11= 65.08          
O10-C7-C6-H26=303.79          H27-C7-C6-C5= 65.18           H27-C7-C6-O11=303.98          H27-C7-C6-H26=182.68          
C7-C8-C3-C2=182.64            C7-C8-C3-O4=302.65            C7-C8-C3-H24= 63.21           O9-C8-C3-C2= 60.89            
O9-C8-C3-O4=180.90            O9-C8-C3-H24=301.46           H28-C8-C3-C2=300.55           H28-C8-C3-O4= 60.56           
H28-C8-C3-H24=181.12          C3-C8-C7-C6= 54.98            C3-C8-C7-O10=177.15           C3-C8-C7-H27=296.47           
O9-C8-C7-C6=175.95            O9-C8-C7-O10=298.12           O9-C8-C7-H27= 57.43           H28-C8-C7-C6=296.57           
H28-C8-C7-O10= 58.74          H28-C8-C7-H27=178.05          H29-O9-C8-C3=166.55           H29-O9-C8-C7= 45.52           
H29-O9-C8-H28=286.13          H30-O10-C7-C6=313.89          H30-O10-C7-C8=193.33          H30-O10-C7-H27= 74.26         
           -------------------------------------------------
          |                Final Singlepoint                |
           -------------------------------------------------

          ...................................................
          :                      SETUP                      :
          :.................................................:
          :  # basis functions                  98          :
          :  # atomic orbitals                  98          :
          :  # shells                           58          :
          :  # electrons                       112          :
          :  max. iterations                   250          :
          :  Hamiltonian                  GFN2-xTB          :
          :  restarted?                      false          :
          :  GBSA solvation                  false          :
          :  PC potential                    false          :
          :  electronic temp.          300.0000000     K    :
          :  accuracy                    1.0000000          :
          :  -> integral cutoff          0.2500000E+02      :
          :  -> integral neglect         0.1000000E-07      :
          :  -> SCF convergence          0.1000000E-05 Eh   :
          :  -> wf. convergence          0.1000000E-03 e    :
          :  Broyden damping             0.4000000          :
          :  net charge                          0          :
          :  unpaired electrons                  0          :
          ...................................................

 iter      E             dE          RMSdq      gap      omega  full diag
   1    -66.1254083 -0.661254E+02  0.105E-04    4.30       0.0  T
   2    -66.1254083 -0.590461E-10  0.653E-05    4.30     248.3  T
   3    -66.1254083 -0.116245E-10  0.408E-05    4.30     397.7  T

   *** convergence criteria satisfied after 3 iterations ***

         #    Occupation            Energy/Eh            Energy/eV
      -------------------------------------------------------------
         1        2.0000           -0.7369095             -20.0523
       ...           ...                  ...                  ...
        50        2.0000           -0.4269323             -11.6174
        51        2.0000           -0.4260105             -11.5923
        52        2.0000           -0.4247750             -11.5587
        53        2.0000           -0.4185020             -11.3880
        54        2.0000           -0.4129230             -11.2362
        55        2.0000           -0.4095741             -11.1451
        56        2.0000           -0.3991773             -10.8622 (HOMO)
        57                         -0.2412313              -6.5642 (LUMO)
        58                         -0.2335946              -6.3564
        59                         -0.1117001              -3.0395
        60                         -0.0363938              -0.9903
        61                         -0.0045293              -0.1232
       ...                                ...                  ...
        98                          0.6487637              17.6538
      -------------------------------------------------------------
                  HL-Gap            0.1579461 Eh            4.2979 eV
             Fermi-level           -0.3202043 Eh           -8.7132 eV

 SCC (total)                   0 d,  0 h,  0 min,  0.030 sec
 SCC setup                      ...        0 min,  0.000 sec (  0.800%)
 Dispersion                     ...        0 min,  0.000 sec (  0.775%)
 classical contributions        ...        0 min,  0.000 sec (  0.378%)
 integral evaluation            ...        0 min,  0.006 sec ( 20.379%)
 iterations                     ...        0 min,  0.005 sec ( 16.320%)
 molecular gradient             ...        0 min,  0.018 sec ( 60.908%)
 printout                       ...        0 min,  0.000 sec (  0.418%)

         :::::::::::::::::::::::::::::::::::::::::::::::::::::
         ::                     SUMMARY                     ::
         :::::::::::::::::::::::::::::::::::::::::::::::::::::
         :: total energy             -65.478620037677 Eh    ::
         :: gradient norm              0.000554303254 Eh/a0 ::
         :: HOMO-LUMO gap              4.297931251418 eV    ::
         ::.................................................::
         :: SCC energy               -66.125201788925 Eh    ::
         :: -> isotropic ES            0.150507983696 Eh    ::
         :: -> anisotropic ES         -0.008112039189 Eh    ::
         :: -> anisotropic XC         -0.002577893303 Eh    ::
         :: -> dispersion             -0.037009202963 Eh    ::
         :: repulsion energy           0.646581751247 Eh    ::
         :: add. restraining           0.000000000000 Eh    ::
         :: total charge               0.000000000000 e     ::
         :::::::::::::::::::::::::::::::::::::::::::::::::::::

           -------------------------------------------------
          |                Property Printout                |
           -------------------------------------------------

    * Orbital Energies and Occupations

         #    Occupation            Energy/Eh            Energy/eV
      -------------------------------------------------------------
         1        2.0000           -0.7369095             -20.0523
       ...           ...                  ...                  ...
        44        2.0000           -0.4738588             -12.8944
        45        2.0000           -0.4659325             -12.6787
        46        2.0000           -0.4515375             -12.2870
        47        2.0000           -0.4485336             -12.2052
        48        2.0000           -0.4452867             -12.1169
        49        2.0000           -0.4382974             -11.9267
        50        2.0000           -0.4269323             -11.6174
        51        2.0000           -0.4260105             -11.5923
        52        2.0000           -0.4247750             -11.5587
        53        2.0000           -0.4185020             -11.3880
        54        2.0000           -0.4129230             -11.2362
        55        2.0000           -0.4095741             -11.1451
        56        2.0000           -0.3991773             -10.8622 (HOMO)
        57                         -0.2412313              -6.5642 (LUMO)
        58                         -0.2335946              -6.3564
        59                         -0.1117001              -3.0395
        60                         -0.0363938              -0.9903
        61                         -0.0045293              -0.1232
        62                          0.0093793               0.2552
        63                          0.0319504               0.8694
        64                          0.0416857               1.1343
        65                          0.0529940               1.4420
        66                          0.0595288               1.6199
        67                          0.0770062               2.0954
       ...                                ...                  ...
        98                          0.6487637              17.6538
      -------------------------------------------------------------
                  HL-Gap            0.1579461 Eh            4.2979 eV
             Fermi-level           -0.3202043 Eh           -8.7132 eV

     #   Z          covCN         q      C6AA      α(0)
     1   8 O        1.656    -0.435    21.550     6.267
     2   6 C        3.676     0.077    19.520     6.330
     3   6 C        3.756     0.095    19.061     6.225
     4   8 O        1.702    -0.336    19.642     5.984
     5   6 C        3.656     0.245    17.071     5.931
     6   6 C        3.729     0.089    19.201     6.256
     7   6 C        3.731     0.099    19.039     6.228
     8   6 C        3.729     0.096    19.086     6.237
     9   8 O        1.656    -0.446    21.762     6.297
    10   8 O        1.656    -0.447    21.777     6.300
    11   8 O        1.655    -0.460    22.040     6.337
    12   8 O        1.708    -0.273    18.533     5.812
    13   6 C        2.875     0.142    24.901     8.180
    14   6 C        2.916    -0.057    29.425     8.895
    15   6 C        2.922    -0.029    28.733     8.790
    16   6 C        2.918    -0.038    28.949     8.823
    17   6 C        2.923    -0.039    28.973     8.827
    18   6 C        2.966    -0.026    28.651     8.780
    19   6 C        3.679     0.077    19.498     6.325
    20   8 O        1.654    -0.443    21.694     6.288
    21   1 H        0.805     0.317     0.671     1.287
    22   1 H        0.923     0.035     2.511     2.478
    23   1 H        0.924     0.066     2.135     2.285
    24   1 H        0.923     0.036     2.498     2.472
    25   1 H        0.921     0.004     2.982     2.701
    26   1 H        0.923     0.040     2.451     2.449
    27   1 H        0.923     0.030     2.585     2.514
    28   1 H        0.923     0.037     2.488     2.467
    29   1 H        0.805     0.321     0.660     1.276
    30   1 H        0.805     0.317     0.672     1.288
    31   1 H        0.804     0.331     0.634     1.251
    32   1 H        0.926     0.056     2.252     2.347
    33   1 H        0.926     0.046     2.373     2.409
    34   1 H        0.926     0.043     2.408     2.427
    35   1 H        0.926     0.041     2.432     2.439
    36   1 H        0.924     0.066     2.129     2.282
    37   1 H        0.924     0.030     2.580     2.512
    38   1 H        0.805     0.293     0.743     1.354

 Mol. C6AA /au·bohr⁶  :      14035.616928
 Mol. C8AA /au·bohr⁸  :     316539.648327
 Mol. α(0) /au        :        177.349097


Wiberg/Mayer (AO) data.
largest (>0.10) Wiberg bond orders for each atom

 ---------------------------------------------------------------------------
     #   Z sym  total        # sym  WBO       # sym  WBO       # sym  WBO
 ---------------------------------------------------------------------------
     1   8 O    1.962 --     2 C    1.022    21 H    0.870
     2   6 C    3.963 --     1 O    1.022     3 C    0.974    23 H    0.968
                            22 H    0.966
     3   6 C    3.940 --     2 C    0.974     8 C    0.969     4 O    0.967
                            24 H    0.955
     4   8 O    2.077 --     3 C    0.967     5 C    0.962
     5   6 C    3.928 --    12 O    0.990     4 O    0.962     6 C    0.946
                            25 H    0.944
     6   6 C    3.964 --    11 O    1.009     7 C    0.972    26 H    0.955
                             5 C    0.946
     7   6 C    3.962 --    10 O    0.997     6 C    0.972     8 C    0.972
                            27 H    0.955
     8   6 C    3.960 --     9 O    0.998     7 C    0.972     3 C    0.969
                            28 H    0.956
     9   8 O    1.963 --     8 C    0.998    29 H    0.875
    10   8 O    1.955 --     7 C    0.997    30 H    0.881
    11   8 O    1.948 --     6 C    1.009    31 H    0.846
    12   8 O    2.217 --    13 C    1.016     5 C    0.990
    13   6 C    3.925 --    14 C    1.396    18 C    1.340    12 O    1.016
    14   6 C    3.989 --    15 C    1.435    13 C    1.396    32 H    0.965
                            17 C    0.105
    15   6 C    3.991 --    16 C    1.444    14 C    1.435    33 H    0.970
                            18 C    0.107
    16   6 C    3.990 --    15 C    1.444    17 C    1.428    34 H    0.970
    17   6 C    3.990 --    18 C    1.435    16 C    1.428    35 H    0.968
                            14 C    0.105
    18   6 C    3.984 --    17 C    1.435    13 C    1.340    19 C    0.998
                            15 C    0.107
    19   6 C    3.951 --    18 C    0.998    20 O    0.981    37 H    0.970
                            36 H    0.962
    20   8 O    1.980 --    19 C    0.981    38 H    0.901
    21   1 H    0.899 --     1 O    0.870
    22   1 H    0.999 --     2 C    0.966
    23   1 H    0.995 --     2 C    0.968
    24   1 H    0.999 --     3 C    0.955
    25   1 H    1.000 --     5 C    0.944
    26   1 H    0.998 --     6 C    0.955
    27   1 H    0.999 --     7 C    0.955
    28   1 H    0.999 --     8 C    0.956
    29   1 H    0.897 --     9 O    0.875
    30   1 H    0.899 --    10 O    0.881
    31   1 H    0.890 --    11 O    0.846
    32   1 H    0.997 --    14 C    0.965
    33   1 H    0.997 --    15 C    0.970
    34   1 H    0.998 --    16 C    0.970
    35   1 H    0.998 --    17 C    0.968
    36   1 H    0.996 --    19 C    0.962
    37   1 H    0.999 --    19 C    0.970
    38   1 H    0.914 --    20 O    0.901
 ---------------------------------------------------------------------------

Topologies differ in total number of bonds
Writing topology from bond orders to xtbtopo.mol

molecular dipole:
                 x           y           z       tot (Debye)
 q only:        1.204      -0.298      -0.278
   full:        1.616      -0.574      -0.497       4.540
molecular quadrupole (traceless):
                xx          xy          yy          xz          yz          zz
 q only:        8.901       6.188      -7.666       3.122      -1.007      -1.236
  q+dip:        8.874      11.779      -7.838       0.897      -3.723      -1.036
   full:        8.580      10.846      -9.571       1.942      -3.127       0.990

           -------------------------------------------------
          |                Geometry Summary                 |
           -------------------------------------------------

      molecular mass/u    :      286.2783346
   center of mass at/Å    :       -0.0927770      -0.0444045      -0.0255496
  moments of inertia/u·Å² :        0.8948024E+03   0.2403330E+04   0.3166832E+04
rotational constants/cm⁻¹ :        0.1883950E-01   0.7014282E-02   0.5323185E-02

 * 38 selected distances

     #   Z          #   Z                                           value/Å
     1   8 O        2   6 C                                       1.3966718
     2   6 C        3   6 C                                       1.5353033
     3   6 C        4   8 O                                       1.4115668
     4   8 O        5   6 C                                       1.4064644
     5   6 C        6   6 C                                       1.5390985 (max)
     6   6 C        7   6 C                                       1.5277147
     3   6 C        8   6 C                                       1.5373935
     7   6 C        8   6 C                                       1.5318615
     8   6 C        9   8 O                                       1.4066446
     7   6 C       10   8 O                                       1.4068871
     6   6 C       11   8 O                                       1.4018807
     5   6 C       12   8 O                                       1.3846088
    12   8 O       13   6 C                                       1.3732547
    13   6 C       14   6 C                                       1.3857911
    14   6 C       15   6 C                                       1.3849767
    15   6 C       16   6 C                                       1.3831104
    16   6 C       17   6 C                                       1.3856064
    13   6 C       18   6 C                                       1.3999174
    17   6 C       18   6 C                                       1.3848462
    19   6 C       20   8 O                                       1.4188277
     1   8 O       21   1 H                                       0.9683625
     2   6 C       22   1 H                                       1.0994577
     2   6 C       23   1 H                                       1.0924044
     3   6 C       24   1 H                                       1.1035389
     5   6 C       25   1 H                                       1.1108190
     6   6 C       26   1 H                                       1.1014108
     7   6 C       27   1 H                                       1.1033535
     8   6 C       28   1 H                                       1.1021513
     9   8 O       29   1 H                                       0.9660106
    10   8 O       30   1 H                                       0.9649000
    11   8 O       31   1 H                                       0.9757912
    14   6 C       32   1 H                                       1.0784740
    15   6 C       33   1 H                                       1.0793482
    16   6 C       34   1 H                                       1.0792321
    17   6 C       35   1 H                                       1.0806575
    19   6 C       36   1 H                                       1.0926094
    19   6 C       37   1 H                                       1.0976888
    20   8 O       38   1 H                                       0.9641690 (min)

 * 4 distinct bonds (by element types)

   Z      Z             #   av. dist./Å        max./Å        min./Å
   1 H    6 C          13     1.0939343     1.1108190     1.0784740
   6 C    6 C          11     1.4541472     1.5390985     1.3831104
   1 H    8 O           5     0.9678467     0.9757912     0.9641690
   6 C    8 O           9     1.4007563     1.4188277     1.3732547


optimized geometry written to: xtbopt.xyz


           -------------------------------------------------
          | TOTAL ENERGY              -65.478620037677 Eh   |
          | GRADIENT NORM               0.000554303254 Eh/α |
          | HOMO-LUMO GAP               4.297931251418 eV   |
           -------------------------------------------------

------------------------------------------------------------------------
 * finished run on 2025/05/15 at 16:05:05.287     
------------------------------------------------------------------------
 total:
 * wall-time:     0 d,  0 h,  0 min,  0.791 sec
 *  cpu-time:     0 d,  0 h,  0 min,  0.662 sec
 * ratio c/w:     0.837 speedup
 SCF:
 * wall-time:     0 d,  0 h,  0 min,  0.046 sec
 *  cpu-time:     0 d,  0 h,  0 min,  0.046 sec
 * ratio c/w:     0.994 speedup
 ANC optimizer:
 * wall-time:     0 d,  0 h,  0 min,  0.733 sec
 *  cpu-time:     0 d,  0 h,  0 min,  0.606 sec
 * ratio c/w:     0.826 speedup



----- Single-point -----
      -----------------------------------------------------------      
     |                   =====================                   |     
     |                           x T B                           |     
     |                   =====================                   |     
     |                         S. Grimme                         |     
     |          Mulliken Center for Theoretical Chemistry        |     
     |                    University of Bonn                     |     
      -----------------------------------------------------------      

   * xtb version 6.7.1 (edcfbbe) compiled by 'conda@3ef47c1a292c' on 2024-11-25

   xtb is free software: you can redistribute it and/or modify it under
   the terms of the GNU Lesser General Public License as published by
   the Free Software Foundation, either version 3 of the License, or
   (at your option) any later version.
   
   xtb is distributed in the hope that it will be useful,
   but WITHOUT ANY WARRANTY; without even the implied warranty of
   MERCHANTABILITY or FITNESS FOR A PARTICULAR PURPOSE.  See the
   GNU Lesser General Public License for more details.
   
   Cite this work as:
   * C. Bannwarth, E. Caldeweyher, S. Ehlert, A. Hansen, P. Pracht,
     J. Seibert, S. Spicher, S. Grimme, WIREs Comput. Mol. Sci., 2020, 11,
     e01493. DOI: 10.1002/wcms.1493
   
   for GFN2-xTB:
   * C. Bannwarth, S. Ehlert and S. Grimme., J. Chem. Theory Comput., 2019,
     15, 1652-1671. DOI: 10.1021/acs.jctc.8b01176
   for GFN1-xTB:
   * S. Grimme, C. Bannwarth, P. Shushkov, J. Chem. Theory Comput., 2017,
     13, 1989-2009. DOI: 10.1021/acs.jctc.7b00118
   for GFN0-xTB:
   * P. Pracht, E. Caldeweyher, S. Ehlert, S. Grimme, ChemRxiv, 2019, preprint.
     DOI: 10.26434/chemrxiv.8326202.v1
   for GFN-FF:
   * S. Spicher and S. Grimme, Angew. Chem. Int. Ed., 2020, 59, 15665-15673.
     DOI: 10.1002/anie.202004239
   
   for ALPB and GBSA implicit solvation:
   * S. Ehlert, M. Stahn, S. Spicher, S. Grimme, J. Chem. Theory Comput.,
     2021, 17, 4250-4261. DOI: 10.1021/acs.jctc.1c00471
   
   for ddCOSMO and CPCM-X implicit solvation:
   * M. Stahn, S. Ehlert, S. Grimme, J. Phys. Chem. A,
     2023, XX, XXXX-XXXX. DOI: 10.1021/acs.jpca.3c04382
   
   for DFT-D4:
   * E. Caldeweyher, C. Bannwarth and S. Grimme, J. Chem. Phys., 2017,
     147, 034112. DOI: 10.1063/1.4993215
   * E. Caldeweyher, S. Ehlert, A. Hansen, H. Neugebauer, S. Spicher,
     C. Bannwarth and S. Grimme, J. Chem. Phys., 2019, 150, 154122.
     DOI: 10.1063/1.5090222
   * E. Caldeweyher, J.-M. Mewes, S. Ehlert and S. Grimme, Phys. Chem. Chem. Phys.
     2020, 22, 8499-8512. DOI: 10.1039/D0CP00502A
   
   for sTDA-xTB:
   * S. Grimme and C. Bannwarth, J. Chem. Phys., 2016, 145, 054103.
     DOI: 10.1063/1.4959605
   
   in the mass-spec context:
   * V. Asgeirsson, C. Bauer and S. Grimme, Chem. Sci., 2017, 8, 4879.
     DOI: 10.1039/c7sc00601b
   * J. Koopman and S. Grimme, ACS Omega 2019, 4, 12, 15120-15133.
     DOI: 10.1021/acsomega.9b02011
   
   for metadynamics refer to:
   * S. Grimme, J. Chem. Theory Comput., 2019, 155, 2847-2862
     DOI: 10.1021/acs.jctc.9b00143
   
   for SPH calculations refer to:
   * S. Spicher and S. Grimme, J. Chem. Theory Comput., 2021, 17, 1701-1714
     DOI: 10.1021/acs.jctc.0c01306
   
   for ONIOM refer to:
   * C. Plett, A. Katbashev, S. Ehlert, S. Grimme, M. Bursch,
     Phys. Chem. Chem. Phys., 2023, 25, 17860-17868. DOI: 10.1039/D3CP02178E
   
   for DIPRO refer to:
   * J. Kohn, N. Gildemeister, S. Grimme, D. Fazzi, A. Hansen,
     J. Chem. Phys., 2023, just accepted.
   
   for PTB refer to:
   * S. Grimme, M. Mueller, A. Hansen, J. Chem. Phys., 2023, 158, 124111.
     DOI: 10.1063/5.0137838
   
   with help from (in alphabetical order)
   P. Atkinson, C. Bannwarth, F. Bohle, G. Brandenburg, E. Caldeweyher
   M. Checinski, S. Dohm, S. Ehlert, S. Ehrlich, I. Gerasimov, C. Hölzer
   A. Katbashev, J. Kohn, J. Koopman, C. Lavigne, S. Lehtola, F. März, M. Müller,
   F. Musil, H. Neugebauer, J. Pisarek, C. Plett, P. Pracht, F. Pultar,
   J. Seibert, P. Shushkov, S. Spicher, M. Stahn, M. Steiner, T. Strunk,
   J. Stückrath, T. Rose, and J. Unsleber
   
 * started run on 2025/05/15 at 16:05:05.303     
   ID    Z sym.   atoms
    1    8 O      1, 4, 9-12, 20
    2    6 C      2, 3, 5-8, 13-19
    3    1 H      21-38

           -------------------------------------------------
          |                Calculation Setup                |
           -------------------------------------------------

          program call               : xtb /rds/general/user/hgt20/home/callum/QDESCP/Salicin_rdkit_conf_4/Salicin_rdkit_conf_4.xyz --acc 1 --gfn 2 --chrg 0 --uhf 0 --etemp 300 --input /rds/general/user/hgt20/home/callum/QDESCP/Salicin_rdkit_conf_4/Salicin_rdkit_conf_4_xtb.inp -P 1
          hostname                   : login-c
          coordinate file            : /rds/general/user/hgt20/home/callum/QDESCP/Salicin_rdkit_conf_4/Salicin_rdkit_conf_4.xyz
          omp threads                :                     1


           -------------------------------------------------
          |                 G F N 2 - x T B                 |
           -------------------------------------------------

        Reference                      10.1021/acs.jctc.8b01176
      * Hamiltonian:
        H0-scaling (s, p, d)           1.850000    2.230000    2.230000
        zeta-weighting                 0.500000
      * Dispersion:
        s8                             2.700000
        a1                             0.520000
        a2                             5.000000
        s9                             5.000000
      * Repulsion:
        kExp                           1.500000    1.000000
        rExp                           1.000000
      * Coulomb:
        alpha                          2.000000
        third order                    shell-resolved
        anisotropic                    true
        a3                             3.000000
        a5                             4.000000
        cn-shift                       1.200000
        cn-exp                         4.000000
        max-rad                        5.000000

q/qsh data taken from xtbrestart
CAMM data taken from xtbrestart

          ...................................................
          :                      SETUP                      :
          :.................................................:
          :  # basis functions                  98          :
          :  # atomic orbitals                  98          :
          :  # shells                           58          :
          :  # electrons                       112          :
          :  max. iterations                   250          :
          :  Hamiltonian                  GFN2-xTB          :
          :  restarted?                       true          :
          :  GBSA solvation                  false          :
          :  PC potential                    false          :
          :  electronic temp.          300.0000000     K    :
          :  accuracy                    1.0000000          :
          :  -> integral cutoff          0.2500000E+02      :
          :  -> integral neglect         0.1000000E-07      :
          :  -> SCF convergence          0.1000000E-05 Eh   :
          :  -> wf. convergence          0.1000000E-03 e    :
          :  Broyden damping             0.4000000          :
          :  net charge                          0          :
          :  unpaired electrons                  0          :
          ...................................................

 iter      E             dE          RMSdq      gap      omega  full diag
   1    -66.1254083 -0.661254E+02  0.812E-06    4.30       0.0  T
   2    -66.1254083 -0.568434E-12  0.521E-06    4.30    3114.6  T
   3    -66.1254083 -0.568434E-12  0.317E-06    4.30    5124.0  T

   *** convergence criteria satisfied after 3 iterations ***

         #    Occupation            Energy/Eh            Energy/eV
      -------------------------------------------------------------
         1        2.0000           -0.7369097             -20.0523
       ...           ...                  ...                  ...
        50        2.0000           -0.4269322             -11.6174
        51        2.0000           -0.4260104             -11.5923
        52        2.0000           -0.4247751             -11.5587
        53        2.0000           -0.4185020             -11.3880
        54        2.0000           -0.4129230             -11.2362
        55        2.0000           -0.4095744             -11.1451
        56        2.0000           -0.3991774             -10.8622 (HOMO)
        57                         -0.2412314              -6.5642 (LUMO)
        58                         -0.2335946              -6.3564
        59                         -0.1117001              -3.0395
        60                         -0.0363939              -0.9903
        61                         -0.0045293              -0.1232
       ...                                ...                  ...
        98                          0.6487636              17.6538
      -------------------------------------------------------------
                  HL-Gap            0.1579461 Eh            4.2979 eV
             Fermi-level           -0.3202044 Eh           -8.7132 eV

 SCC (total)                   0 d,  0 h,  0 min,  0.034 sec
 SCC setup                      ...        0 min,  0.000 sec (  0.914%)
 Dispersion                     ...        0 min,  0.000 sec (  1.132%)
 classical contributions        ...        0 min,  0.000 sec (  0.354%)
 integral evaluation            ...        0 min,  0.006 sec ( 18.882%)
 iterations                     ...        0 min,  0.006 sec ( 18.149%)
 molecular gradient             ...        0 min,  0.020 sec ( 60.035%)
 printout                       ...        0 min,  0.000 sec (  0.514%)

         :::::::::::::::::::::::::::::::::::::::::::::::::::::
         ::                     SUMMARY                     ::
         :::::::::::::::::::::::::::::::::::::::::::::::::::::
         :: total energy             -65.478620037694 Eh    ::
         :: gradient norm              0.000553879169 Eh/a0 ::
         :: HOMO-LUMO gap              4.297931973391 eV    ::
         ::.................................................::
         :: SCC energy               -66.125201788942 Eh    ::
         :: -> isotropic ES            0.150507912605 Eh    ::
         :: -> anisotropic ES         -0.008112116334 Eh    ::
         :: -> anisotropic XC         -0.002577908091 Eh    ::
         :: -> dispersion             -0.037009206435 Eh    ::
         :: repulsion energy           0.646581751247 Eh    ::
         :: add. restraining           0.000000000000 Eh    ::
         :: total charge              -0.000000000000 e     ::
         :::::::::::::::::::::::::::::::::::::::::::::::::::::

           -------------------------------------------------
          |                Property Printout                |
           -------------------------------------------------

    * Orbital Energies and Occupations

         #    Occupation            Energy/Eh            Energy/eV
      -------------------------------------------------------------
         1        2.0000           -0.7369097             -20.0523
       ...           ...                  ...                  ...
        44        2.0000           -0.4738588             -12.8944
        45        2.0000           -0.4659325             -12.6787
        46        2.0000           -0.4515375             -12.2870
        47        2.0000           -0.4485336             -12.2052
        48        2.0000           -0.4452867             -12.1169
        49        2.0000           -0.4382974             -11.9267
        50        2.0000           -0.4269322             -11.6174
        51        2.0000           -0.4260104             -11.5923
        52        2.0000           -0.4247751             -11.5587
        53        2.0000           -0.4185020             -11.3880
        54        2.0000           -0.4129230             -11.2362
        55        2.0000           -0.4095744             -11.1451
        56        2.0000           -0.3991774             -10.8622 (HOMO)
        57                         -0.2412314              -6.5642 (LUMO)
        58                         -0.2335946              -6.3564
        59                         -0.1117001              -3.0395
        60                         -0.0363939              -0.9903
        61                         -0.0045293              -0.1232
        62                          0.0093793               0.2552
        63                          0.0319503               0.8694
        64                          0.0416857               1.1343
        65                          0.0529939               1.4420
        66                          0.0595288               1.6199
        67                          0.0770061               2.0954
       ...                                ...                  ...
        98                          0.6487636              17.6538
      -------------------------------------------------------------
                  HL-Gap            0.1579461 Eh            4.2979 eV
             Fermi-level           -0.3202044 Eh           -8.7132 eV

     #   Z          covCN         q      C6AA      α(0)
     1   8 O        1.656    -0.435    21.550     6.267
     2   6 C        3.676     0.077    19.520     6.330
     3   6 C        3.756     0.095    19.061     6.225
     4   8 O        1.702    -0.336    19.642     5.984
     5   6 C        3.656     0.245    17.071     5.931
     6   6 C        3.729     0.089    19.201     6.256
     7   6 C        3.731     0.099    19.039     6.228
     8   6 C        3.729     0.096    19.086     6.237
     9   8 O        1.656    -0.446    21.762     6.297
    10   8 O        1.656    -0.447    21.777     6.300
    11   8 O        1.655    -0.460    22.040     6.337
    12   8 O        1.708    -0.273    18.533     5.812
    13   6 C        2.875     0.142    24.901     8.180
    14   6 C        2.916    -0.057    29.425     8.895
    15   6 C        2.922    -0.029    28.733     8.790
    16   6 C        2.918    -0.038    28.949     8.823
    17   6 C        2.923    -0.039    28.973     8.827
    18   6 C        2.966    -0.026    28.651     8.780
    19   6 C        3.679     0.077    19.498     6.325
    20   8 O        1.654    -0.443    21.694     6.288
    21   1 H        0.805     0.317     0.671     1.287
    22   1 H        0.923     0.035     2.511     2.478
    23   1 H        0.924     0.066     2.135     2.285
    24   1 H        0.923     0.036     2.498     2.472
    25   1 H        0.921     0.004     2.982     2.701
    26   1 H        0.923     0.040     2.451     2.449
    27   1 H        0.923     0.030     2.585     2.514
    28   1 H        0.923     0.037     2.488     2.467
    29   1 H        0.805     0.321     0.660     1.276
    30   1 H        0.805     0.317     0.672     1.288
    31   1 H        0.804     0.331     0.634     1.251
    32   1 H        0.926     0.056     2.252     2.347
    33   1 H        0.926     0.046     2.373     2.409
    34   1 H        0.926     0.043     2.408     2.427
    35   1 H        0.926     0.041     2.432     2.439
    36   1 H        0.924     0.066     2.129     2.282
    37   1 H        0.924     0.030     2.580     2.512
    38   1 H        0.805     0.293     0.743     1.354

 Mol. C6AA /au·bohr⁶  :      14035.617260
 Mol. C8AA /au·bohr⁸  :     316539.654976
 Mol. α(0) /au        :        177.349099


Wiberg/Mayer (AO) data.
largest (>0.10) Wiberg bond orders for each atom

 ---------------------------------------------------------------------------
     #   Z sym  total        # sym  WBO       # sym  WBO       # sym  WBO
 ---------------------------------------------------------------------------
     1   8 O    1.962 --     2 C    1.022    21 H    0.870
     2   6 C    3.963 --     1 O    1.022     3 C    0.974    23 H    0.968
                            22 H    0.966
     3   6 C    3.940 --     2 C    0.974     8 C    0.969     4 O    0.967
                            24 H    0.955
     4   8 O    2.077 --     3 C    0.967     5 C    0.962
     5   6 C    3.928 --    12 O    0.990     4 O    0.962     6 C    0.946
                            25 H    0.944
     6   6 C    3.964 --    11 O    1.009     7 C    0.972    26 H    0.955
                             5 C    0.946
     7   6 C    3.962 --    10 O    0.997     6 C    0.972     8 C    0.972
                            27 H    0.955
     8   6 C    3.960 --     9 O    0.998     7 C    0.972     3 C    0.969
                            28 H    0.956
     9   8 O    1.963 --     8 C    0.998    29 H    0.875
    10   8 O    1.955 --     7 C    0.997    30 H    0.881
    11   8 O    1.948 --     6 C    1.009    31 H    0.846
    12   8 O    2.217 --    13 C    1.016     5 C    0.990
    13   6 C    3.925 --    14 C    1.396    18 C    1.340    12 O    1.016
    14   6 C    3.989 --    15 C    1.435    13 C    1.396    32 H    0.965
                            17 C    0.105
    15   6 C    3.991 --    16 C    1.444    14 C    1.435    33 H    0.970
                            18 C    0.107
    16   6 C    3.990 --    15 C    1.444    17 C    1.428    34 H    0.970
    17   6 C    3.990 --    18 C    1.435    16 C    1.428    35 H    0.968
                            14 C    0.105
    18   6 C    3.984 --    17 C    1.435    13 C    1.340    19 C    0.998
                            15 C    0.107
    19   6 C    3.951 --    18 C    0.998    20 O    0.981    37 H    0.970
                            36 H    0.962
    20   8 O    1.980 --    19 C    0.981    38 H    0.901
    21   1 H    0.899 --     1 O    0.870
    22   1 H    0.999 --     2 C    0.966
    23   1 H    0.995 --     2 C    0.968
    24   1 H    0.999 --     3 C    0.955
    25   1 H    1.000 --     5 C    0.944
    26   1 H    0.998 --     6 C    0.955
    27   1 H    0.999 --     7 C    0.955
    28   1 H    0.999 --     8 C    0.956
    29   1 H    0.897 --     9 O    0.875
    30   1 H    0.899 --    10 O    0.881
    31   1 H    0.890 --    11 O    0.846
    32   1 H    0.997 --    14 C    0.965
    33   1 H    0.997 --    15 C    0.970
    34   1 H    0.998 --    16 C    0.970
    35   1 H    0.998 --    17 C    0.968
    36   1 H    0.996 --    19 C    0.962
    37   1 H    0.999 --    19 C    0.970
    38   1 H    0.914 --    20 O    0.901
 ---------------------------------------------------------------------------

Topologies differ in total number of bonds
Writing topology from bond orders to xtbtopo.mol

molecular dipole:
                 x           y           z       tot (Debye)
 q only:        1.204      -0.298      -0.278
   full:        1.616      -0.574      -0.497       4.540
molecular quadrupole (traceless):
                xx          xy          yy          xz          yz          zz
 q only:        8.901       6.188      -7.666       3.122      -1.007      -1.236
  q+dip:        8.874      11.779      -7.838       0.897      -3.723      -1.035
   full:        8.580      10.846      -9.571       1.942      -3.127       0.990


           -------------------------------------------------
          | TOTAL ENERGY              -65.478620037694 Eh   |
          | GRADIENT NORM               0.000553879169 Eh/α |
          | HOMO-LUMO GAP               4.297931973391 eV   |
           -------------------------------------------------

------------------------------------------------------------------------
 * finished run on 2025/05/15 at 16:05:05.379     
------------------------------------------------------------------------
 total:
 * wall-time:     0 d,  0 h,  0 min,  0.076 sec
 *  cpu-time:     0 d,  0 h,  0 min,  0.045 sec
 * ratio c/w:     0.594 speedup
 SCF:
 * wall-time:     0 d,  0 h,  0 min,  0.034 sec
 *  cpu-time:     0 d,  0 h,  0 min,  0.034 sec
 * ratio c/w:     0.994 speedup



----- FOD -----
      -----------------------------------------------------------      
     |                   =====================                   |     
     |                           x T B                           |     
     |                   =====================                   |     
     |                         S. Grimme                         |     
     |          Mulliken Center for Theoretical Chemistry        |     
     |                    University of Bonn                     |     
      -----------------------------------------------------------      

   * xtb version 6.7.1 (edcfbbe) compiled by 'conda@3ef47c1a292c' on 2024-11-25

   xtb is free software: you can redistribute it and/or modify it under
   the terms of the GNU Lesser General Public License as published by
   the Free Software Foundation, either version 3 of the License, or
   (at your option) any later version.
   
   xtb is distributed in the hope that it will be useful,
   but WITHOUT ANY WARRANTY; without even the implied warranty of
   MERCHANTABILITY or FITNESS FOR A PARTICULAR PURPOSE.  See the
   GNU Lesser General Public License for more details.
   
   Cite this work as:
[...]
     J. Seibert, S. Spicher, S. Grimme, WIREs Comput. Mol. Sci., 2020, 11,
     e01493. DOI: 10.1002/wcms.1493
   
   for GFN2-xTB:
   * C. Bannwarth, S. Ehlert and S. Grimme., J. Chem. Theory Comput., 2019,
     15, 1652-1671. DOI: 10.1021/acs.jctc.8b01176
   for GFN1-xTB:
   * S. Grimme, C. Bannwarth, P. Shushkov, J. Chem. Theory Comput., 2017,
     13, 1989-2009. DOI: 10.1021/acs.jctc.7b00118
   for GFN0-xTB:
   * P. Pracht, E. Caldeweyher, S. Ehlert, S. Grimme, ChemRxiv, 2019, preprint.
     DOI: 10.26434/chemrxiv.8326202.v1
   for GFN-FF:
   * S. Spicher and S. Grimme, Angew. Chem. Int. Ed., 2020, 59, 15665-15673.
     DOI: 10.1002/anie.202004239
   
   for ALPB and GBSA implicit solvation:
   * S. Ehlert, M. Stahn, S. Spicher, S. Grimme, J. Chem. Theory Comput.,
     2021, 17, 4250-4261. DOI: 10.1021/acs.jctc.1c00471
   
   for ddCOSMO and CPCM-X implicit solvation:
   * M. Stahn, S. Ehlert, S. Grimme, J. Phys. Chem. A,
     2023, XX, XXXX-XXXX. DOI: 10.1021/acs.jpca.3c04382
   
   for DFT-D4:
   * E. Caldeweyher, C. Bannwarth and S. Grimme, J. Chem. Phys., 2017,
     147, 034112. DOI: 10.1063/1.4993215
   * E. Caldeweyher, S. Ehlert, A. Hansen, H. Neugebauer, S. Spicher,
     C. Bannwarth and S. Grimme, J. Chem. Phys., 2019, 150, 154122.
     DOI: 10.1063/1.5090222
   * E. Caldeweyher, J.-M. Mewes, S. Ehlert and S. Grimme, Phys. Chem. Chem. Phys.
     2020, 22, 8499-8512. DOI: 10.1039/D0CP00502A
   
   for sTDA-xTB:
   * S. Grimme and C. Bannwarth, J. Chem. Phys., 2016, 145, 054103.
     DOI: 10.1063/1.4959605
   
   in the mass-spec context:
   * V. Asgeirsson, C. Bauer and S. Grimme, Chem. Sci., 2017, 8, 4879.
     DOI: 10.1039/c7sc00601b
   * J. Koopman and S. Grimme, ACS Omega 2019, 4, 12, 15120-15133.
     DOI: 10.1021/acsomega.9b02011
   
   for metadynamics refer to:
   * S. Grimme, J. Chem. Theory Comput., 2019, 155, 2847-2862
     DOI: 10.1021/acs.jctc.9b00143
   
   for SPH calculations refer to:
   * S. Spicher and S. Grimme, J. Chem. Theory Comput., 2021, 17, 1701-1714
     DOI: 10.1021/acs.jctc.0c01306
   
   for ONIOM refer to:
   * C. Plett, A. Katbashev, S. Ehlert, S. Grimme, M. Bursch,
     Phys. Chem. Chem. Phys., 2023, 25, 17860-17868. DOI: 10.1039/D3CP02178E
   
   for DIPRO refer to:
   * J. Kohn, N. Gildemeister, S. Grimme, D. Fazzi, A. Hansen,
     J. Chem. Phys., 2023, just accepted.
   
   for PTB refer to:
   * S. Grimme, M. Mueller, A. Hansen, J. Chem. Phys., 2023, 158, 124111.
     DOI: 10.1063/5.0137838
   
   with help from (in alphabetical order)
   P. Atkinson, C. Bannwarth, F. Bohle, G. Brandenburg, E. Caldeweyher
   M. Checinski, S. Dohm, S. Ehlert, S. Ehrlich, I. Gerasimov, C. Hölzer
   A. Katbashev, J. Kohn, J. Koopman, C. Lavigne, S. Lehtola, F. März, M. Müller,
   F. Musil, H. Neugebauer, J. Pisarek, C. Plett, P. Pracht, F. Pultar,
   J. Seibert, P. Shushkov, S. Spicher, M. Stahn, M. Steiner, T. Strunk,
   J. Stückrath, T. Rose, and J. Unsleber
   
 * started run on 2025/05/15 at 16:05:06.855     
   ID    Z sym.   atoms
    1    8 O      1, 4, 9-12, 20
    2    6 C      2, 3, 5-8, 13-19
    3    1 H      21-38

           -------------------------------------------------
          |                Calculation Setup                |
           -------------------------------------------------

          program call               : xtb /rds/general/user/hgt20/home/callum/QDESCP/Salicin_rdkit_conf_4/Salicin_rdkit_conf_4.xyz --acc 1 --gfn 2 --chrg 0 --uhf 2 --etemp 300 --input /rds/general/user/hgt20/home/callum/QDESCP/Salicin_rdkit_conf_4/Salicin_rdkit_conf_4_xtb.inp -P 1
          hostname                   : login-c
          coordinate file            : /rds/general/user/hgt20/home/callum/QDESCP/Salicin_rdkit_conf_4/Salicin_rdkit_conf_4.xyz
          omp threads                :                     1


           -------------------------------------------------
          |                 G F N 2 - x T B                 |
           -------------------------------------------------

        Reference                      10.1021/acs.jctc.8b01176
      * Hamiltonian:
        H0-scaling (s, p, d)           1.850000    2.230000    2.230000
        zeta-weighting                 0.500000
      * Dispersion:
        s8                             2.700000
        a1                             0.520000
        a2                             5.000000
        s9                             5.000000
      * Repulsion:
        kExp                           1.500000    1.000000
        rExp                           1.000000
      * Coulomb:
        alpha                          2.000000
        third order                    shell-resolved
        anisotropic                    true
        a3                             3.000000
        a5                             4.000000
        cn-shift                       1.200000
        cn-exp                         4.000000
        max-rad                        5.000000


          ...................................................
          :                      SETUP                      :
          :.................................................:
          :  # basis functions                  98          :
          :  # atomic orbitals                  98          :
          :  # shells                           58          :
          :  # electrons                       112          :
          :  max. iterations                   250          :
          :  Hamiltonian                  GFN2-xTB          :
          :  restarted?                      false          :
          :  GBSA solvation                  false          :
          :  PC potential                    false          :
          :  electronic temp.          300.0000000     K    :
          :  accuracy                    1.0000000          :
          :  -> integral cutoff          0.2500000E+02      :
          :  -> integral neglect         0.1000000E-07      :
          :  -> SCF convergence          0.1000000E-05 Eh   :
          :  -> wf. convergence          0.1000000E-03 e    :
          :  Broyden damping             0.4000000          :
          :  net charge                          0          :
          :  unpaired electrons                  2          :
          ...................................................

 iter      E             dE          RMSdq      gap      omega  full diag
   1    -65.8634999 -0.658635E+02  0.447E+00    0.32       0.0  T
   2    -65.7847238  0.787761E-01  0.369E+00    0.61       1.0  T
   3    -65.8618174 -0.770936E-01  0.251E+00    0.75       1.0  T
   4    -65.9382223 -0.764049E-01  0.803E-01    0.11       1.0  T
   5    -65.9470202 -0.879789E-02  0.737E-01    0.02       1.0  T
   6    -65.9537906 -0.677043E-02  0.642E-01    0.15       1.0  T
   7    -65.9591537 -0.536309E-02  0.378E-01    0.10       1.0  T
   8    -65.9583343  0.819417E-03  0.355E-01    0.10       1.0  T
   9    -65.9600529 -0.171861E-02  0.146E-01    0.06       1.0  T
  10    -65.9605157 -0.462799E-03  0.383E-02    0.06       1.0  T
  11    -65.9605287 -0.129931E-04  0.291E-02    0.06       1.0  T
  12    -65.9605395 -0.108393E-04  0.415E-03    0.07       3.9  T
  13    -65.9605397 -0.152814E-06  0.204E-03    0.07       8.0  T
  14    -65.9605397 -0.282468E-07  0.122E-03    0.07      13.3  T
  15    -65.9605397 -0.241904E-07  0.386E-04    0.07      42.0  T
  16    -65.9605397 -0.736492E-09  0.201E-04    0.07      80.7  T

   *** convergence criteria satisfied after 16 iterations ***

         #    Occupation            Energy/Eh            Energy/eV
      -------------------------------------------------------------
         1        2.0000           -0.7501763             -20.4133
       ...           ...                  ...                  ...
        51        2.0000           -0.4323515             -11.7649
        52        2.0000           -0.4212999             -11.4642
        53        2.0000           -0.4195738             -11.4172
        54        2.0000           -0.4146634             -11.2836
        55        1.9864           -0.4060800             -11.0500
        56        1.0136           -0.3979377             -10.8284
        57        0.7880           -0.2294648              -6.2441 (HOMO)
        58        0.2120           -0.2269704              -6.1762 (LUMO)
        59                         -0.1022449              -2.7822
        60                         -0.0444965              -1.2108
        61                         -0.0122301              -0.3328
        62                          0.0012687               0.0345
       ...                                ...                  ...
        98                          0.6574033              17.8889
      -------------------------------------------------------------
                  HL-Gap            0.0024944 Eh            0.0679 eV
             Fermi-level           -0.3151132 Eh           -8.5747 eV

 transition dipole moment (au) for excitation:          56          57
     X       Y       Z   
   1.2777  -0.4939   0.0523  total (au/Debye):    1.371   3.484
 dE (eV)             :    4.584
 oscillator strength :  0.29849E+00

 SCC (total)                   0 d,  0 h,  0 min,  0.059 sec
 SCC setup                      ...        0 min,  0.000 sec (  0.506%)
 Dispersion                     ...        0 min,  0.000 sec (  0.644%)
 classical contributions        ...        0 min,  0.000 sec (  0.205%)
 integral evaluation            ...        0 min,  0.006 sec ( 10.892%)
 iterations                     ...        0 min,  0.027 sec ( 46.398%)
 molecular gradient             ...        0 min,  0.019 sec ( 31.566%)
 printout                       ...        0 min,  0.006 sec (  9.778%)

         :::::::::::::::::::::::::::::::::::::::::::::::::::::
         ::                     SUMMARY                     ::
         :::::::::::::::::::::::::::::::::::::::::::::::::::::
         :: total energy             -65.313751464067 Eh    ::
         :: gradient norm              0.136003797808 Eh/a0 ::
         :: HOMO-LUMO gap              0.067876371520 eV    ::
         ::.................................................::
         :: SCC energy               -65.960333215314 Eh    ::
         :: -> isotropic ES            0.146265033346 Eh    ::
         :: -> anisotropic ES         -0.006403331442 Eh    ::
         :: -> anisotropic XC         -0.003064508375 Eh    ::
         :: -> dispersion             -0.036974064953 Eh    ::
         :: repulsion energy           0.646581751247 Eh    ::
         :: add. restraining           0.000000000000 Eh    ::
         :: total charge               0.000000000000 e     ::
         :::::::::::::::::::::::::::::::::::::::::::::::::::::

           -------------------------------------------------
          |                Property Printout                |
           -------------------------------------------------

    * Orbital Energies and Occupations

         #    Occupation            Energy/Eh            Energy/eV
      -------------------------------------------------------------
         1        2.0000           -0.7501763             -20.4133
       ...           ...                  ...                  ...
        45        2.0000           -0.4662754             -12.6880
        46        2.0000           -0.4581360             -12.4665
        47        2.0000           -0.4459269             -12.1343
        48        2.0000           -0.4430120             -12.0550
        49        2.0000           -0.4385191             -11.9327
        50        2.0000           -0.4340810             -11.8119
        51        2.0000           -0.4323515             -11.7649
        52        2.0000           -0.4212999             -11.4642
        53        2.0000           -0.4195738             -11.4172
        54        2.0000           -0.4146634             -11.2836
        55        1.9864           -0.4060800             -11.0500
        56        1.0136           -0.3979377             -10.8284
        57        0.7880           -0.2294648              -6.2441 (HOMO)
        58        0.2120           -0.2269704              -6.1762 (LUMO)
        59                         -0.1022449              -2.7822
        60                         -0.0444965              -1.2108
        61                         -0.0122301              -0.3328
        62                          0.0012687               0.0345
        63                          0.0268084               0.7295
        64                          0.0355086               0.9662
        65                          0.0499693               1.3597
        66                          0.0515184               1.4019
        67                          0.0722959               1.9673
        68                          0.0816867               2.2228
       ...                                ...                  ...
        98                          0.6574033              17.8889
      -------------------------------------------------------------
                  HL-Gap            0.0024944 Eh            0.0679 eV
             Fermi-level           -0.3151132 Eh           -8.5747 eV

     #   Z          covCN         q      C6AA      α(0)
     1   8 O        1.656    -0.432    21.470     6.255
     2   6 C        3.676     0.076    19.529     6.332
     3   6 C        3.756     0.094    19.070     6.226
     4   8 O        1.702    -0.327    19.475     5.958
     5   6 C        3.656     0.242    17.108     5.938
     6   6 C        3.729     0.090    19.180     6.252
     7   6 C        3.731     0.098    19.044     6.229
     8   6 C        3.729     0.096    19.091     6.238
     9   8 O        1.656    -0.444    21.730     6.293
    10   8 O        1.656    -0.444    21.715     6.291
    11   8 O        1.655    -0.455    21.949     6.324
    12   8 O        1.708    -0.231    17.821     5.700
    13   6 C        2.875     0.139    24.969     8.192
    14   6 C        2.916    -0.066    29.640     8.928
    15   6 C        2.922    -0.056    29.384     8.889
    16   6 C        2.918    -0.020    28.499     8.754
    17   6 C        2.923    -0.055    29.375     8.888
    18   6 C        2.966    -0.040    28.993     8.832
    19   6 C        3.679     0.076    19.514     6.327
    20   8 O        1.654    -0.450    21.836     6.308
    21   1 H        0.805     0.319     0.668     1.283
    22   1 H        0.923     0.038     2.480     2.463
    23   1 H        0.924     0.069     2.096     2.264
    24   1 H        0.923     0.040     2.447     2.447
    25   1 H        0.921     0.015     2.812     2.623
    26   1 H        0.923     0.043     2.405     2.425
    27   1 H        0.923     0.033     2.546     2.495
    28   1 H        0.923     0.039     2.465     2.455
    29   1 H        0.805     0.323     0.656     1.273
    30   1 H        0.805     0.319     0.667     1.283
    31   1 H        0.804     0.334     0.628     1.245
    32   1 H        0.926     0.044     2.399     2.422
    33   1 H        0.926     0.033     2.541     2.493
    34   1 H        0.926     0.040     2.453     2.449
    35   1 H        0.926     0.033     2.549     2.497
    36   1 H        0.924     0.065     2.144     2.290
    37   1 H        0.924     0.030     2.588     2.516
    38   1 H        0.805     0.292     0.745     1.356

 Mol. C6AA /au·bohr⁶  :      14043.412811
 Mol. C8AA /au·bohr⁸  :     316795.217618
 Mol. α(0) /au        :        177.432584


Wiberg/Mayer (AO) data.
largest (>0.10) Wiberg bond orders for each atom

 ---------------------------------------------------------------------------
     #   Z sym  total        # sym  WBO       # sym  WBO       # sym  WBO
 ---------------------------------------------------------------------------
     1   8 O    1.962 --     2 C    1.023    21 H    0.870
     2   6 C    3.959 --     1 O    1.023     3 C    0.970    23 H    0.968
                            22 H    0.965
     3   6 C    3.935 --     2 C    0.970     8 C    0.968     4 O    0.966
                            24 H    0.955
     4   8 O    2.082 --     3 C    0.966     5 C    0.963
     5   6 C    3.922 --    12 O    0.988     4 O    0.963    25 H    0.943
                             6 C    0.936
     6   6 C    3.958 --    11 O    1.012     7 C    0.970    26 H    0.954
                             5 C    0.936
     7   6 C    3.961 --    10 O    0.998     8 C    0.971     6 C    0.970
                            27 H    0.955
     8   6 C    3.960 --     9 O    0.999     7 C    0.971     3 C    0.968
                            28 H    0.955
     9   8 O    1.964 --     8 C    0.999    29 H    0.874
    10   8 O    1.954 --     7 C    0.998    30 H    0.880
    11   8 O    1.953 --     6 C    1.012    31 H    0.843
    12   8 O    2.302 --    13 C    1.098     5 C    0.988
    13   6 C    3.630 --    14 C    1.283    12 O    1.098    18 C    1.034
                            15 C    0.111
    14   6 C    3.861 --    15 C    1.452    13 C    1.283    32 H    0.965
    15   6 C    3.742 --    14 C    1.452    16 C    1.117    33 H    0.970
                            13 C    0.111
    16   6 C    3.694 --    17 C    1.367    15 C    1.117    34 H    0.971
                            18 C    0.133
    17   6 C    3.855 --    18 C    1.393    16 C    1.367    35 H    0.967
    18   6 C    3.704 --    17 C    1.393    13 C    1.034    19 C    1.015
                            16 C    0.133
    19   6 C    3.949 --    18 C    1.015    37 H    0.970    20 O    0.968
                            36 H    0.949
    20   8 O    1.971 --    19 C    0.968    38 H    0.900
    21   1 H    0.898 --     1 O    0.870
    22   1 H    0.998 --     2 C    0.965
    23   1 H    0.995 --     2 C    0.968
    24   1 H    0.998 --     3 C    0.955
    25   1 H    0.999 --     5 C    0.943
    26   1 H    0.998 --     6 C    0.954
    27   1 H    0.999 --     7 C    0.955
    28   1 H    0.998 --     8 C    0.955
    29   1 H    0.896 --     9 O    0.874
    30   1 H    0.898 --    10 O    0.880
    31   1 H    0.888 --    11 O    0.843
    32   1 H    0.998 --    14 C    0.965
    33   1 H    0.998 --    15 C    0.970
    34   1 H    0.998 --    16 C    0.971
    35   1 H    0.998 --    17 C    0.967
    36   1 H    0.991 --    19 C    0.949
    37   1 H    0.999 --    19 C    0.970
    38   1 H    0.914 --    20 O    0.900
 ---------------------------------------------------------------------------

Topologies differ in total number of bonds
Writing topology from bond orders to xtbtopo.mol

molecular dipole:
                 x           y           z       tot (Debye)
 q only:        0.569      -0.472      -0.446
   full:        0.974      -0.792      -0.661       3.605
molecular quadrupole (traceless):
                xx          xy          yy          xz          yz          zz
 q only:        6.977       4.969      -7.193       1.958      -1.463       0.216
  q+dip:        6.404      11.166      -7.300      -0.372      -4.239       0.895
   full:        6.345       9.850      -9.002       0.658      -3.589       2.657


           -------------------------------------------------
          | TOTAL ENERGY              -65.313751464067 Eh   |
          | GRADIENT NORM               0.136003797808 Eh/α |
          | HOMO-LUMO GAP               0.067876371520 eV   |
           -------------------------------------------------

------------------------------------------------------------------------
 * finished run on 2025/05/15 at 16:05:06.980     
------------------------------------------------------------------------
 total:
 * wall-time:     0 d,  0 h,  0 min,  0.125 sec
 *  cpu-time:     0 d,  0 h,  0 min,  0.070 sec
 * ratio c/w:     0.562 speedup
 SCF:
 * wall-time:     0 d,  0 h,  0 min,  0.059 sec
 *  cpu-time:     0 d,  0 h,  0 min,  0.059 sec
 * ratio c/w:     0.995 speedup


