----- Optimization -----
      -----------------------------------------------------------      
     |                   =====================                   |     
     |                           x T B                           |     
     |                   =====================                   |     
     |                         S. Grimme                         |     
     |          Mulliken Center for Theoretical Chemistry        |     
     |                    University of Bonn                     |     
      -----------------------------------------------------------      

   * xtb version 6.7.1 (edcfbbe) compiled by 'conda@3ef47c1a292c' on 2024-11-25

   xtb is free software: you can redistribute it and/or modify it under
   the terms of the GNU Lesser General Public License as published by
   the Free Software Foundation, either version 3 of the License, or
   (at your option) any later version.
   
   xtb is distributed in the hope that it will be useful,
   but WITHOUT ANY WARRANTY; without even the implied warranty of
   MERCHANTABILITY or FITNESS FOR A PARTICULAR PURPOSE.  See the
   GNU Lesser General Public License for more details.
   
   Cite this work as:
   * C. Bannwarth, E. Caldeweyher, S. Ehlert, A. Hansen, P. Pracht,
     J. Seibert, S. Spicher, S. Grimme, WIREs Comput. Mol. Sci., 2020, 11,
     e01493. DOI: 10.1002/wcms.1493
   
   for GFN2-xTB:
   * C. Bannwarth, S. Ehlert and S. Grimme., J. Chem. Theory Comput., 2019,
     15, 1652-1671. DOI: 10.1021/acs.jctc.8b01176
   for GFN1-xTB:
   * S. Grimme, C. Bannwarth, P. Shushkov, J. Chem. Theory Comput., 2017,
     13, 1989-2009. DOI: 10.1021/acs.jctc.7b00118
   for GFN0-xTB:
   * P. Pracht, E. Caldeweyher, S. Ehlert, S. Grimme, ChemRxiv, 2019, preprint.
     DOI: 10.26434/chemrxiv.8326202.v1
   for GFN-FF:
   * S. Spicher and S. Grimme, Angew. Chem. Int. Ed., 2020, 59, 15665-15673.
     DOI: 10.1002/anie.202004239
   
   for ALPB and GBSA implicit solvation:
   * S. Ehlert, M. Stahn, S. Spicher, S. Grimme, J. Chem. Theory Comput.,
     2021, 17, 4250-4261. DOI: 10.1021/acs.jctc.1c00471
   
   for ddCOSMO and CPCM-X implicit solvation:
   * M. Stahn, S. Ehlert, S. Grimme, J. Phys. Chem. A,
     2023, XX, XXXX-XXXX. DOI: 10.1021/acs.jpca.3c04382
   
   for DFT-D4:
   * E. Caldeweyher, C. Bannwarth and S. Grimme, J. Chem. Phys., 2017,
     147, 034112. DOI: 10.1063/1.4993215
   * E. Caldeweyher, S. Ehlert, A. Hansen, H. Neugebauer, S. Spicher,
     C. Bannwarth and S. Grimme, J. Chem. Phys., 2019, 150, 154122.
     DOI: 10.1063/1.5090222
   * E. Caldeweyher, J.-M. Mewes, S. Ehlert and S. Grimme, Phys. Chem. Chem. Phys.
     2020, 22, 8499-8512. DOI: 10.1039/D0CP00502A
   
   for sTDA-xTB:
   * S. Grimme and C. Bannwarth, J. Chem. Phys., 2016, 145, 054103.
     DOI: 10.1063/1.4959605
   
   in the mass-spec context:
   * V. Asgeirsson, C. Bauer and S. Grimme, Chem. Sci., 2017, 8, 4879.
     DOI: 10.1039/c7sc00601b
   * J. Koopman and S. Grimme, ACS Omega 2019, 4, 12, 15120-15133.
     DOI: 10.1021/acsomega.9b02011
   
   for metadynamics refer to:
   * S. Grimme, J. Chem. Theory Comput., 2019, 155, 2847-2862
     DOI: 10.1021/acs.jctc.9b00143
   
   for SPH calculations refer to:
   * S. Spicher and S. Grimme, J. Chem. Theory Comput., 2021, 17, 1701-1714
     DOI: 10.1021/acs.jctc.0c01306
   
   for ONIOM refer to:
   * C. Plett, A. Katbashev, S. Ehlert, S. Grimme, M. Bursch,
     Phys. Chem. Chem. Phys., 2023, 25, 17860-17868. DOI: 10.1039/D3CP02178E
   
   for DIPRO refer to:
   * J. Kohn, N. Gildemeister, S. Grimme, D. Fazzi, A. Hansen,
     J. Chem. Phys., 2023, just accepted.
   
   for PTB refer to:
   * S. Grimme, M. Mueller, A. Hansen, J. Chem. Phys., 2023, 158, 124111.
     DOI: 10.1063/5.0137838
   
   with help from (in alphabetical order)
   P. Atkinson, C. Bannwarth, F. Bohle, G. Brandenburg, E. Caldeweyher
   M. Checinski, S. Dohm, S. Ehlert, S. Ehrlich, I. Gerasimov, C. Hölzer
   A. Katbashev, J. Kohn, J. Koopman, C. Lavigne, S. Lehtola, F. März, M. Müller,
   F. Musil, H. Neugebauer, J. Pisarek, C. Plett, P. Pracht, F. Pultar,
   J. Seibert, P. Shushkov, S. Spicher, M. Stahn, M. Steiner, T. Strunk,
   J. Stückrath, T. Rose, and J. Unsleber
   
 * started run on 2025/05/15 at 16:06:51.632     
   ID    Z sym.   atoms
    1    8 O      1, 4, 9-12, 20
    2    6 C      2, 3, 5-8, 13-19
    3    1 H      21-38

           -------------------------------------------------
          |                Calculation Setup                |
           -------------------------------------------------

          program call               : xtb /rds/general/user/hgt20/home/callum/QDESCP/Salicin_rdkit_conf_15/Salicin_rdkit_conf_15.xyz --opt normal --acc 1 --gfn 2 --chrg 0 --uhf 0 -P 1
          hostname                   : login-c
          coordinate file            : /rds/general/user/hgt20/home/callum/QDESCP/Salicin_rdkit_conf_15/Salicin_rdkit_conf_15.xyz
          omp threads                :                     1


           -------------------------------------------------
          |                 G F N 2 - x T B                 |
           -------------------------------------------------

        Reference                      10.1021/acs.jctc.8b01176
      * Hamiltonian:
        H0-scaling (s, p, d)           1.850000    2.230000    2.230000
        zeta-weighting                 0.500000
      * Dispersion:
        s8                             2.700000
        a1                             0.520000
        a2                             5.000000
        s9                             5.000000
      * Repulsion:
        kExp                           1.500000    1.000000
        rExp                           1.000000
      * Coulomb:
        alpha                          2.000000
        third order                    shell-resolved
        anisotropic                    true
        a3                             3.000000
        a5                             4.000000
        cn-shift                       1.200000
        cn-exp                         4.000000
        max-rad                        5.000000


          ...................................................
          :                      SETUP                      :
          :.................................................:
          :  # basis functions                  98          :
          :  # atomic orbitals                  98          :
          :  # shells                           58          :
          :  # electrons                       112          :
          :  max. iterations                   250          :
          :  Hamiltonian                  GFN2-xTB          :
          :  restarted?                      false          :
          :  GBSA solvation                  false          :
          :  PC potential                    false          :
          :  electronic temp.          300.0000000     K    :
          :  accuracy                    1.0000000          :
          :  -> integral cutoff          0.2500000E+02      :
          :  -> integral neglect         0.1000000E-07      :
          :  -> SCF convergence          0.1000000E-05 Eh   :
          :  -> wf. convergence          0.1000000E-03 e    :
          :  Broyden damping             0.4000000          :
          :  net charge                          0          :
          :  unpaired electrons                  0          :
          ...................................................

 iter      E             dE          RMSdq      gap      omega  full diag
   1    -66.0036877 -0.660037E+02  0.456E+00    4.42       0.0  T
   2    -66.0671672 -0.634794E-01  0.251E+00    4.45       1.0  T
   3    -66.0649099  0.225721E-02  0.877E-01    4.23       1.0  T
   4    -66.0702083 -0.529836E-02  0.285E-01    4.32       1.0  T
   5    -66.0718827 -0.167444E-02  0.934E-02    4.37       1.0  T
   6    -66.0719293 -0.465243E-04  0.436E-02    4.38       1.0  T
   7    -66.0719376 -0.831058E-05  0.154E-02    4.38       1.1  T
   8    -66.0719401 -0.256078E-05  0.501E-03    4.38       3.2  T
   9    -66.0719404 -0.277082E-06  0.207E-03    4.38       7.8  T
  10    -66.0719404 -0.343896E-07  0.851E-04    4.38      19.1  T
  11    -66.0719405 -0.669237E-08  0.391E-04    4.38      41.5  T

   *** convergence criteria satisfied after 11 iterations ***

         #    Occupation            Energy/Eh            Energy/eV
      -------------------------------------------------------------
         1        2.0000           -0.7399332             -20.1346
       ...           ...                  ...                  ...
        50        2.0000           -0.4269414             -11.6177
        51        2.0000           -0.4255685             -11.5803
        52        2.0000           -0.4224660             -11.4959
        53        2.0000           -0.4161467             -11.3239
        54        2.0000           -0.4058729             -11.0444
        55        2.0000           -0.3999131             -10.8822
        56        2.0000           -0.3945172             -10.7354 (HOMO)
        57                         -0.2336836              -6.3589 (LUMO)
        58                         -0.2321378              -6.3168
        59                         -0.1135858              -3.0908
        60                         -0.0815542              -2.2192
        61                         -0.0327710              -0.8917
       ...                                ...                  ...
        98                          0.6240814              16.9821
      -------------------------------------------------------------
                  HL-Gap            0.1608336 Eh            4.3765 eV
             Fermi-level           -0.3141004 Eh           -8.5471 eV

 SCC (total)                   0 d,  0 h,  0 min,  0.082 sec
 SCC setup                      ...        0 min,  0.000 sec (  0.395%)
 Dispersion                     ...        0 min,  0.000 sec (  0.434%)
 classical contributions        ...        0 min,  0.000 sec (  0.146%)
 integral evaluation            ...        0 min,  0.044 sec ( 52.776%)
 iterations                     ...        0 min,  0.019 sec ( 23.614%)
 molecular gradient             ...        0 min,  0.019 sec ( 22.460%)
 printout                       ...        0 min,  0.000 sec (  0.167%)

         :::::::::::::::::::::::::::::::::::::::::::::::::::::
         ::                     SUMMARY                     ::
         :::::::::::::::::::::::::::::::::::::::::::::::::::::
         :: total energy             -65.458961635129 Eh    ::
         :: gradient norm              0.081458536654 Eh/a0 ::
         :: HOMO-LUMO gap              4.376504497958 eV    ::
         ::.................................................::
         :: SCC energy               -66.071516250408 Eh    ::
         :: -> isotropic ES            0.158682561888 Eh    ::
         :: -> anisotropic ES         -0.007036020454 Eh    ::
         :: -> anisotropic XC          0.000113884554 Eh    ::
         :: -> dispersion             -0.036782752695 Eh    ::
         :: repulsion energy           0.612554615279 Eh    ::
         :: add. restraining           0.000000000000 Eh    ::
         :: total charge               0.000000000000 e     ::
         :::::::::::::::::::::::::::::::::::::::::::::::::::::

      ----------------------------------------------------------- 
     |                   =====================                   |
     |                        A N C O P T                        |
     |                   =====================                   |
     |               Approximate Normal Coordinate               |
     |                Rational Function Optimizer                |
      ----------------------------------------------------------- 
      ----------------------------------------------------------- 
     |                   =====================                   |
     |                        A N C O P T                        |
     |                   =====================                   |
     |               Approximate Normal Coordinate               |
     |                Rational Function Optimizer                |
      ----------------------------------------------------------- 

          ...................................................
          :                      SETUP                      :
          :.................................................:
          :   optimization level            normal          :
          :   max. optcycles                   200          :
          :   ANC micro-cycles                  20          :
          :   degrees of freedom               108          :
          :.................................................:
          :   RF solver                   davidson          :
          :   write xtbopt.log                true          :
          :   linear?                        false          :
          :   energy convergence         0.5000000E-05 Eh   :
          :   grad. convergence          0.1000000E-02 Eh/α :
          :   maxmium RF displ.          1.0000000          :
          :   Hlow (freq-cutoff)         0.1000000E-01      :
          :   Hmax (freq-cutoff)         5.0000000          :
          :   S6 in model hess.         20.0000000          :
          ...................................................

generating ANC from exact Hessian ...
Using Lindh-Hessian (1995)
 Shifting diagonal of input Hessian by    9.5851630520400865E-003
 Lowest  eigenvalues of input Hessian
    0.000000    0.000000    0.000000    0.000000    0.000000    0.000000
    0.010000    0.010540    0.011318    0.012255    0.013173    0.014457
    0.015314    0.016424    0.018113    0.019065    0.020774    0.022494
 Highest eigenvalues
    1.520079    1.573839    1.697722    1.836974    1.954329    2.016607


........................................................................
.............................. CYCLE    1 ..............................
........................................................................

 iter      E             dE          RMSdq      gap      omega  full diag
   1    -66.0719405 -0.660719E+02  0.127E-04    4.38       0.0  T
   2    -66.0719405 -0.834603E-10  0.763E-05    4.38     212.6  T
   3    -66.0719405 -0.235900E-11  0.436E-05    4.38     371.9  T
     SCC iter.                  ...        0 min,  0.006 sec
     gradient                   ...        0 min,  0.019 sec
 * total energy  :   -65.4589616 Eh     change       -0.3659849E-08 Eh
   gradient norm :     0.0814597 Eh/α   predicted     0.0000000E+00 (-100.00%)
   displ. norm   :     0.2933850 α      lambda       -0.1229918E-01
   maximum displ.:     0.0978348 α      in ANC's #51, #18, #9, ...

........................................................................
.............................. CYCLE    2 ..............................
........................................................................

 iter      E             dE          RMSdq      gap      omega  full diag
   1    -66.1017890 -0.661018E+02  0.182E-01    4.45       0.0  T
   2    -66.1018317 -0.426543E-04  0.109E-01    4.44       1.0  T
   3    -66.1018190  0.126265E-04  0.268E-02    4.44       1.0  T
   4    -66.1018389 -0.199033E-04  0.893E-03    4.44       1.8  T
   5    -66.1018407 -0.173783E-05  0.422E-03    4.44       3.8  T
   6    -66.1018408 -0.147152E-06  0.193E-03    4.44       8.4  T
   7    -66.1018408 -0.165124E-07  0.711E-04    4.44      22.8  T
   8    -66.1018408 -0.580221E-08  0.246E-04    4.44      65.9  T
     SCC iter.                  ...        0 min,  0.013 sec
     gradient                   ...        0 min,  0.058 sec
 * total energy  :   -65.4676089 Eh     change       -0.8647214E-02 Eh
   gradient norm :     0.0424172 Eh/α   predicted    -0.6680358E-02 ( -22.75%)
   displ. norm   :     0.2801593 α      lambda       -0.4689996E-02
   maximum displ.:     0.1047443 α      in ANC's #9, #18, #10, ...

........................................................................
.............................. CYCLE    3 ..............................
........................................................................

 iter      E             dE          RMSdq      gap      omega  full diag
   1    -66.1176085 -0.661176E+02  0.139E-01    4.46       0.0  T
   2    -66.1176379 -0.293956E-04  0.827E-02    4.46       1.0  T
   3    -66.1176369  0.100569E-05  0.187E-02    4.46       1.0  T
   4    -66.1176425 -0.562766E-05  0.599E-03    4.46       2.7  T
   5    -66.1176429 -0.339042E-06  0.340E-03    4.46       4.8  T
   6    -66.1176430 -0.160457E-06  0.149E-03    4.46      10.9  T
   7    -66.1176430 -0.797753E-08  0.555E-04    4.46      29.2  T
   8    -66.1176430 -0.348898E-08  0.172E-04    4.46      94.2  T
     SCC iter.                  ...        0 min,  0.013 sec
     gradient                   ...        0 min,  0.019 sec
 * total energy  :   -65.4703687 Eh     change       -0.2759833E-02 Eh
   gradient norm :     0.0113834 Eh/α   predicted    -0.2530342E-02 (  -8.32%)
   displ. norm   :     0.1671356 α      lambda       -0.6232286E-03
   maximum displ.:     0.0764179 α      in ANC's #9, #8, #5, ...

........................................................................
.............................. CYCLE    4 ..............................
........................................................................

 iter      E             dE          RMSdq      gap      omega  full diag
   1    -66.1176328 -0.661176E+02  0.706E-02    4.45       0.0  T
   2    -66.1176357 -0.293464E-05  0.423E-02    4.46       1.0  T
   3    -66.1176341  0.158115E-05  0.761E-03    4.46       2.1  T
   4    -66.1176362 -0.210585E-05  0.243E-03    4.46       6.7  T
   5    -66.1176364 -0.130584E-06  0.101E-03    4.46      16.1  T
   6    -66.1176364 -0.826378E-08  0.452E-04    4.46      35.9  T
   7    -66.1176364 -0.451706E-09  0.161E-04    4.46     100.9  T
     SCC iter.                  ...        0 min,  0.055 sec
     gradient                   ...        0 min,  0.019 sec
 * total energy  :   -65.4708079 Eh     change       -0.4391969E-03 Eh
   gradient norm :     0.0052175 Eh/α   predicted    -0.3203234E-03 ( -27.07%)
   displ. norm   :     0.1827621 α      lambda       -0.3298221E-03
   maximum displ.:     0.0740757 α      in ANC's #5, #8, #9, ...

........................................................................
.............................. CYCLE    5 ..............................
........................................................................

 iter      E             dE          RMSdq      gap      omega  full diag
   1    -66.1163077 -0.661163E+02  0.803E-02    4.46       0.0  T
   2    -66.1163098 -0.206642E-05  0.480E-02    4.46       1.0  T
   3    -66.1163066  0.315490E-05  0.969E-03    4.46       1.7  T
   4    -66.1163105 -0.387960E-05  0.196E-03    4.46       8.3  T
   5    -66.1163105 -0.454862E-07  0.965E-04    4.46      16.8  T
   6    -66.1163105 -0.497836E-08  0.418E-04    4.46      38.8  T
     SCC iter.                  ...        0 min,  0.010 sec
     gradient                   ...        0 min,  0.064 sec
 * total energy  :   -65.4710196 Eh     change       -0.2117189E-03 Eh
   gradient norm :     0.0042227 Eh/α   predicted    -0.1704205E-03 ( -19.51%)
   displ. norm   :     0.1273597 α      lambda       -0.1096764E-03
   maximum displ.:     0.0621903 α      in ANC's #3, #5, #2, ...

........................................................................
.............................. CYCLE    6 ..............................
........................................................................

 iter      E             dE          RMSdq      gap      omega  full diag
   1    -66.1162166 -0.661162E+02  0.553E-02    4.46       0.0  T
   2    -66.1162171 -0.510267E-06  0.328E-02    4.46       1.0  T
   3    -66.1162162  0.888706E-06  0.539E-03    4.46       3.0  T
   4    -66.1162173 -0.111560E-05  0.104E-03    4.46      15.6  T
   5    -66.1162173 -0.755703E-08  0.577E-04    4.46      28.1  T
   6    -66.1162173 -0.165221E-08  0.194E-04    4.46      83.5  T
     SCC iter.                  ...        0 min,  0.010 sec
     gradient                   ...        0 min,  0.019 sec
 * total energy  :   -65.4711021 Eh     change       -0.8249723E-04 Eh
   gradient norm :     0.0037393 Eh/α   predicted    -0.5572814E-04 ( -32.45%)
   displ. norm   :     0.1702343 α      lambda       -0.1134850E-03
   maximum displ.:     0.0991022 α      in ANC's #3, #2, #5, ...

........................................................................
.............................. CYCLE    7 ..............................
........................................................................

 iter      E             dE          RMSdq      gap      omega  full diag
   1    -66.1167495 -0.661167E+02  0.695E-02    4.46       0.0  T
   2    -66.1167500 -0.526862E-06  0.411E-02    4.46       1.0  T
   3    -66.1167492  0.810642E-06  0.536E-03    4.46       3.0  T
   4    -66.1167503 -0.106126E-05  0.110E-03    4.47      14.8  T
   5    -66.1167503 -0.574030E-08  0.618E-04    4.47      26.2  T
   6    -66.1167503 -0.222821E-08  0.166E-04    4.47      97.7  T
     SCC iter.                  ...        0 min,  0.055 sec
     gradient                   ...        0 min,  0.019 sec
 * total energy  :   -65.4711854 Eh     change       -0.8327351E-04 Eh
   gradient norm :     0.0026894 Eh/α   predicted    -0.5842544E-04 ( -29.84%)
   displ. norm   :     0.1560199 α      lambda       -0.8246127E-04
   maximum displ.:     0.0998465 α      in ANC's #3, #2, #10, ...

........................................................................
.............................. CYCLE    8 ..............................
........................................................................

 iter      E             dE          RMSdq      gap      omega  full diag
   1    -66.1175171 -0.661175E+02  0.573E-02    4.47       0.0  T
   2    -66.1175174 -0.286854E-06  0.338E-02    4.47       1.0  T
   3    -66.1175170  0.330066E-06  0.361E-03    4.47       4.5  T
   4    -66.1175175 -0.468951E-06  0.853E-04    4.47      19.0  T
   5    -66.1175175 -0.211668E-08  0.463E-04    4.47      35.0  T
     SCC iter.                  ...        0 min,  0.008 sec
     gradient                   ...        0 min,  0.019 sec
 * total energy  :   -65.4712503 Eh     change       -0.6491459E-04 Eh
   gradient norm :     0.0023683 Eh/α   predicted    -0.4223463E-04 ( -34.94%)
   displ. norm   :     0.1667678 α      lambda       -0.7715802E-04
   maximum displ.:     0.1120704 α      in ANC's #3, #2, #10, ...

........................................................................
.............................. CYCLE    9 ..............................
........................................................................

 iter      E             dE          RMSdq      gap      omega  full diag
   1    -66.1181125 -0.661181E+02  0.545E-02    4.47       0.0  T
   2    -66.1181128 -0.276906E-06  0.322E-02    4.47       1.0  T
   3    -66.1181125  0.237607E-06  0.322E-03    4.47       5.0  T
   4    -66.1181129 -0.371024E-06  0.892E-04    4.47      18.2  T
   5    -66.1181129 -0.179128E-08  0.469E-04    4.47      34.6  T
     SCC iter.                  ...        0 min,  0.008 sec
     gradient                   ...        0 min,  0.019 sec
 * total energy  :   -65.4713119 Eh     change       -0.6159247E-04 Eh
   gradient norm :     0.0025163 Eh/α   predicted    -0.3965245E-04 ( -35.62%)
   displ. norm   :     0.1690737 α      lambda       -0.6554055E-04
   maximum displ.:     0.1173322 α      in ANC's #3, #2, #10, ...

........................................................................
.............................. CYCLE   10 ..............................
........................................................................

 iter      E             dE          RMSdq      gap      omega  full diag
   1    -66.1182014 -0.661182E+02  0.505E-02    4.46       0.0  T
   2    -66.1182017 -0.276949E-06  0.299E-02    4.46       1.0  T
   3    -66.1182014  0.262650E-06  0.325E-03    4.46       5.0  T
   4    -66.1182018 -0.398231E-06  0.929E-04    4.46      17.5  T
   5    -66.1182019 -0.247373E-08  0.475E-04    4.46      34.2  T
     SCC iter.                  ...        0 min,  0.008 sec
     gradient                   ...        0 min,  0.064 sec
 * total energy  :   -65.4713643 Eh     change       -0.5242670E-04 Eh
   gradient norm :     0.0022671 Eh/α   predicted    -0.3370774E-04 ( -35.71%)
   displ. norm   :     0.1525933 α      lambda       -0.4957763E-04
   maximum displ.:     0.1081434 α      in ANC's #3, #2, #10, ...

........................................................................
.............................. CYCLE   11 ..............................
........................................................................

 iter      E             dE          RMSdq      gap      omega  full diag
   1    -66.1180181 -0.661180E+02  0.425E-02    4.46       0.0  T
   2    -66.1180184 -0.258676E-06  0.252E-02    4.46       1.0  T
   3    -66.1180181  0.299017E-06  0.324E-03    4.46       5.0  T
   4    -66.1180185 -0.418015E-06  0.874E-04    4.46      18.6  T
   5    -66.1180185 -0.359597E-08  0.448E-04    4.46      36.2  T
     SCC iter.                  ...        0 min,  0.008 sec
     gradient                   ...        0 min,  0.019 sec
 * total energy  :   -65.4714043 Eh     change       -0.3997947E-04 Eh
   gradient norm :     0.0016395 Eh/α   predicted    -0.2537381E-04 ( -36.53%)
   displ. norm   :     0.2084972 α      lambda       -0.3819660E-04
   maximum displ.:     0.1476196 α      in ANC's #3, #2, #4, ...

........................................................................
.............................. CYCLE   12 ..............................
........................................................................

 iter      E             dE          RMSdq      gap      omega  full diag
   1    -66.1176199 -0.661176E+02  0.550E-02    4.45       0.0  T
   2    -66.1176204 -0.549293E-06  0.327E-02    4.45       1.0  T
   3    -66.1176197  0.710117E-06  0.478E-03    4.45       3.4  T
   4    -66.1176206 -0.947910E-06  0.123E-03    4.45      13.2  T
   5    -66.1176207 -0.990606E-08  0.629E-04    4.45      25.8  T
   6    -66.1176207 -0.225185E-08  0.217E-04    4.45      74.6  T
     SCC iter.                  ...        0 min,  0.055 sec
     gradient                   ...        0 min,  0.019 sec
 * total energy  :   -65.4714457 Eh     change       -0.4140100E-04 Eh
   gradient norm :     0.0015266 Eh/α   predicted    -0.1946855E-04 ( -52.98%)
   displ. norm   :     0.1483270 α      lambda       -0.2241972E-04
   maximum displ.:     0.1030336 α      in ANC's #3, #2, #4, ...

........................................................................
.............................. CYCLE   13 ..............................
........................................................................

 iter      E             dE          RMSdq      gap      omega  full diag
   1    -66.1175852 -0.661176E+02  0.376E-02    4.45       0.0  T
   2    -66.1175855 -0.267620E-06  0.224E-02    4.45       1.0  T
   3    -66.1175851  0.404859E-06  0.346E-03    4.45       4.7  T
   4    -66.1175856 -0.524813E-06  0.843E-04    4.45      19.2  T
   5    -66.1175856 -0.501421E-08  0.424E-04    4.45      38.3  T
     SCC iter.                  ...        0 min,  0.008 sec
     gradient                   ...        0 min,  0.019 sec
 * total energy  :   -65.4714733 Eh     change       -0.2758682E-04 Eh
   gradient norm :     0.0013701 Eh/α   predicted    -0.1132101E-04 ( -58.96%)
   displ. norm   :     0.1880674 α      lambda       -0.2538789E-04
   maximum displ.:     0.1262436 α      in ANC's #3, #2, #4, ...

........................................................................
.............................. CYCLE   14 ..............................
........................................................................

 iter      E             dE          RMSdq      gap      omega  full diag
   1    -66.1178429 -0.661178E+02  0.451E-02    4.45       0.0  T
   2    -66.1178433 -0.391533E-06  0.269E-02    4.45       1.0  T
   3    -66.1178427  0.558590E-06  0.410E-03    4.45       4.0  T
   4    -66.1178435 -0.733345E-06  0.103E-03    4.45      15.8  T
   5    -66.1178435 -0.748217E-08  0.505E-04    4.45      32.1  T
   6    -66.1178435 -0.137834E-08  0.184E-04    4.45      88.0  T
     SCC iter.                  ...        0 min,  0.010 sec
     gradient                   ...        0 min,  0.019 sec
 * total energy  :   -65.4715018 Eh     change       -0.2852344E-04 Eh
   gradient norm :     0.0010930 Eh/α   predicted    -0.1289653E-04 ( -54.79%)
   displ. norm   :     0.1656772 α      lambda       -0.1502568E-04
   maximum displ.:     0.1120216 α      in ANC's #3, #2, #4, ...

........................................................................
.............................. CYCLE   15 ..............................
........................................................................

 iter      E             dE          RMSdq      gap      omega  full diag
   1    -66.1178069 -0.661178E+02  0.405E-02    4.44       0.0  T
   2    -66.1178072 -0.341277E-06  0.242E-02    4.45       1.0  T
   3    -66.1178067  0.510955E-06  0.387E-03    4.45       4.2  T
   4    -66.1178073 -0.657103E-06  0.922E-04    4.45      17.6  T
   5    -66.1178074 -0.723323E-08  0.464E-04    4.45      34.9  T
     SCC iter.                  ...        0 min,  0.008 sec
     gradient                   ...        0 min,  0.064 sec
 * total energy  :   -65.4715177 Eh     change       -0.1585429E-04 Eh
   gradient norm :     0.0009549 Eh/α   predicted    -0.7605590E-05 ( -52.03%)
   displ. norm   :     0.1225357 α      lambda       -0.8505634E-05
   maximum displ.:     0.0825803 α      in ANC's #3, #4, #2, ...

........................................................................
.............................. CYCLE   16 ..............................
........................................................................

 iter      E             dE          RMSdq      gap      omega  full diag
   1    -66.1182898 -0.661183E+02  0.293E-02    4.45       0.0  T
   2    -66.1182900 -0.228611E-06  0.175E-02    4.45       1.0  T
   3    -66.1182898  0.248799E-06  0.302E-03    4.45       5.4  T
   4    -66.1182901 -0.332633E-06  0.729E-04    4.45      22.3  T
   5    -66.1182901 -0.476257E-08  0.385E-04    4.45      42.2  T
     SCC iter.                  ...        0 min,  0.008 sec
     gradient                   ...        0 min,  0.019 sec
 * total energy  :   -65.4715257 Eh     change       -0.8029970E-05 Eh
   gradient norm :     0.0008547 Eh/α   predicted    -0.4284171E-05 ( -46.65%)
   displ. norm   :     0.0871749 α      lambda       -0.5757776E-05
   maximum displ.:     0.0605847 α      in ANC's #3, #4, #1, ...

........................................................................
.............................. CYCLE   17 ..............................
........................................................................

 iter      E             dE          RMSdq      gap      omega  full diag
   1    -66.1182129 -0.661182E+02  0.241E-02    4.44       0.0  T
   2    -66.1182131 -0.171886E-06  0.144E-02    4.44       1.1  T
   3    -66.1182129  0.265018E-06  0.284E-03    4.44       5.7  T
   4    -66.1182132 -0.329252E-06  0.567E-04    4.44      28.6  T
   5    -66.1182132 -0.376751E-08  0.297E-04    4.44      54.7  T
     SCC iter.                  ...        0 min,  0.053 sec
     gradient                   ...        0 min,  0.019 sec
 * total energy  :   -65.4715302 Eh     change       -0.4482080E-05 Eh
   gradient norm :     0.0008082 Eh/α   predicted    -0.2889032E-05 ( -35.54%)
   displ. norm   :     0.0254653 α      lambda       -0.2653858E-05
   maximum displ.:     0.0132004 α      in ANC's #3, #6, #7, ...

   *** GEOMETRY OPTIMIZATION CONVERGED AFTER 17 ITERATIONS ***

------------------------------------------------------------------------
 total energy gain   :        -0.0125685 Eh       -7.8869 kcal/mol
 total RMSD          :         0.3337963 a0        0.1766 Å
 total power (kW/mol):        -1.9410979 (step)  -30.3911 (real)
------------------------------------------------------------------------

 ANCopt (total)                0 d,  0 h,  0 min,  1.086 sec
 optimizer setup                ...        0 min,  0.000 sec (  0.008%)
 model hessian                  ...        0 min,  0.016 sec (  1.429%)
 ANC generation                 ...        0 min,  0.001 sec (  0.117%)
 coordinate transformation      ...        0 min,  0.000 sec (  0.009%)
 single point calculation       ...        0 min,  1.064 sec ( 97.948%)
 optimization log               ...        0 min,  0.004 sec (  0.333%)
 hessian update                 ...        0 min,  0.000 sec (  0.017%)
 rational function              ...        0 min,  0.001 sec (  0.087%)

================
 final structure:
================
38
 xtb: 6.7.1 (edcfbbe)
O           -3.53857894743188        2.23032154157423        1.18518740701660
C           -2.28387727983883        1.62004477990943        1.40916549006494
C           -1.93704817959231        0.73070430548613        0.21085794326818
O           -0.63631962473754        0.24952703219856        0.45934415595458
C           -0.08488881429022       -0.59502157049780       -0.54098196968991
C           -0.98364014579323       -1.80354342799492       -0.82595208127923
C           -2.42362050177577       -1.34799760805492       -1.07935769832233
C           -2.92141138820943       -0.43551416797967        0.04693013664979
O           -4.21512997361114       -0.01208168174942       -0.30218660721863
O           -3.22276279993788       -2.49829851969420       -1.20221033279380
O           -0.46672454826577       -2.45387886971385       -1.95458424967042
O            1.12041862924786       -1.03872893551626       -0.03437420223198
C            2.24751262810361       -0.27297985845649       -0.31332110947452
C            2.65995386457123       -0.07125736977677       -1.62277475690675
C            3.81473108062907        0.64617753012017       -1.87937498692823
C            4.55861612205116        1.15808436507042       -0.83023651345277
C            4.14857404902062        0.94654966625191        0.47460571487148
C            2.99437160371553        0.22922714943372        0.75471021940506
C            2.51943826384021        0.01359057210683        2.17208104616676
O            1.38669726139293        0.79188360048467        2.48668228897407
H           -3.71446678332943        2.85092069110308        1.90002099567475
H           -2.30529663786651        0.99924795520468        2.31414778106141
H           -1.49010880028595        2.36722905092678        1.52001654424282
H           -1.95587050459367        1.33705967457412       -0.70962018915382
H            0.04054054671983       -0.02016882481293       -1.47631661393552
H           -0.96228677008504       -2.46490989744085        0.05271874777104
H           -2.45106428136758       -0.77369501808400       -2.02153080513711
H           -2.94580797510562       -1.01319351608928        0.98673498021844
H           -4.40157453996154        0.80831291544612        0.17765383191852
H           -4.14231043742688       -2.20636238919789       -1.17221662981195
H           -1.08914720576071       -3.15609610447760       -2.18431721490748
H            2.08156836177301       -0.49693517041127       -2.42960241967899
H            4.13467701972167        0.79825621344920       -2.89936812005684
H            5.45831046121380        1.72020095246173       -1.02837399747711
H            4.72730795374375        1.34735895644761        1.29347192321560
H            2.30173823688645       -1.05459369112187        2.31692627884790
H            3.29595366466719        0.31646681859826        2.87887596493154
H            0.68142639197061        0.55419285022219        1.86646904787494

 Bond Distances (Angstroems)
 ---------------------------
O1-C2=1.4131         O1-H21=0.9628        C2-O1=1.4131         C2-C3=1.5320         C2-H22=1.0977        C2-H23=1.0957        
C3-C2=1.5320         C3-O4=1.4090         C3-C8=1.5349         C3-H24=1.1024        O4-C3=1.4090         O4-C5=1.4206         
C5-O4=1.4206         C5-C6=1.5328         C5-O12=1.3807        C5-H25=1.1050        C6-C5=1.5328         C6-C7=1.5314         
C6-O11=1.4014        C6-H26=1.1000        C7-C6=1.5314         C7-C8=1.5326         C7-O10=1.4060        C7-H27=1.1038        
C8-C3=1.5349         C8-C7=1.5326         C8-O9=1.4053         C8-H28=1.1034        O9-C8=1.4053         O9-H29=0.9685        
O10-C7=1.4060        O10-H30=0.9652       O11-C6=1.4014        O11-H31=0.9661       O12-C5=1.3807        O12-C13=1.3909       
C13-O12=1.3909       C13-C14=1.3876       C13-C18=1.3967       C14-C13=1.3876       C14-C15=1.3835       C14-H32=1.0801       
C15-C14=1.3835       C15-C16=1.3842       C15-H33=1.0798       C16-C15=1.3842       C16-C17=1.3840       C16-H34=1.0792       
C17-C16=1.3840       C17-C18=1.3875       C17-H35=1.0799       C18-C13=1.3967       C18-C17=1.3875       C18-C19=1.5103       
C19-C18=1.5103       C19-O20=1.4099       C19-H36=1.0997       C19-H37=1.0928       O20-C19=1.4099       O20-H38=0.9688       
H21-O1=0.9628        H22-C2=1.0977        H23-C2=1.0957        H24-C3=1.1024        H25-C5=1.1050        H26-C6=1.1000        
H27-C7=1.1038        H28-C8=1.1034        H29-O9=0.9685        H30-O10=0.9652       H31-O11=0.9661       H32-C14=1.0801       
H33-C15=1.0798       H34-C16=1.0792       H35-C17=1.0799       H36-C19=1.0997       H37-C19=1.0928       H38-O20=0.9688       
 C  H  Rav=1.0938 sigma=0.0099  Rmin=1.0792  Rmax=1.1050    13
 C  C  Rav=1.4581 sigma=0.0712  Rmin=1.3835  Rmax=1.5349    12
 O  H  Rav=0.9663 sigma=0.0022  Rmin=0.9628  Rmax=0.9688     5
 O  C  Rav=1.4041 sigma=0.0113  Rmin=1.3807  Rmax=1.4206     9

 selected bond angles (degree)
 --------------------
H21-O1-C2=108.84               C3-C2-O1=109.13                H22-C2-O1=110.95               H22-C2-C3=108.72               
H23-C2-O1=111.39               H23-C2-C3=108.12               H23-C2-H22=108.44              O4-C3-C2=105.62                
C8-C3-C2=112.30                C8-C3-O4=110.57                H24-C3-C2=109.26               H24-C3-O4=110.54               
H24-C3-C8=108.53               C5-O4-C3=115.93                C6-C5-O4=111.84                O12-C5-O4=105.76               
O12-C5-C6=109.07               H25-C5-O4=109.32               H25-C5-C6=108.62               H25-C5-O12=112.25              
C7-C6-C5=110.34                O11-C6-C5=107.42               O11-C6-C7=110.59               H26-C6-C5=108.31               
H26-C6-C7=109.23               H26-C6-O11=110.93              C8-C7-C6=111.16                O10-C7-C6=107.79               
O10-C7-C8=111.51               H27-C7-C6=108.63               H27-C7-C8=108.03               H27-C7-O10=109.69              
C7-C8-C3=108.82                O9-C8-C3=112.83                O9-C8-C7=107.21                H28-C8-C3=108.72               
H28-C8-C7=108.75               H28-C8-O9=110.43               H29-O9-C8=108.02               H30-O10-C7=106.94              

 selected dihedral angles (degree)
 ---------------------------------
C3-C2-O1-H21=185.27           H22-C2-O1-H21= 65.50          H23-C2-O1-H21=304.57          O4-C3-C2-O1=175.35            
O4-C3-C2-H22=296.50           O4-C3-C2-H23= 54.04           C8-C3-C2-O1=295.95            C8-C3-C2-H22= 57.10           
C8-C3-C2-H23=174.64           H24-C3-C2-O1= 56.43           H24-C3-C2-H22=177.58          H24-C3-C2-H23=295.12          
C5-O4-C3-C2=180.88            C5-O4-C3-C8= 59.16            C5-O4-C3-H24=298.96           C6-C5-O4-C3=304.06            
O12-C5-O4-C3=185.45           H25-C5-O4-C3= 64.39           C7-C6-C5-O4= 50.41            C7-C6-C5-O12=167.03           
C7-C6-C5-H25=289.67           O11-C6-C5-O4=171.03           O11-C6-C5-O12=287.65          O11-C6-C5-H25= 50.29          
H26-C6-C5-O4=290.90           H26-C6-C5-O12= 47.52          H26-C6-C5-H25=170.16          C8-C7-C6-C5=308.22            
C8-C7-C6-O11=189.52           C8-C7-C6-H26= 67.18           O10-C7-C6-C5=185.73           O10-C7-C6-O11= 67.03          
O10-C7-C6-H26=304.69          H27-C7-C6-C5= 66.94           H27-C7-C6-O11=308.24          H27-C7-C6-H26=185.90          
C7-C8-C3-C2=185.63            C7-C8-C3-O4=303.33            C7-C8-C3-H24= 64.73           O9-C8-C3-C2= 66.78            
O9-C8-C3-O4=184.48            O9-C8-C3-H24=305.88           H28-C8-C3-C2=303.93           H28-C8-C3-O4= 61.62           
H28-C8-C3-H24=183.03          C3-C8-C7-C6= 54.62            C3-C8-C7-O10=174.93           C3-C8-C7-H27=295.54           
O9-C8-C7-C6=176.94            O9-C8-C7-O10=297.25           O9-C8-C7-H27= 57.86           H28-C8-C7-C6=296.34           
H28-C8-C7-O10= 56.65          H28-C8-C7-H27=177.26          H29-O9-C8-C3=322.26           H29-O9-C8-C7=202.47           
H29-O9-C8-H28= 84.16          H30-O10-C7-C6=168.19          H30-O10-C7-C8= 45.92          H30-O10-C7-H27=286.29         
           -------------------------------------------------
          |                Final Singlepoint                |
           -------------------------------------------------

          ...................................................
          :                      SETUP                      :
          :.................................................:
          :  # basis functions                  98          :
          :  # atomic orbitals                  98          :
          :  # shells                           58          :
          :  # electrons                       112          :
          :  max. iterations                   250          :
          :  Hamiltonian                  GFN2-xTB          :
          :  restarted?                      false          :
          :  GBSA solvation                  false          :
          :  PC potential                    false          :
          :  electronic temp.          300.0000000     K    :
          :  accuracy                    1.0000000          :
          :  -> integral cutoff          0.2500000E+02      :
          :  -> integral neglect         0.1000000E-07      :
          :  -> SCF convergence          0.1000000E-05 Eh   :
          :  -> wf. convergence          0.1000000E-03 e    :
          :  Broyden damping             0.4000000          :
          :  net charge                          0          :
          :  unpaired electrons                  0          :
          ...................................................

 iter      E             dE          RMSdq      gap      omega  full diag
   1    -66.1182132 -0.661182E+02  0.119E-04    4.44       0.0  T
   2    -66.1182132 -0.842988E-10  0.729E-05    4.44     222.4  T
   3    -66.1182132 -0.190425E-10  0.457E-05    4.44     354.8  T

   *** convergence criteria satisfied after 3 iterations ***

         #    Occupation            Energy/Eh            Energy/eV
      -------------------------------------------------------------
         1        2.0000           -0.7382523             -20.0889
       ...           ...                  ...                  ...
        50        2.0000           -0.4240382             -11.5387
        51        2.0000           -0.4222963             -11.4913
        52        2.0000           -0.4202983             -11.4369
        53        2.0000           -0.4170617             -11.3488
        54        2.0000           -0.4068574             -11.0712
        55        2.0000           -0.3988520             -10.8533
        56        2.0000           -0.3935169             -10.7081 (HOMO)
        57                         -0.2301771              -6.2634 (LUMO)
        58                         -0.2278214              -6.1993
        59                         -0.1032468              -2.8095
        60                         -0.0517889              -1.4092
        61                         -0.0076402              -0.2079
       ...                                ...                  ...
        98                          0.6525263              17.7561
      -------------------------------------------------------------
                  HL-Gap            0.1633398 Eh            4.4447 eV
             Fermi-level           -0.3118470 Eh           -8.4858 eV

 SCC (total)                   0 d,  0 h,  0 min,  0.030 sec
 SCC setup                      ...        0 min,  0.000 sec (  0.803%)
 Dispersion                     ...        0 min,  0.000 sec (  0.799%)
 classical contributions        ...        0 min,  0.000 sec (  0.373%)
 integral evaluation            ...        0 min,  0.006 sec ( 20.530%)
 iterations                     ...        0 min,  0.005 sec ( 16.432%)
 molecular gradient             ...        0 min,  0.018 sec ( 60.622%)
 printout                       ...        0 min,  0.000 sec (  0.421%)

         :::::::::::::::::::::::::::::::::::::::::::::::::::::
         ::                     SUMMARY                     ::
         :::::::::::::::::::::::::::::::::::::::::::::::::::::
         :: total energy             -65.471530162985 Eh    ::
         :: gradient norm              0.000808844347 Eh/a0 ::
         :: HOMO-LUMO gap              4.444702484351 eV    ::
         ::.................................................::
         :: SCC energy               -66.117832138445 Eh    ::
         :: -> isotropic ES            0.154549115983 Eh    ::
         :: -> anisotropic ES         -0.008559048808 Eh    ::
         :: -> anisotropic XC         -0.002481166901 Eh    ::
         :: -> dispersion             -0.036892309597 Eh    ::
         :: repulsion energy           0.646301975461 Eh    ::
         :: add. restraining           0.000000000000 Eh    ::
         :: total charge              -0.000000000000 e     ::
         :::::::::::::::::::::::::::::::::::::::::::::::::::::

           -------------------------------------------------
          |                Property Printout                |
           -------------------------------------------------

    * Orbital Energies and Occupations

         #    Occupation            Energy/Eh            Energy/eV
      -------------------------------------------------------------
         1        2.0000           -0.7382523             -20.0889
       ...           ...                  ...                  ...
        44        2.0000           -0.4621961             -12.5770
        45        2.0000           -0.4548980             -12.3784
        46        2.0000           -0.4494782             -12.2309
        47        2.0000           -0.4472949             -12.1715
        48        2.0000           -0.4436835             -12.0732
        49        2.0000           -0.4407045             -11.9922
        50        2.0000           -0.4240382             -11.5387
        51        2.0000           -0.4222963             -11.4913
        52        2.0000           -0.4202983             -11.4369
        53        2.0000           -0.4170617             -11.3488
        54        2.0000           -0.4068574             -11.0712
        55        2.0000           -0.3988520             -10.8533
        56        2.0000           -0.3935169             -10.7081 (HOMO)
        57                         -0.2301771              -6.2634 (LUMO)
        58                         -0.2278214              -6.1993
        59                         -0.1032468              -2.8095
        60                         -0.0517889              -1.4092
        61                         -0.0076402              -0.2079
        62                          0.0051925               0.1413
        63                          0.0274369               0.7466
        64                          0.0426724               1.1612
        65                          0.0441701               1.2019
        66                          0.0721818               1.9642
        67                          0.0804318               2.1887
       ...                                ...                  ...
        98                          0.6525263              17.7561
      -------------------------------------------------------------
                  HL-Gap            0.1633398 Eh            4.4447 eV
             Fermi-level           -0.3118470 Eh           -8.4858 eV

     #   Z          covCN         q      C6AA      α(0)
     1   8 O        1.655    -0.444    21.724     6.292
     2   6 C        3.675     0.074    19.571     6.339
     3   6 C        3.743     0.099    19.022     6.222
     4   8 O        1.701    -0.355    19.982     6.035
     5   6 C        3.645     0.253    16.999     5.926
     6   6 C        3.727     0.095    19.101     6.240
     7   6 C        3.731     0.098    19.050     6.230
     8   6 C        3.727     0.091    19.164     6.250
     9   8 O        1.656    -0.455    21.956     6.325
    10   8 O        1.656    -0.445    21.735     6.294
    11   8 O        1.657    -0.436    21.557     6.268
    12   8 O        1.706    -0.284    18.718     5.841
    13   6 C        2.876     0.136    25.022     8.200
    14   6 C        2.917    -0.053    29.322     8.880
    15   6 C        2.921    -0.031    28.776     8.797
    16   6 C        2.918    -0.035    28.881     8.813
    17   6 C        2.925    -0.035    28.865     8.811
    18   6 C        2.964    -0.014    28.356     8.734
    19   6 C        3.679     0.082    19.420     6.312
    20   8 O        1.655    -0.453    21.903     6.318
    21   1 H        0.805     0.307     0.702     1.316
    22   1 H        0.924     0.045     2.381     2.413
    23   1 H        0.924     0.052     2.293     2.368
    24   1 H        0.923     0.039     2.466     2.456
    25   1 H        0.922     0.020     2.733     2.585
    26   1 H        0.923     0.048     2.342     2.393
    27   1 H        0.923     0.031     2.573     2.509
    28   1 H        0.923     0.033     2.548     2.496
    29   1 H        0.804     0.326     0.648     1.265
    30   1 H        0.805     0.318     0.670     1.286
    31   1 H        0.805     0.321     0.661     1.277
    32   1 H        0.926     0.051     2.303     2.373
    33   1 H        0.926     0.043     2.403     2.424
    34   1 H        0.926     0.043     2.412     2.428
    35   1 H        0.926     0.047     2.355     2.400
    36   1 H        0.923     0.033     2.545     2.495
    37   1 H        0.924     0.048     2.345     2.395
    38   1 H        0.804     0.307     0.700     1.314

 Mol. C6AA /au·bohr⁶  :      14031.465734
 Mol. C8AA /au·bohr⁸  :     316428.162997
 Mol. α(0) /au        :        177.319553


Wiberg/Mayer (AO) data.
largest (>0.10) Wiberg bond orders for each atom

 ---------------------------------------------------------------------------
     #   Z sym  total        # sym  WBO       # sym  WBO       # sym  WBO
 ---------------------------------------------------------------------------
     1   8 O    1.964 --     2 C    0.995    21 H    0.890
     2   6 C    3.952 --     1 O    0.995     3 C    0.984    23 H    0.969
                            22 H    0.968
     3   6 C    3.944 --     2 C    0.984     8 C    0.966     4 O    0.965
                            24 H    0.956
     4   8 O    2.072 --     3 C    0.965     5 C    0.937
     5   6 C    3.926 --    12 O    1.003     6 C    0.960    25 H    0.945
                             4 O    0.937
     6   6 C    3.964 --    11 O    1.006     7 C    0.970     5 C    0.960
                            26 H    0.955
     7   6 C    3.963 --    10 O    0.999     6 C    0.970     8 C    0.969
                            27 H    0.956
     8   6 C    3.964 --     9 O    1.004     7 C    0.969     3 C    0.966
                            28 H    0.955
     9   8 O    1.949 --     8 C    1.004    29 H    0.856
    10   8 O    1.956 --     7 C    0.999    30 H    0.880
    11   8 O    1.958 --     6 C    1.006    31 H    0.880
    12   8 O    2.170 --     5 C    1.003    13 C    0.979
    13   6 C    3.922 --    14 C    1.401    18 C    1.366    12 O    0.979
                            16 C    0.103
    14   6 C    3.990 --    15 C    1.440    13 C    1.401    32 H    0.965
                            17 C    0.108
    15   6 C    3.991 --    14 C    1.440    16 C    1.438    33 H    0.970
                            18 C    0.108
    16   6 C    3.991 --    17 C    1.439    15 C    1.438    34 H    0.970
                            13 C    0.103
    17   6 C    3.990 --    16 C    1.439    18 C    1.422    35 H    0.967
                            14 C    0.108
    18   6 C    3.986 --    17 C    1.422    13 C    1.366    19 C    0.994
                            15 C    0.108
    19   6 C    3.962 --    20 O    0.999    18 C    0.994    37 H    0.972
                            36 H    0.962
    20   8 O    1.953 --    19 C    0.999    38 H    0.870
    21   1 H    0.905 --     1 O    0.890
    22   1 H    0.998 --     2 C    0.968
    23   1 H    0.997 --     2 C    0.969
    24   1 H    0.998 --     3 C    0.956
    25   1 H    1.000 --     5 C    0.945
    26   1 H    0.998 --     6 C    0.955
    27   1 H    0.999 --     7 C    0.956
    28   1 H    0.999 --     8 C    0.955
    29   1 H    0.893 --     9 O    0.856
    30   1 H    0.899 --    10 O    0.880
    31   1 H    0.897 --    11 O    0.880
    32   1 H    0.997 --    14 C    0.965
    33   1 H    0.998 --    15 C    0.970
    34   1 H    0.998 --    16 C    0.970
    35   1 H    0.997 --    17 C    0.967
    36   1 H    0.999 --    19 C    0.962
    37   1 H    0.997 --    19 C    0.972
    38   1 H    0.906 --    20 O    0.870
 ---------------------------------------------------------------------------

Topologies differ in total number of bonds
Writing topology from bond orders to xtbtopo.mol

molecular dipole:
                 x           y           z       tot (Debye)
 q only:       -0.363       0.709       0.054
   full:       -0.723       0.919       0.095       2.983
molecular quadrupole (traceless):
                xx          xy          yy          xz          yz          zz
 q only:        7.024      -3.313      -2.570      -7.825       1.719      -4.455
  q+dip:        2.539      -1.327      -2.610     -10.327      -0.792       0.071
   full:        4.492      -4.110      -1.659     -10.349       0.581      -2.833

           -------------------------------------------------
          |                Geometry Summary                 |
           -------------------------------------------------

      molecular mass/u    :      286.2783346
   center of mass at/Å    :       -0.0282039      -0.1115852      -0.0443745
  moments of inertia/u·Å² :        0.9351708E+03   0.2353354E+04   0.2893018E+04
rotational constants/cm⁻¹ :        0.1802626E-01   0.7163236E-02   0.5827006E-02

 * 38 selected distances

     #   Z          #   Z                                           value/Å
     1   8 O        2   6 C                                       1.4131102
     2   6 C        3   6 C                                       1.5320438
     3   6 C        4   8 O                                       1.4089614
     4   8 O        5   6 C                                       1.4205601
     5   6 C        6   6 C                                       1.5328038
     6   6 C        7   6 C                                       1.5314308
     3   6 C        8   6 C                                       1.5348971 (max)
     7   6 C        8   6 C                                       1.5326273
     8   6 C        9   8 O                                       1.4053063
     7   6 C       10   8 O                                       1.4060276
     6   6 C       11   8 O                                       1.4014096
     5   6 C       12   8 O                                       1.3806861
    12   8 O       13   6 C                                       1.3908718
    13   6 C       14   6 C                                       1.3876127
    14   6 C       15   6 C                                       1.3834982
    15   6 C       16   6 C                                       1.3842346
    16   6 C       17   6 C                                       1.3840141
    13   6 C       18   6 C                                       1.3966752
    17   6 C       18   6 C                                       1.3875135
    19   6 C       20   8 O                                       1.4098995
     1   8 O       21   1 H                                       0.9628432 (min)
     2   6 C       22   1 H                                       1.0976523
     2   6 C       23   1 H                                       1.0957376
     3   6 C       24   1 H                                       1.1024071
     5   6 C       25   1 H                                       1.1050065
     6   6 C       26   1 H                                       1.0999656
     7   6 C       27   1 H                                       1.1037513
     8   6 C       28   1 H                                       1.1034229
     9   8 O       29   1 H                                       0.9685329
    10   8 O       30   1 H                                       0.9652432
    11   8 O       31   1 H                                       0.9660727
    14   6 C       32   1 H                                       1.0801400
    15   6 C       33   1 H                                       1.0797590
    16   6 C       34   1 H                                       1.0792051
    17   6 C       35   1 H                                       1.0798718
    19   6 C       36   1 H                                       1.0997233
    19   6 C       37   1 H                                       1.0928264
    20   8 O       38   1 H                                       0.9687975

 * 4 distinct bonds (by element types)

   Z      Z             #   av. dist./Å        max./Å        min./Å
   1 H    6 C          13     1.0938053     1.1050065     1.0792051
   6 C    6 C          11     1.4533956     1.5348971     1.3834982
   1 H    8 O           5     0.9662979     0.9687975     0.9628432
   6 C    8 O           9     1.4040925     1.4205601     1.3806861


optimized geometry written to: xtbopt.xyz


           -------------------------------------------------
          | TOTAL ENERGY              -65.471530162985 Eh   |
          | GRADIENT NORM               0.000808844347 Eh/α |
          | HOMO-LUMO GAP               4.444702484351 eV   |
           -------------------------------------------------

------------------------------------------------------------------------
 * finished run on 2025/05/15 at 16:06:52.887     
------------------------------------------------------------------------
 total:
 * wall-time:     0 d,  0 h,  0 min,  1.255 sec
 *  cpu-time:     0 d,  0 h,  0 min,  0.697 sec
 * ratio c/w:     0.555 speedup
 SCF:
 * wall-time:     0 d,  0 h,  0 min,  0.083 sec
 *  cpu-time:     0 d,  0 h,  0 min,  0.045 sec
 * ratio c/w:     0.548 speedup
 ANC optimizer:
 * wall-time:     0 d,  0 h,  0 min,  1.161 sec
 *  cpu-time:     0 d,  0 h,  0 min,  0.641 sec
 * ratio c/w:     0.552 speedup



----- Single-point -----
      -----------------------------------------------------------      
     |                   =====================                   |     
     |                           x T B                           |     
     |                   =====================                   |     
     |                         S. Grimme                         |     
     |          Mulliken Center for Theoretical Chemistry        |     
     |                    University of Bonn                     |     
      -----------------------------------------------------------      

   * xtb version 6.7.1 (edcfbbe) compiled by 'conda@3ef47c1a292c' on 2024-11-25

   xtb is free software: you can redistribute it and/or modify it under
   the terms of the GNU Lesser General Public License as published by
   the Free Software Foundation, either version 3 of the License, or
   (at your option) any later version.
   
   xtb is distributed in the hope that it will be useful,
   but WITHOUT ANY WARRANTY; without even the implied warranty of
   MERCHANTABILITY or FITNESS FOR A PARTICULAR PURPOSE.  See the
   GNU Lesser General Public License for more details.
   
   Cite this work as:
   * C. Bannwarth, E. Caldeweyher, S. Ehlert, A. Hansen, P. Pracht,
     J. Seibert, S. Spicher, S. Grimme, WIREs Comput. Mol. Sci., 2020, 11,
     e01493. DOI: 10.1002/wcms.1493
   
   for GFN2-xTB:
   * C. Bannwarth, S. Ehlert and S. Grimme., J. Chem. Theory Comput., 2019,
     15, 1652-1671. DOI: 10.1021/acs.jctc.8b01176
   for GFN1-xTB:
   * S. Grimme, C. Bannwarth, P. Shushkov, J. Chem. Theory Comput., 2017,
     13, 1989-2009. DOI: 10.1021/acs.jctc.7b00118
   for GFN0-xTB:
   * P. Pracht, E. Caldeweyher, S. Ehlert, S. Grimme, ChemRxiv, 2019, preprint.
     DOI: 10.26434/chemrxiv.8326202.v1
   for GFN-FF:
   * S. Spicher and S. Grimme, Angew. Chem. Int. Ed., 2020, 59, 15665-15673.
     DOI: 10.1002/anie.202004239
   
   for ALPB and GBSA implicit solvation:
   * S. Ehlert, M. Stahn, S. Spicher, S. Grimme, J. Chem. Theory Comput.,
     2021, 17, 4250-4261. DOI: 10.1021/acs.jctc.1c00471
   
   for ddCOSMO and CPCM-X implicit solvation:
   * M. Stahn, S. Ehlert, S. Grimme, J. Phys. Chem. A,
     2023, XX, XXXX-XXXX. DOI: 10.1021/acs.jpca.3c04382
   
   for DFT-D4:
   * E. Caldeweyher, C. Bannwarth and S. Grimme, J. Chem. Phys., 2017,
     147, 034112. DOI: 10.1063/1.4993215
   * E. Caldeweyher, S. Ehlert, A. Hansen, H. Neugebauer, S. Spicher,
     C. Bannwarth and S. Grimme, J. Chem. Phys., 2019, 150, 154122.
     DOI: 10.1063/1.5090222
   * E. Caldeweyher, J.-M. Mewes, S. Ehlert and S. Grimme, Phys. Chem. Chem. Phys.
     2020, 22, 8499-8512. DOI: 10.1039/D0CP00502A
   
   for sTDA-xTB:
   * S. Grimme and C. Bannwarth, J. Chem. Phys., 2016, 145, 054103.
     DOI: 10.1063/1.4959605
   
   in the mass-spec context:
   * V. Asgeirsson, C. Bauer and S. Grimme, Chem. Sci., 2017, 8, 4879.
     DOI: 10.1039/c7sc00601b
   * J. Koopman and S. Grimme, ACS Omega 2019, 4, 12, 15120-15133.
     DOI: 10.1021/acsomega.9b02011
   
   for metadynamics refer to:
   * S. Grimme, J. Chem. Theory Comput., 2019, 155, 2847-2862
     DOI: 10.1021/acs.jctc.9b00143
   
   for SPH calculations refer to:
   * S. Spicher and S. Grimme, J. Chem. Theory Comput., 2021, 17, 1701-1714
     DOI: 10.1021/acs.jctc.0c01306
   
   for ONIOM refer to:
   * C. Plett, A. Katbashev, S. Ehlert, S. Grimme, M. Bursch,
     Phys. Chem. Chem. Phys., 2023, 25, 17860-17868. DOI: 10.1039/D3CP02178E
   
   for DIPRO refer to:
   * J. Kohn, N. Gildemeister, S. Grimme, D. Fazzi, A. Hansen,
     J. Chem. Phys., 2023, just accepted.
   
   for PTB refer to:
   * S. Grimme, M. Mueller, A. Hansen, J. Chem. Phys., 2023, 158, 124111.
     DOI: 10.1063/5.0137838
   
   with help from (in alphabetical order)
   P. Atkinson, C. Bannwarth, F. Bohle, G. Brandenburg, E. Caldeweyher
   M. Checinski, S. Dohm, S. Ehlert, S. Ehrlich, I. Gerasimov, C. Hölzer
   A. Katbashev, J. Kohn, J. Koopman, C. Lavigne, S. Lehtola, F. März, M. Müller,
   F. Musil, H. Neugebauer, J. Pisarek, C. Plett, P. Pracht, F. Pultar,
   J. Seibert, P. Shushkov, S. Spicher, M. Stahn, M. Steiner, T. Strunk,
   J. Stückrath, T. Rose, and J. Unsleber
   
 * started run on 2025/05/15 at 16:06:52.908     
   ID    Z sym.   atoms
    1    8 O      1, 4, 9-12, 20
    2    6 C      2, 3, 5-8, 13-19
    3    1 H      21-38

           -------------------------------------------------
          |                Calculation Setup                |
           -------------------------------------------------

          program call               : xtb /rds/general/user/hgt20/home/callum/QDESCP/Salicin_rdkit_conf_15/Salicin_rdkit_conf_15.xyz --acc 1 --gfn 2 --chrg 0 --uhf 0 --etemp 300 --input /rds/general/user/hgt20/home/callum/QDESCP/Salicin_rdkit_conf_15/Salicin_rdkit_conf_15_xtb.inp -P 1
          hostname                   : login-c
          coordinate file            : /rds/general/user/hgt20/home/callum/QDESCP/Salicin_rdkit_conf_15/Salicin_rdkit_conf_15.xyz
          omp threads                :                     1


           -------------------------------------------------
          |                 G F N 2 - x T B                 |
           -------------------------------------------------

        Reference                      10.1021/acs.jctc.8b01176
      * Hamiltonian:
        H0-scaling (s, p, d)           1.850000    2.230000    2.230000
        zeta-weighting                 0.500000
      * Dispersion:
        s8                             2.700000
        a1                             0.520000
        a2                             5.000000
        s9                             5.000000
      * Repulsion:
        kExp                           1.500000    1.000000
        rExp                           1.000000
      * Coulomb:
        alpha                          2.000000
        third order                    shell-resolved
        anisotropic                    true
        a3                             3.000000
        a5                             4.000000
        cn-shift                       1.200000
        cn-exp                         4.000000
        max-rad                        5.000000

q/qsh data taken from xtbrestart
CAMM data taken from xtbrestart

          ...................................................
          :                      SETUP                      :
          :.................................................:
          :  # basis functions                  98          :
          :  # atomic orbitals                  98          :
          :  # shells                           58          :
          :  # electrons                       112          :
          :  max. iterations                   250          :
          :  Hamiltonian                  GFN2-xTB          :
          :  restarted?                       true          :
          :  GBSA solvation                  false          :
          :  PC potential                    false          :
          :  electronic temp.          300.0000000     K    :
          :  accuracy                    1.0000000          :
          :  -> integral cutoff          0.2500000E+02      :
          :  -> integral neglect         0.1000000E-07      :
          :  -> SCF convergence          0.1000000E-05 Eh   :
          :  -> wf. convergence          0.1000000E-03 e    :
          :  Broyden damping             0.4000000          :
          :  net charge                          0          :
          :  unpaired electrons                  0          :
          ...................................................

 iter      E             dE          RMSdq      gap      omega  full diag
   1    -66.1182132 -0.661182E+02  0.774E-06    4.44       0.0  T
   2    -66.1182132 -0.100897E-11  0.499E-06    4.44    3250.2  T
   3    -66.1182132 -0.454747E-12  0.287E-06    4.44    5659.8  T

   *** convergence criteria satisfied after 3 iterations ***

         #    Occupation            Energy/Eh            Energy/eV
      -------------------------------------------------------------
         1        2.0000           -0.7382522             -20.0889
       ...           ...                  ...                  ...
        50        2.0000           -0.4240381             -11.5387
        51        2.0000           -0.4222962             -11.4913
        52        2.0000           -0.4202981             -11.4369
        53        2.0000           -0.4170615             -11.3488
        54        2.0000           -0.4068572             -11.0711
        55        2.0000           -0.3988520             -10.8533
        56        2.0000           -0.3935169             -10.7081 (HOMO)
        57                         -0.2301770              -6.2634 (LUMO)
        58                         -0.2278214              -6.1993
        59                         -0.1032468              -2.8095
        60                         -0.0517888              -1.4092
        61                         -0.0076401              -0.2079
       ...                                ...                  ...
        98                          0.6525263              17.7561
      -------------------------------------------------------------
                  HL-Gap            0.1633399 Eh            4.4447 eV
             Fermi-level           -0.3118469 Eh           -8.4858 eV

 SCC (total)                   0 d,  0 h,  0 min,  0.073 sec
 SCC setup                      ...        0 min,  0.000 sec (  0.444%)
 Dispersion                     ...        0 min,  0.000 sec (  0.493%)
 classical contributions        ...        0 min,  0.000 sec (  0.164%)
 integral evaluation            ...        0 min,  0.006 sec (  8.818%)
 iterations                     ...        0 min,  0.006 sec (  8.651%)
 molecular gradient             ...        0 min,  0.060 sec ( 81.183%)
 printout                       ...        0 min,  0.000 sec (  0.237%)

         :::::::::::::::::::::::::::::::::::::::::::::::::::::
         ::                     SUMMARY                     ::
         :::::::::::::::::::::::::::::::::::::::::::::::::::::
         :: total energy             -65.471530163002 Eh    ::
         :: gradient norm              0.000808660698 Eh/a0 ::
         :: HOMO-LUMO gap              4.444704527897 eV    ::
         ::.................................................::
         :: SCC energy               -66.117832138463 Eh    ::
         :: -> isotropic ES            0.154549100820 Eh    ::
         :: -> anisotropic ES         -0.008558969277 Eh    ::
         :: -> anisotropic XC         -0.002481146937 Eh    ::
         :: -> dispersion             -0.036892305506 Eh    ::
         :: repulsion energy           0.646301975461 Eh    ::
         :: add. restraining           0.000000000000 Eh    ::
         :: total charge               0.000000000000 e     ::
         :::::::::::::::::::::::::::::::::::::::::::::::::::::

           -------------------------------------------------
          |                Property Printout                |
           -------------------------------------------------

    * Orbital Energies and Occupations

         #    Occupation            Energy/Eh            Energy/eV
      -------------------------------------------------------------
         1        2.0000           -0.7382522             -20.0889
       ...           ...                  ...                  ...
        44        2.0000           -0.4621960             -12.5770
        45        2.0000           -0.4548980             -12.3784
        46        2.0000           -0.4494781             -12.2309
        47        2.0000           -0.4472948             -12.1715
        48        2.0000           -0.4436836             -12.0732
        49        2.0000           -0.4407045             -11.9922
        50        2.0000           -0.4240381             -11.5387
        51        2.0000           -0.4222962             -11.4913
        52        2.0000           -0.4202981             -11.4369
        53        2.0000           -0.4170615             -11.3488
        54        2.0000           -0.4068572             -11.0711
        55        2.0000           -0.3988520             -10.8533
        56        2.0000           -0.3935169             -10.7081 (HOMO)
        57                         -0.2301770              -6.2634 (LUMO)
        58                         -0.2278214              -6.1993
        59                         -0.1032468              -2.8095
        60                         -0.0517888              -1.4092
        61                         -0.0076401              -0.2079
        62                          0.0051926               0.1413
        63                          0.0274370               0.7466
        64                          0.0426725               1.1612
        65                          0.0441702               1.2019
        66                          0.0721819               1.9642
        67                          0.0804319               2.1887
       ...                                ...                  ...
        98                          0.6525263              17.7561
      -------------------------------------------------------------
                  HL-Gap            0.1633399 Eh            4.4447 eV
             Fermi-level           -0.3118469 Eh           -8.4858 eV

     #   Z          covCN         q      C6AA      α(0)
     1   8 O        1.655    -0.444    21.724     6.292
     2   6 C        3.675     0.074    19.571     6.339
     3   6 C        3.743     0.099    19.022     6.222
     4   8 O        1.701    -0.355    19.982     6.035
     5   6 C        3.645     0.253    16.999     5.926
     6   6 C        3.727     0.095    19.101     6.240
     7   6 C        3.731     0.098    19.050     6.230
     8   6 C        3.727     0.091    19.164     6.250
     9   8 O        1.656    -0.455    21.956     6.325
    10   8 O        1.656    -0.445    21.735     6.294
    11   8 O        1.657    -0.436    21.557     6.268
    12   8 O        1.706    -0.284    18.718     5.841
    13   6 C        2.876     0.136    25.022     8.200
    14   6 C        2.917    -0.053    29.322     8.880
    15   6 C        2.921    -0.031    28.776     8.797
    16   6 C        2.918    -0.035    28.881     8.813
    17   6 C        2.925    -0.035    28.865     8.811
    18   6 C        2.964    -0.014    28.356     8.734
    19   6 C        3.679     0.082    19.420     6.312
    20   8 O        1.655    -0.453    21.903     6.318
    21   1 H        0.805     0.307     0.702     1.316
    22   1 H        0.924     0.045     2.381     2.413
    23   1 H        0.924     0.052     2.293     2.368
    24   1 H        0.923     0.039     2.466     2.456
    25   1 H        0.922     0.020     2.733     2.585
    26   1 H        0.923     0.048     2.342     2.393
    27   1 H        0.923     0.031     2.573     2.509
    28   1 H        0.923     0.033     2.548     2.496
    29   1 H        0.804     0.326     0.648     1.265
    30   1 H        0.805     0.318     0.670     1.286
    31   1 H        0.805     0.321     0.661     1.277
    32   1 H        0.926     0.051     2.303     2.373
    33   1 H        0.926     0.043     2.403     2.424
    34   1 H        0.926     0.043     2.412     2.428
    35   1 H        0.926     0.047     2.355     2.400
    36   1 H        0.923     0.033     2.545     2.495
    37   1 H        0.924     0.048     2.345     2.395
    38   1 H        0.804     0.307     0.700     1.314

 Mol. C6AA /au·bohr⁶  :      14031.465294
 Mol. C8AA /au·bohr⁸  :     316428.156204
 Mol. α(0) /au        :        177.319551


Wiberg/Mayer (AO) data.
largest (>0.10) Wiberg bond orders for each atom

 ---------------------------------------------------------------------------
     #   Z sym  total        # sym  WBO       # sym  WBO       # sym  WBO
 ---------------------------------------------------------------------------
     1   8 O    1.964 --     2 C    0.995    21 H    0.890
     2   6 C    3.952 --     1 O    0.995     3 C    0.984    23 H    0.969
                            22 H    0.968
     3   6 C    3.944 --     2 C    0.984     8 C    0.966     4 O    0.965
                            24 H    0.956
     4   8 O    2.072 --     3 C    0.965     5 C    0.937
     5   6 C    3.926 --    12 O    1.003     6 C    0.960    25 H    0.945
                             4 O    0.937
     6   6 C    3.964 --    11 O    1.006     7 C    0.970     5 C    0.960
                            26 H    0.955
     7   6 C    3.963 --    10 O    0.999     6 C    0.970     8 C    0.969
                            27 H    0.956
     8   6 C    3.964 --     9 O    1.004     7 C    0.969     3 C    0.966
                            28 H    0.955
     9   8 O    1.949 --     8 C    1.004    29 H    0.856
    10   8 O    1.956 --     7 C    0.999    30 H    0.880
    11   8 O    1.958 --     6 C    1.006    31 H    0.880
    12   8 O    2.170 --     5 C    1.003    13 C    0.979
    13   6 C    3.922 --    14 C    1.401    18 C    1.366    12 O    0.979
                            16 C    0.103
    14   6 C    3.990 --    15 C    1.440    13 C    1.401    32 H    0.965
                            17 C    0.108
    15   6 C    3.991 --    14 C    1.440    16 C    1.438    33 H    0.970
                            18 C    0.108
    16   6 C    3.991 --    17 C    1.439    15 C    1.438    34 H    0.970
                            13 C    0.103
    17   6 C    3.990 --    16 C    1.439    18 C    1.422    35 H    0.967
                            14 C    0.108
    18   6 C    3.986 --    17 C    1.422    13 C    1.366    19 C    0.994
                            15 C    0.108
    19   6 C    3.962 --    20 O    0.999    18 C    0.994    37 H    0.972
                            36 H    0.962
    20   8 O    1.953 --    19 C    0.999    38 H    0.870
    21   1 H    0.905 --     1 O    0.890
    22   1 H    0.998 --     2 C    0.968
    23   1 H    0.997 --     2 C    0.969
    24   1 H    0.998 --     3 C    0.956
    25   1 H    1.000 --     5 C    0.945
    26   1 H    0.998 --     6 C    0.955
    27   1 H    0.999 --     7 C    0.956
    28   1 H    0.999 --     8 C    0.955
    29   1 H    0.893 --     9 O    0.856
    30   1 H    0.899 --    10 O    0.880
    31   1 H    0.897 --    11 O    0.880
    32   1 H    0.997 --    14 C    0.965
    33   1 H    0.998 --    15 C    0.970
    34   1 H    0.998 --    16 C    0.970
    35   1 H    0.997 --    17 C    0.967
    36   1 H    0.999 --    19 C    0.962
    37   1 H    0.997 --    19 C    0.972
    38   1 H    0.906 --    20 O    0.870
 ---------------------------------------------------------------------------

Topologies differ in total number of bonds
Writing topology from bond orders to xtbtopo.mol

molecular dipole:
                 x           y           z       tot (Debye)
 q only:       -0.363       0.709       0.054
   full:       -0.723       0.919       0.095       2.983
molecular quadrupole (traceless):
                xx          xy          yy          xz          yz          zz
 q only:        7.024      -3.313      -2.570      -7.825       1.719      -4.455
  q+dip:        2.539      -1.327      -2.610     -10.327      -0.792       0.071
   full:        4.492      -4.110      -1.659     -10.349       0.581      -2.833


           -------------------------------------------------
          | TOTAL ENERGY              -65.471530163002 Eh   |
          | GRADIENT NORM               0.000808660698 Eh/α |
          | HOMO-LUMO GAP               4.444704527897 eV   |
           -------------------------------------------------

------------------------------------------------------------------------
 * finished run on 2025/05/15 at 16:06:52.993     
------------------------------------------------------------------------
 total:
 * wall-time:     0 d,  0 h,  0 min,  0.085 sec
 *  cpu-time:     0 d,  0 h,  0 min,  0.045 sec
 * ratio c/w:     0.526 speedup
 SCF:
 * wall-time:     0 d,  0 h,  0 min,  0.074 sec
 *  cpu-time:     0 d,  0 h,  0 min,  0.034 sec
 * ratio c/w:     0.466 speedup



----- FOD -----
      -----------------------------------------------------------      
[...]
     e01493. DOI: 10.1002/wcms.1493
   
   for GFN2-xTB:
   * C. Bannwarth, S. Ehlert and S. Grimme., J. Chem. Theory Comput., 2019,
     15, 1652-1671. DOI: 10.1021/acs.jctc.8b01176
   for GFN1-xTB:
   * S. Grimme, C. Bannwarth, P. Shushkov, J. Chem. Theory Comput., 2017,
     13, 1989-2009. DOI: 10.1021/acs.jctc.7b00118
   for GFN0-xTB:
   * P. Pracht, E. Caldeweyher, S. Ehlert, S. Grimme, ChemRxiv, 2019, preprint.
     DOI: 10.26434/chemrxiv.8326202.v1
   for GFN-FF:
   * S. Spicher and S. Grimme, Angew. Chem. Int. Ed., 2020, 59, 15665-15673.
     DOI: 10.1002/anie.202004239
   
   for ALPB and GBSA implicit solvation:
   * S. Ehlert, M. Stahn, S. Spicher, S. Grimme, J. Chem. Theory Comput.,
     2021, 17, 4250-4261. DOI: 10.1021/acs.jctc.1c00471
   
   for ddCOSMO and CPCM-X implicit solvation:
   * M. Stahn, S. Ehlert, S. Grimme, J. Phys. Chem. A,
     2023, XX, XXXX-XXXX. DOI: 10.1021/acs.jpca.3c04382
   
   for DFT-D4:
   * E. Caldeweyher, C. Bannwarth and S. Grimme, J. Chem. Phys., 2017,
     147, 034112. DOI: 10.1063/1.4993215
   * E. Caldeweyher, S. Ehlert, A. Hansen, H. Neugebauer, S. Spicher,
     C. Bannwarth and S. Grimme, J. Chem. Phys., 2019, 150, 154122.
     DOI: 10.1063/1.5090222
   * E. Caldeweyher, J.-M. Mewes, S. Ehlert and S. Grimme, Phys. Chem. Chem. Phys.
     2020, 22, 8499-8512. DOI: 10.1039/D0CP00502A
   
   for sTDA-xTB:
   * S. Grimme and C. Bannwarth, J. Chem. Phys., 2016, 145, 054103.
     DOI: 10.1063/1.4959605
   
   in the mass-spec context:
   * V. Asgeirsson, C. Bauer and S. Grimme, Chem. Sci., 2017, 8, 4879.
     DOI: 10.1039/c7sc00601b
   * J. Koopman and S. Grimme, ACS Omega 2019, 4, 12, 15120-15133.
     DOI: 10.1021/acsomega.9b02011
   
   for metadynamics refer to:
   * S. Grimme, J. Chem. Theory Comput., 2019, 155, 2847-2862
     DOI: 10.1021/acs.jctc.9b00143
   
   for SPH calculations refer to:
   * S. Spicher and S. Grimme, J. Chem. Theory Comput., 2021, 17, 1701-1714
     DOI: 10.1021/acs.jctc.0c01306
   
   for ONIOM refer to:
   * C. Plett, A. Katbashev, S. Ehlert, S. Grimme, M. Bursch,
     Phys. Chem. Chem. Phys., 2023, 25, 17860-17868. DOI: 10.1039/D3CP02178E
   
   for DIPRO refer to:
   * J. Kohn, N. Gildemeister, S. Grimme, D. Fazzi, A. Hansen,
     J. Chem. Phys., 2023, just accepted.
   
   for PTB refer to:
   * S. Grimme, M. Mueller, A. Hansen, J. Chem. Phys., 2023, 158, 124111.
     DOI: 10.1063/5.0137838
   
   with help from (in alphabetical order)
   P. Atkinson, C. Bannwarth, F. Bohle, G. Brandenburg, E. Caldeweyher
   M. Checinski, S. Dohm, S. Ehlert, S. Ehrlich, I. Gerasimov, C. Hölzer
   A. Katbashev, J. Kohn, J. Koopman, C. Lavigne, S. Lehtola, F. März, M. Müller,
   F. Musil, H. Neugebauer, J. Pisarek, C. Plett, P. Pracht, F. Pultar,
   J. Seibert, P. Shushkov, S. Spicher, M. Stahn, M. Steiner, T. Strunk,
   J. Stückrath, T. Rose, and J. Unsleber
   
 * started run on 2025/05/15 at 16:06:55.005     
   ID    Z sym.   atoms
    1    8 O      1, 4, 9-12, 20
    2    6 C      2, 3, 5-8, 13-19
    3    1 H      21-38

           -------------------------------------------------
          |                Calculation Setup                |
           -------------------------------------------------

          program call               : xtb /rds/general/user/hgt20/home/callum/QDESCP/Salicin_rdkit_conf_15/Salicin_rdkit_conf_15.xyz --acc 1 --gfn 2 --chrg 0 --uhf 2 --etemp 300 --input /rds/general/user/hgt20/home/callum/QDESCP/Salicin_rdkit_conf_15/Salicin_rdkit_conf_15_xtb.inp -P 1
          hostname                   : login-c
          coordinate file            : /rds/general/user/hgt20/home/callum/QDESCP/Salicin_rdkit_conf_15/Salicin_rdkit_conf_15.xyz
          omp threads                :                     1


           -------------------------------------------------
          |                 G F N 2 - x T B                 |
           -------------------------------------------------

        Reference                      10.1021/acs.jctc.8b01176
      * Hamiltonian:
        H0-scaling (s, p, d)           1.850000    2.230000    2.230000
        zeta-weighting                 0.500000
      * Dispersion:
        s8                             2.700000
        a1                             0.520000
        a2                             5.000000
        s9                             5.000000
      * Repulsion:
        kExp                           1.500000    1.000000
        rExp                           1.000000
      * Coulomb:
        alpha                          2.000000
        third order                    shell-resolved
        anisotropic                    true
        a3                             3.000000
        a5                             4.000000
        cn-shift                       1.200000
        cn-exp                         4.000000
        max-rad                        5.000000


          ...................................................
          :                      SETUP                      :
          :.................................................:
          :  # basis functions                  98          :
          :  # atomic orbitals                  98          :
          :  # shells                           58          :
          :  # electrons                       112          :
          :  max. iterations                   250          :
          :  Hamiltonian                  GFN2-xTB          :
          :  restarted?                      false          :
          :  GBSA solvation                  false          :
          :  PC potential                    false          :
          :  electronic temp.          300.0000000     K    :
          :  accuracy                    1.0000000          :
          :  -> integral cutoff          0.2500000E+02      :
          :  -> integral neglect         0.1000000E-07      :
          :  -> SCF convergence          0.1000000E-05 Eh   :
          :  -> wf. convergence          0.1000000E-03 e    :
          :  Broyden damping             0.4000000          :
          :  net charge                          0          :
          :  unpaired electrons                  2          :
          ...................................................

 iter      E             dE          RMSdq      gap      omega  full diag
   1    -65.8491691 -0.658492E+02  0.451E+00    0.21       0.0  T
   2    -65.7789905  0.701786E-01  0.355E+00    0.73       1.0  T
   3    -65.8270876 -0.480971E-01  0.252E+00    0.73       1.0  T
   4    -65.8924222 -0.653346E-01  0.962E-01    0.05       1.0  T
   5    -65.9319449 -0.395227E-01  0.826E-01    0.07       1.0  T
   6    -65.9402671 -0.832217E-02  0.664E-01    0.06       1.0  T
   7    -65.9394465  0.820616E-03  0.651E-01    0.13       1.0  T
   8    -65.9476199 -0.817342E-02  0.330E-01    0.08       1.0  T
   9    -65.9492214 -0.160152E-02  0.190E-01    0.06       1.0  T
  10    -65.9490622  0.159260E-03  0.164E-01    0.07       1.0  T
  11    -65.9500267 -0.964475E-03  0.584E-02    0.06       1.0  T
  12    -65.9500887 -0.620298E-04  0.205E-02    0.06       1.0  T
  13    -65.9500951 -0.641953E-05  0.113E-02    0.06       1.4  T
  14    -65.9500975 -0.236801E-05  0.701E-03    0.06       2.3  T
  15    -65.9500994 -0.195502E-05  0.884E-04    0.06      18.3  T
  16    -65.9500994  0.168610E-07  0.954E-04    0.06      17.0  T
  17    -65.9500994 -0.299758E-07  0.264E-04    0.06      61.5  T

   *** convergence criteria satisfied after 17 iterations ***

         #    Occupation            Energy/Eh            Energy/eV
      -------------------------------------------------------------
         1        2.0000           -0.7451545             -20.2767
       ...           ...                  ...                  ...
        51        2.0000           -0.4239664             -11.5367
        52        2.0000           -0.4235247             -11.5247
        53        2.0000           -0.4173543             -11.3568
        54        1.9964           -0.4000190             -10.8851
        55        1.9464           -0.3974147             -10.8142
        56        1.0572           -0.3920249             -10.6675
        57        0.7698           -0.2213301              -6.0227 (HOMO)
        58        0.2302           -0.2190368              -5.9603 (LUMO)
        59                         -0.0944704              -2.5707
        60                         -0.0562466              -1.5305
        61                         -0.0121583              -0.3308
        62                          0.0010971               0.0299
       ...                                ...                  ...
        98                          0.6609157              17.9844
      -------------------------------------------------------------
                  HL-Gap            0.0022933 Eh            0.0624 eV
             Fermi-level           -0.3074351 Eh           -8.3657 eV

 transition dipole moment (au) for excitation:          56          57
     X       Y       Z   
  -0.9459  -0.5845  -0.6856  total (au/Debye):    1.306   3.320
 dE (eV)             :    4.645
 oscillator strength :  0.27463E+00

 SCC (total)                   0 d,  0 h,  0 min,  0.105 sec
 SCC setup                      ...        0 min,  0.000 sec (  0.280%)
 Dispersion                     ...        0 min,  0.000 sec (  0.358%)
 classical contributions        ...        0 min,  0.000 sec (  0.114%)
 integral evaluation            ...        0 min,  0.007 sec (  6.194%)
 iterations                     ...        0 min,  0.073 sec ( 69.704%)
 molecular gradient             ...        0 min,  0.019 sec ( 17.767%)
 printout                       ...        0 min,  0.006 sec (  5.575%)

         :::::::::::::::::::::::::::::::::::::::::::::::::::::
         ::                     SUMMARY                     ::
         :::::::::::::::::::::::::::::::::::::::::::::::::::::
         :: total energy             -65.303416425623 Eh    ::
         :: gradient norm              0.133508188321 Eh/a0 ::
         :: HOMO-LUMO gap              0.062404667176 eV    ::
         ::.................................................::
         :: SCC energy               -65.949718401083 Eh    ::
         :: -> isotropic ES            0.150277472273 Eh    ::
         :: -> anisotropic ES         -0.007297870562 Eh    ::
         :: -> anisotropic XC         -0.003040741633 Eh    ::
         :: -> dispersion             -0.036854893845 Eh    ::
         :: repulsion energy           0.646301975461 Eh    ::
         :: add. restraining           0.000000000000 Eh    ::
         :: total charge               0.000000000000 e     ::
         :::::::::::::::::::::::::::::::::::::::::::::::::::::

           -------------------------------------------------
          |                Property Printout                |
           -------------------------------------------------

    * Orbital Energies and Occupations

         #    Occupation            Energy/Eh            Energy/eV
      -------------------------------------------------------------
         1        2.0000           -0.7451545             -20.2767
       ...           ...                  ...                  ...
        45        2.0000           -0.4541411             -12.3578
        46        2.0000           -0.4511759             -12.2771
        47        2.0000           -0.4485271             -12.2050
        48        2.0000           -0.4458597             -12.1325
        49        2.0000           -0.4370633             -11.8931
        50        2.0000           -0.4278174             -11.6415
        51        2.0000           -0.4239664             -11.5367
        52        2.0000           -0.4235247             -11.5247
        53        2.0000           -0.4173543             -11.3568
        54        1.9964           -0.4000190             -10.8851
        55        1.9464           -0.3974147             -10.8142
        56        1.0572           -0.3920249             -10.6675
        57        0.7698           -0.2213301              -6.0227 (HOMO)
        58        0.2302           -0.2190368              -5.9603 (LUMO)
        59                         -0.0944704              -2.5707
        60                         -0.0562466              -1.5305
        61                         -0.0121583              -0.3308
        62                          0.0010971               0.0299
        63                          0.0239355               0.6513
        64                          0.0389442               1.0597
        65                          0.0402234               1.0945
        66                          0.0677791               1.8444
        67                          0.0769252               2.0932
        68                          0.0831876               2.2636
       ...                                ...                  ...
        98                          0.6609157              17.9844
      -------------------------------------------------------------
                  HL-Gap            0.0022933 Eh            0.0624 eV
             Fermi-level           -0.3074351 Eh           -8.3657 eV

     #   Z          covCN         q      C6AA      α(0)
     1   8 O        1.655    -0.443    21.708     6.290
     2   6 C        3.675     0.074    19.571     6.339
     3   6 C        3.743     0.098    19.026     6.223
     4   8 O        1.701    -0.352    19.919     6.026
     5   6 C        3.645     0.249    17.049     5.935
     6   6 C        3.727     0.095    19.101     6.240
     7   6 C        3.731     0.098    19.056     6.231
     8   6 C        3.727     0.091    19.166     6.251
     9   8 O        1.656    -0.455    21.940     6.323
    10   8 O        1.656    -0.444    21.722     6.292
    11   8 O        1.657    -0.435    21.545     6.266
    12   8 O        1.706    -0.253    18.191     5.759
    13   6 C        2.876     0.129    25.177     8.226
    14   6 C        2.917    -0.063    29.563     8.916
    15   6 C        2.921    -0.046    29.141     8.852
    16   6 C        2.918    -0.031    28.771     8.796
    17   6 C        2.925    -0.048    29.194     8.861
    18   6 C        2.964    -0.027    28.670     8.783
    19   6 C        3.679     0.081    19.434     6.315
    20   8 O        1.655    -0.441    21.656     6.282
    21   1 H        0.805     0.307     0.699     1.313
    22   1 H        0.924     0.045     2.379     2.412
    23   1 H        0.924     0.053     2.282     2.362
    24   1 H        0.923     0.041     2.434     2.440
    25   1 H        0.922     0.028     2.621     2.532
    26   1 H        0.923     0.048     2.342     2.393
    27   1 H        0.923     0.032     2.553     2.499
    28   1 H        0.923     0.033     2.544     2.494
    29   1 H        0.804     0.326     0.647     1.263
    30   1 H        0.805     0.319     0.668     1.283
    31   1 H        0.805     0.322     0.658     1.274
    32   1 H        0.926     0.042     2.416     2.431
    33   1 H        0.926     0.036     2.504     2.475
    34   1 H        0.926     0.037     2.495     2.470
    35   1 H        0.926     0.040     2.454     2.450
    36   1 H        0.923     0.050     2.324     2.384
    37   1 H        0.924     0.052     2.292     2.368
    38   1 H        0.804     0.310     0.692     1.307

 Mol. C6AA /au·bohr⁶  :      14031.966762
 Mol. C8AA /au·bohr⁸  :     316599.568139
 Mol. α(0) /au        :        177.351865


Wiberg/Mayer (AO) data.
largest (>0.10) Wiberg bond orders for each atom

 ---------------------------------------------------------------------------
     #   Z sym  total        # sym  WBO       # sym  WBO       # sym  WBO
 ---------------------------------------------------------------------------
     1   8 O    1.964 --     2 C    0.996    21 H    0.889
     2   6 C    3.951 --     1 O    0.996     3 C    0.983    23 H    0.969
                            22 H    0.968
     3   6 C    3.941 --     2 C    0.983     8 C    0.966     4 O    0.962
                            24 H    0.956
     4   8 O    2.070 --     3 C    0.962     5 C    0.937
     5   6 C    3.916 --    12 O    0.995     6 C    0.959    25 H    0.944
                             4 O    0.937
     6   6 C    3.964 --    11 O    1.007     7 C    0.969     5 C    0.959
                            26 H    0.955
     7   6 C    3.963 --    10 O    1.000     6 C    0.969     8 C    0.969
                            27 H    0.955
     8   6 C    3.964 --     9 O    1.004     7 C    0.969     3 C    0.966
                            28 H    0.955
     9   8 O    1.949 --     8 C    1.004    29 H    0.856
    10   8 O    1.956 --     7 C    1.000    30 H    0.880
    11   8 O    1.959 --     6 C    1.007    31 H    0.879
    12   8 O    2.241 --    13 C    1.041     5 C    0.995
    13   6 C    3.581 --    14 C    1.254    18 C    1.056    12 O    1.041
                            15 C    0.105
    14   6 C    3.823 --    15 C    1.464    13 C    1.254    32 H    0.963
    15   6 C    3.744 --    14 C    1.464    16 C    1.123    33 H    0.967
                            13 C    0.105
    16   6 C    3.672 --    17 C    1.334    15 C    1.123    34 H    0.970
                            18 C    0.122
    17   6 C    3.828 --    18 C    1.407    16 C    1.334    35 H    0.964
    18   6 C    3.704 --    17 C    1.407    13 C    1.056    19 C    1.004
                            16 C    0.122
    19   6 C    3.955 --    18 C    1.004    20 O    0.994    37 H    0.972
                            36 H    0.928
    20   8 O    1.979 --    19 C    0.994    38 H    0.868
    21   1 H    0.905 --     1 O    0.889
    22   1 H    0.998 --     2 C    0.968
    23   1 H    0.997 --     2 C    0.969
    24   1 H    0.998 --     3 C    0.956
    25   1 H    0.999 --     5 C    0.944
    26   1 H    0.998 --     6 C    0.955
    27   1 H    0.999 --     7 C    0.955
    28   1 H    0.999 --     8 C    0.955
    29   1 H    0.893 --     9 O    0.856
    30   1 H    0.898 --    10 O    0.880
    31   1 H    0.896 --    11 O    0.879
    32   1 H    0.997 --    14 C    0.963
    33   1 H    0.997 --    15 C    0.967
    34   1 H    0.998 --    16 C    0.970
    35   1 H    0.997 --    17 C    0.964
    36   1 H    0.989 --    19 C    0.928
    37   1 H    0.997 --    19 C    0.972
    38   1 H    0.904 --    20 O    0.868
 ---------------------------------------------------------------------------

Topologies differ in total number of bonds
Writing topology from bond orders to xtbtopo.mol

molecular dipole:
                 x           y           z       tot (Debye)
 q only:       -0.777       0.568       0.311
   full:       -1.156       0.746       0.389       3.633
molecular quadrupole (traceless):
                xx          xy          yy          xz          yz          zz
 q only:        3.968      -4.691      -0.964      -5.802       1.847      -3.004
  q+dip:       -0.748      -2.984      -0.471      -8.608      -1.035       1.219
   full:        1.073      -5.605       0.249      -8.376       0.564      -1.322


           -------------------------------------------------
          | TOTAL ENERGY              -65.303416425623 Eh   |
          | GRADIENT NORM               0.133508188321 Eh/α |
          | HOMO-LUMO GAP               0.062404667176 eV   |
           -------------------------------------------------

------------------------------------------------------------------------
 * finished run on 2025/05/15 at 16:06:55.122     
------------------------------------------------------------------------
 total:
 * wall-time:     0 d,  0 h,  0 min,  0.117 sec
 *  cpu-time:     0 d,  0 h,  0 min,  0.072 sec
 * ratio c/w:     0.614 speedup
 SCF:
 * wall-time:     0 d,  0 h,  0 min,  0.105 sec
 *  cpu-time:     0 d,  0 h,  0 min,  0.061 sec
 * ratio c/w:     0.579 speedup


