38
 energy: -65.471530162985 gnorm: 0.000808844347 xtb: 6.7.1 (edcfbbe)
O           -3.53857894743188        2.23032154157423        1.18518740701660
C           -2.28387727983883        1.62004477990943        1.40916549006494
C           -1.93704817959231        0.73070430548613        0.21085794326818
O           -0.63631962473754        0.24952703219856        0.45934415595458
C           -0.08488881429022       -0.59502157049780       -0.54098196968991
C           -0.98364014579323       -1.80354342799492       -0.82595208127923
C           -2.42362050177577       -1.34799760805492       -1.07935769832233
C           -2.92141138820943       -0.43551416797967        0.04693013664979
O           -4.21512997361114       -0.01208168174942       -0.30218660721863
O           -3.22276279993788       -2.49829851969420       -1.20221033279380
O           -0.46672454826577       -2.45387886971385       -1.95458424967042
O            1.12041862924786       -1.03872893551626       -0.03437420223198
C            2.24751262810361       -0.27297985845649       -0.31332110947452
C            2.65995386457123       -0.07125736977677       -1.62277475690675
C            3.81473108062907        0.64617753012017       -1.87937498692823
C            4.55861612205116        1.15808436507042       -0.83023651345277
C            4.14857404902062        0.94654966625191        0.47460571487148
C            2.99437160371553        0.22922714943372        0.75471021940506
C            2.51943826384021        0.01359057210683        2.17208104616676
O            1.38669726139293        0.79188360048467        2.48668228897407
H           -3.71446678332943        2.85092069110308        1.90002099567475
H           -2.30529663786651        0.99924795520468        2.31414778106141
H           -1.49010880028595        2.36722905092678        1.52001654424282
H           -1.95587050459367        1.33705967457412       -0.70962018915382
H            0.04054054671983       -0.02016882481293       -1.47631661393552
H           -0.96228677008504       -2.46490989744085        0.05271874777104
H           -2.45106428136758       -0.77369501808400       -2.02153080513711
H           -2.94580797510562       -1.01319351608928        0.98673498021844
H           -4.40157453996154        0.80831291544612        0.17765383191852
H           -4.14231043742688       -2.20636238919789       -1.17221662981195
H           -1.08914720576071       -3.15609610447760       -2.18431721490748
H            2.08156836177301       -0.49693517041127       -2.42960241967899
H            4.13467701972167        0.79825621344920       -2.89936812005684
H            5.45831046121380        1.72020095246173       -1.02837399747711
H            4.72730795374375        1.34735895644761        1.29347192321560
H            2.30173823688645       -1.05459369112187        2.31692627884790
H            3.29595366466719        0.31646681859826        2.87887596493154
H            0.68142639197061        0.55419285022219        1.86646904787494
