41
 energy: -74.033416507687 gnorm: 0.000460665049 xtb: 6.7.1 (edcfbbe)
O           -1.29027790925352        0.74878925328499       -1.77680447802154
C           -0.75503368309657        0.20911529270877       -0.84040962433311
C            0.61521494766390        0.24102646810550       -0.38156207409575
C            1.75056461139923        0.89903480957123       -0.88085038937725
O            1.58740924970999        1.64978530564513       -1.97775796597592
C            2.69022169029705        2.34181543141675       -2.51643873406026
C            2.95213097632838        0.72165524290392       -0.20155080884094
C            0.69981402561073       -0.56593186006223        0.76273769132340
C            1.89719953702745       -0.73878993179343        1.42891460549414
Cl           2.00368789353852       -1.73329525077875        2.83120295667467
C            3.03672924406220       -0.08319209144946        0.93748824622796
O            4.17065510786363       -0.29232278126398        1.63293154544663
C            5.36835186701463        0.31938311930584        1.21373078587492
O           -0.46223555124847       -1.13270107989898        1.10449475303499
C           -1.47414232974041       -0.70122475554933        0.19168117444916
C           -2.15010937342061       -1.93054773209386       -0.43829063790175
C           -1.16339976955956       -2.70896421186848       -1.30491325102037
C           -3.36756045292231       -1.48649823492315       -1.24191242046687
C           -2.47979619502286        0.15811487032853        0.92719393715403
O           -1.87338196897390        0.92895851662759        1.84428808488316
C           -2.65880185857065        1.82508031332842        2.60021832068304
C           -3.78936737076930        0.13430370884073        0.63183531838602
C           -4.36297363619030       -0.71199767594651       -0.40578755320137
O           -5.55843177085546       -0.77052713317564       -0.60292472715342
H            3.10011400039216        3.06188669589933       -1.80156567675790
H            3.47791654033831        1.65335758827686       -2.83776741603213
H            2.30245009438016        2.87486883313839       -3.38236500535761
H            3.84053397311760        1.21420389834575       -0.55719791985604
H            5.29261386513526        1.41066241630698        1.23858670004457
H            6.12342229239740       -0.00438884131191        1.92784075088208
H            5.65686989269271       -0.00788120077677        0.21027169925224
H           -2.47319949387542       -2.56841662121766        0.39287739422485
H           -1.63617384688572       -3.61234979710461       -1.68170850235736
H           -0.28869863948999       -2.99520793951878       -0.72502635081126
H           -0.84184254039759       -2.10724596809987       -2.15258660384953
H           -3.04692176642091       -0.82592848122778       -2.05242186690541
H           -3.86968756648822       -2.34741005484075       -1.68594936254277
H           -1.96399571590383        2.33703387882460        3.26306183375661
H           -3.40618714343033        1.29054176894123        3.19243591785389
H           -3.15698250219705        2.55166283127076        1.95259535804987
H           -4.49669872425620        0.75374139983050        1.16160429522233
