52
 energy: -76.361064812009 gnorm: 0.000461930512 xtb: 6.7.1 (edcfbbe)
H           -0.52314503821271       -0.92343458619365        1.56297751301284
C           -0.69522521105578       -0.66355529332243        0.49330834678823
C           -2.07664667309076       -0.12055586573551        0.34777911375647
N           -2.49408868863905        1.10104050257914        0.81285522327609
C           -3.82004222645453        1.25336139619218        0.51635916661588
C           -4.25331209343961        0.08391416000932       -0.15985731449676
C           -5.58167815663577       -0.01595213110248       -0.57153104200573
C           -6.43471464117035        1.03145802120339       -0.30555314433167
C           -5.99376603450551        2.17787572422332        0.36047299791643
C           -4.68609299348821        2.30549608271388        0.77910606902238
C           -3.11716828200834       -0.77190743587845       -0.24659954733943
C           -2.95037873840039       -2.13749874001231       -0.81943372099864
C           -1.69302990814552       -2.75554205158491       -0.20364108358648
N           -0.56828406185223       -1.84728646665220       -0.34669859947390
C            0.71466443625330       -2.48120953044711       -0.13339055469169
C            1.83972501000454       -1.53884839181139       -0.56519761955048
C            3.21304548633927       -2.18714864760456       -0.41371689244976
C            4.30766763838798       -1.22427030108734       -0.86568451031669
C            4.27031948240546        0.09328805650429       -0.08101342531182
C            2.86055994064733        0.73259565102701       -0.17366476397042
C            1.76081773839703       -0.24657547661567        0.24861292076629
C            0.36848394222819        0.35737415055525        0.07527616431570
H            1.89348725896086       -0.47798169499126        1.31270998971036
C            2.87192331690350        1.96183284740403        0.71582583292552
O            3.53505047407913        2.96317233306858        0.13223835226944
C            3.68934124565631        4.14589198511907        0.90617792032230
O            2.37551670713425        2.03834791870915        1.80883204822908
O            4.69462929494127       -0.06604927474108        1.24839792784173
H            1.67712272877510       -1.29168897911707       -1.61935288365901
H           -1.92358940885801        1.76666680429445        1.30481228153353
H           -5.92803459604367       -0.89888328518929       -1.08793756314560
H           -7.46817190608212        0.97268829867075       -0.61510360856626
H           -6.69385080115429        2.97821980171203        0.55036559958777
H           -4.34605389818113        3.19215504464071        1.29446427463781
H           -2.83405482768051       -2.07973791668315       -1.90536870417567
H           -3.81969716628143       -2.76197200972882       -0.60360345100240
H           -1.88501603293157       -2.99554524759631        0.85769277372864
H           -1.44644718052935       -3.68535114622442       -0.72161339949089
H            0.86031611061857       -2.76999807848358        0.92607919192708
H            0.75439820431061       -3.39185500409549       -0.73675636850176
H            3.26170456141514       -3.09861136669800       -1.01267528630469
H            3.37284364593930       -2.47490520344200        0.62898265117181
H            4.18330690866084       -1.00194241094446       -1.92649256221732
H            5.28968206220322       -1.67905047974952       -0.72413658925838
H            4.99568024644647        0.79190101831450       -0.51405943806294
H            2.70642540336971        1.05528434502383       -1.20665255134748
H            0.20417242282633        0.62343117984988       -0.97054292716855
H            0.27922485956560        1.25522233433251        0.68676290044337
H            2.71269796081179        4.57238914150558        1.14445927422175
H            4.26913835181316        4.83478107374424        0.29774740915659
H            4.21231655218871        3.92004759220828        1.83722297275885
H            4.05812657355882       -0.62117844787269        1.71355863548650
