----- Optimization -----
      -----------------------------------------------------------      
     |                   =====================                   |     
     |                           x T B                           |     
     |                   =====================                   |     
     |                         S. Grimme                         |     
     |          Mulliken Center for Theoretical Chemistry        |     
     |                    University of Bonn                     |     
      -----------------------------------------------------------      

   * xtb version 6.7.1 (edcfbbe) compiled by 'conda@3ef47c1a292c' on 2024-11-25

   xtb is free software: you can redistribute it and/or modify it under
   the terms of the GNU Lesser General Public License as published by
   the Free Software Foundation, either version 3 of the License, or
   (at your option) any later version.
   
   xtb is distributed in the hope that it will be useful,
   but WITHOUT ANY WARRANTY; without even the implied warranty of
   MERCHANTABILITY or FITNESS FOR A PARTICULAR PURPOSE.  See the
   GNU Lesser General Public License for more details.
   
   Cite this work as:
   * C. Bannwarth, E. Caldeweyher, S. Ehlert, A. Hansen, P. Pracht,
     J. Seibert, S. Spicher, S. Grimme, WIREs Comput. Mol. Sci., 2020, 11,
     e01493. DOI: 10.1002/wcms.1493
   
   for GFN2-xTB:
   * C. Bannwarth, S. Ehlert and S. Grimme., J. Chem. Theory Comput., 2019,
     15, 1652-1671. DOI: 10.1021/acs.jctc.8b01176
   for GFN1-xTB:
   * S. Grimme, C. Bannwarth, P. Shushkov, J. Chem. Theory Comput., 2017,
     13, 1989-2009. DOI: 10.1021/acs.jctc.7b00118
   for GFN0-xTB:
   * P. Pracht, E. Caldeweyher, S. Ehlert, S. Grimme, ChemRxiv, 2019, preprint.
     DOI: 10.26434/chemrxiv.8326202.v1
   for GFN-FF:
   * S. Spicher and S. Grimme, Angew. Chem. Int. Ed., 2020, 59, 15665-15673.
     DOI: 10.1002/anie.202004239
   
   for ALPB and GBSA implicit solvation:
   * S. Ehlert, M. Stahn, S. Spicher, S. Grimme, J. Chem. Theory Comput.,
     2021, 17, 4250-4261. DOI: 10.1021/acs.jctc.1c00471
   
   for ddCOSMO and CPCM-X implicit solvation:
   * M. Stahn, S. Ehlert, S. Grimme, J. Phys. Chem. A,
     2023, XX, XXXX-XXXX. DOI: 10.1021/acs.jpca.3c04382
   
   for DFT-D4:
   * E. Caldeweyher, C. Bannwarth and S. Grimme, J. Chem. Phys., 2017,
     147, 034112. DOI: 10.1063/1.4993215
   * E. Caldeweyher, S. Ehlert, A. Hansen, H. Neugebauer, S. Spicher,
     C. Bannwarth and S. Grimme, J. Chem. Phys., 2019, 150, 154122.
     DOI: 10.1063/1.5090222
   * E. Caldeweyher, J.-M. Mewes, S. Ehlert and S. Grimme, Phys. Chem. Chem. Phys.
     2020, 22, 8499-8512. DOI: 10.1039/D0CP00502A
   
   for sTDA-xTB:
   * S. Grimme and C. Bannwarth, J. Chem. Phys., 2016, 145, 054103.
     DOI: 10.1063/1.4959605
   
   in the mass-spec context:
   * V. Asgeirsson, C. Bauer and S. Grimme, Chem. Sci., 2017, 8, 4879.
     DOI: 10.1039/c7sc00601b
   * J. Koopman and S. Grimme, ACS Omega 2019, 4, 12, 15120-15133.
     DOI: 10.1021/acsomega.9b02011
   
   for metadynamics refer to:
   * S. Grimme, J. Chem. Theory Comput., 2019, 155, 2847-2862
     DOI: 10.1021/acs.jctc.9b00143
   
   for SPH calculations refer to:
   * S. Spicher and S. Grimme, J. Chem. Theory Comput., 2021, 17, 1701-1714
     DOI: 10.1021/acs.jctc.0c01306
   
   for ONIOM refer to:
   * C. Plett, A. Katbashev, S. Ehlert, S. Grimme, M. Bursch,
     Phys. Chem. Chem. Phys., 2023, 25, 17860-17868. DOI: 10.1039/D3CP02178E
   
   for DIPRO refer to:
   * J. Kohn, N. Gildemeister, S. Grimme, D. Fazzi, A. Hansen,
     J. Chem. Phys., 2023, just accepted.
   
   for PTB refer to:
   * S. Grimme, M. Mueller, A. Hansen, J. Chem. Phys., 2023, 158, 124111.
     DOI: 10.1063/5.0137838
   
   with help from (in alphabetical order)
   P. Atkinson, C. Bannwarth, F. Bohle, G. Brandenburg, E. Caldeweyher
   M. Checinski, S. Dohm, S. Ehlert, S. Ehrlich, I. Gerasimov, C. Hölzer
   A. Katbashev, J. Kohn, J. Koopman, C. Lavigne, S. Lehtola, F. März, M. Müller,
   F. Musil, H. Neugebauer, J. Pisarek, C. Plett, P. Pracht, F. Pultar,
   J. Seibert, P. Shushkov, S. Spicher, M. Stahn, M. Steiner, T. Strunk,
   J. Stückrath, T. Rose, and J. Unsleber
   
 * started run on 2025/05/15 at 16:38:21.037     
   ID    Z sym.   atoms
    1    1 H      1, 23, 29-52
    2    6 C      2, 3, 5-13, 15-22, 24, 26
    3    7 N      4, 14
    4    8 O      25, 27, 28

           -------------------------------------------------
          |                Calculation Setup                |
           -------------------------------------------------

          program call               : xtb /rds/general/user/hgt20/home/callum/QDESCP/Yohimbine_rdkit_conf_6/Yohimbine_rdkit_conf_6.xyz --opt normal --acc 1 --gfn 2 --chrg 0 --uhf 0 -P 1
          hostname                   : login-c
          coordinate file            : /rds/general/user/hgt20/home/callum/QDESCP/Yohimbine_rdkit_conf_6/Yohimbine_rdkit_conf_6.xyz
          omp threads                :                     1


           -------------------------------------------------
          |                 G F N 2 - x T B                 |
           -------------------------------------------------

        Reference                      10.1021/acs.jctc.8b01176
      * Hamiltonian:
        H0-scaling (s, p, d)           1.850000    2.230000    2.230000
        zeta-weighting                 0.500000
      * Dispersion:
        s8                             2.700000
        a1                             0.520000
        a2                             5.000000
        s9                             5.000000
      * Repulsion:
        kExp                           1.500000    1.000000
        rExp                           1.000000
      * Coulomb:
        alpha                          2.000000
        third order                    shell-resolved
        anisotropic                    true
        a3                             3.000000
        a5                             4.000000
        cn-shift                       1.200000
        cn-exp                         4.000000
        max-rad                        5.000000


          ...................................................
          :                      SETUP                      :
          :.................................................:
          :  # basis functions                 130          :
          :  # atomic orbitals                 130          :
          :  # shells                           78          :
          :  # electrons                       138          :
          :  max. iterations                   250          :
          :  Hamiltonian                  GFN2-xTB          :
          :  restarted?                      false          :
          :  GBSA solvation                  false          :
          :  PC potential                    false          :
          :  electronic temp.          300.0000000     K    :
          :  accuracy                    1.0000000          :
          :  -> integral cutoff          0.2500000E+02      :
          :  -> integral neglect         0.1000000E-07      :
          :  -> SCF convergence          0.1000000E-05 Eh   :
          :  -> wf. convergence          0.1000000E-03 e    :
          :  Broyden damping             0.4000000          :
          :  net charge                          0          :
          :  unpaired electrons                  0          :
          ...................................................

 iter      E             dE          RMSdq      gap      omega  full diag
   1    -77.1779449 -0.771779E+02  0.369E+00    3.13       0.0  T
   2    -77.3046441 -0.126699E+00  0.217E+00    2.71       1.0  T
   3    -77.3067663 -0.212220E-02  0.117E+00    3.32       1.0  T
   4    -77.3150279 -0.826160E-02  0.445E-01    2.74       1.0  T
   5    -77.3233978 -0.836987E-02  0.125E-01    2.74       1.0  T
   6    -77.3239087 -0.510951E-03  0.540E-02    2.77       1.0  T
   7    -77.3239486 -0.398382E-04  0.238E-02    2.76       1.0  T
   8    -77.3239507 -0.215292E-05  0.107E-02    2.76       1.3  T
   9    -77.3239536 -0.288673E-05  0.304E-03    2.77       4.6  T
  10    -77.3239537 -0.807008E-07  0.140E-03    2.76       9.9  T
  11    -77.3239537 -0.210598E-07  0.695E-04    2.76      19.9  T
  12    -77.3239537 -0.676599E-08  0.260E-04    2.76      53.3  T

   *** convergence criteria satisfied after 12 iterations ***

         #    Occupation            Energy/Eh            Energy/eV
      -------------------------------------------------------------
         1        2.0000           -0.7444878             -20.2585
       ...           ...                  ...                  ...
        63        2.0000           -0.4123370             -11.2203
        64        2.0000           -0.4081076             -11.1052
        65        2.0000           -0.4071391             -11.0788
        66        2.0000           -0.4009422             -10.9102
        67        2.0000           -0.3750056             -10.2044
        68        2.0000           -0.3531079              -9.6086
        69        2.0000           -0.3480626              -9.4713 (HOMO)
        70                         -0.2464925              -6.7074 (LUMO)
        71                         -0.2265549              -6.1649
        72                         -0.1901632              -5.1746
        73                         -0.1509324              -4.1071
        74                         -0.0661244              -1.7993
       ...                                ...                  ...
       130                          0.7132801              19.4093
      -------------------------------------------------------------
                  HL-Gap            0.1015702 Eh            2.7639 eV
             Fermi-level           -0.2972775 Eh           -8.0893 eV

 SCC (total)                   0 d,  0 h,  0 min,  0.079 sec
 SCC setup                      ...        0 min,  0.000 sec (  0.625%)
 Dispersion                     ...        0 min,  0.001 sec (  0.789%)
 classical contributions        ...        0 min,  0.000 sec (  0.274%)
 integral evaluation            ...        0 min,  0.010 sec ( 12.587%)
 iterations                     ...        0 min,  0.035 sec ( 44.147%)
 molecular gradient             ...        0 min,  0.033 sec ( 41.288%)
 printout                       ...        0 min,  0.000 sec (  0.283%)

         :::::::::::::::::::::::::::::::::::::::::::::::::::::
         ::                     SUMMARY                     ::
         :::::::::::::::::::::::::::::::::::::::::::::::::::::
         :: total energy             -76.350685377837 Eh    ::
         :: gradient norm              0.084873210534 Eh/a0 ::
         :: HOMO-LUMO gap              2.763864685143 eV    ::
         ::.................................................::
         :: SCC energy               -77.323752959222 Eh    ::
         :: -> isotropic ES            0.080938698653 Eh    ::
         :: -> anisotropic ES          0.011554181559 Eh    ::
         :: -> anisotropic XC          0.028646600457 Eh    ::
         :: -> dispersion             -0.057679352930 Eh    ::
         :: repulsion energy           0.973067581386 Eh    ::
         :: add. restraining           0.000000000000 Eh    ::
         :: total charge              -0.000000000000 e     ::
         :::::::::::::::::::::::::::::::::::::::::::::::::::::

      ----------------------------------------------------------- 
     |                   =====================                   |
     |                        A N C O P T                        |
     |                   =====================                   |
     |               Approximate Normal Coordinate               |
     |                Rational Function Optimizer                |
      ----------------------------------------------------------- 
      ----------------------------------------------------------- 
     |                   =====================                   |
     |                        A N C O P T                        |
     |                   =====================                   |
     |               Approximate Normal Coordinate               |
     |                Rational Function Optimizer                |
      ----------------------------------------------------------- 

          ...................................................
          :                      SETUP                      :
          :.................................................:
          :   optimization level            normal          :
          :   max. optcycles                   200          :
          :   ANC micro-cycles                  20          :
          :   degrees of freedom               150          :
          :.................................................:
          :   RF solver                   davidson          :
          :   write xtbopt.log                true          :
          :   linear?                        false          :
          :   energy convergence         0.5000000E-05 Eh   :
          :   grad. convergence          0.1000000E-02 Eh/α :
          :   maxmium RF displ.          1.0000000          :
          :   Hlow (freq-cutoff)         0.1000000E-01      :
          :   Hmax (freq-cutoff)         5.0000000          :
          :   S6 in model hess.         20.0000000          :
          ...................................................

generating ANC from exact Hessian ...
Using Lindh-Hessian (1995)
 Shifting diagonal of input Hessian by    9.5971126335140499E-003
 Lowest  eigenvalues of input Hessian
    0.000000    0.000000    0.000000    0.000000    0.000000    0.000000
    0.010000    0.010057    0.010423    0.011440    0.011619    0.012128
    0.013691    0.013893    0.015107    0.016075    0.017638    0.019055
 Highest eigenvalues
    1.844467    1.931714    1.984852    2.040933    2.153932    2.235900


........................................................................
.............................. CYCLE    1 ..............................
........................................................................

 iter      E             dE          RMSdq      gap      omega  full diag
   1    -77.3239537 -0.773240E+02  0.121E-04    2.76       0.0  T
   2    -77.3239537 -0.136993E-09  0.774E-05    2.76     179.1  T
   3    -77.3239537 -0.628688E-10  0.517E-05    2.76     268.2  T
     SCC iter.                  ...        0 min,  0.009 sec
     gradient                   ...        0 min,  0.033 sec
 * total energy  :   -76.3506854 Eh     change       -0.1473452E-08 Eh
   gradient norm :     0.0848749 Eh/α   predicted     0.0000000E+00 (-100.00%)
   displ. norm   :     0.3103078 α      lambda       -0.1209090E-01
   maximum displ.:     0.1305051 α      in ANC's #28, #17, #20, ...

........................................................................
.............................. CYCLE    2 ..............................
........................................................................

 iter      E             dE          RMSdq      gap      omega  full diag
   1    -77.3612619 -0.773613E+02  0.165E-01    3.11       0.0  T
   2    -77.3613665 -0.104615E-03  0.985E-02    3.08       1.0  T
   3    -77.3613529  0.135474E-04  0.396E-02    3.09       1.0  T
   4    -77.3613802 -0.272982E-04  0.896E-03    3.08       1.5  T
   5    -77.3613828 -0.260298E-05  0.408E-03    3.08       3.4  T
   6    -77.3613833 -0.452640E-06  0.192E-03    3.08       7.2  T
   7    -77.3613833 -0.324060E-07  0.611E-04    3.08      22.7  T
   8    -77.3613833 -0.500238E-08  0.245E-04    3.08      56.7  T
     SCC iter.                  ...        0 min,  0.022 sec
     gradient                   ...        0 min,  0.033 sec
 * total energy  :   -76.3586392 Eh     change       -0.7953847E-02 Eh
   gradient norm :     0.0284971 Eh/α   predicted    -0.6631226E-02 ( -16.63%)
   displ. norm   :     0.2630390 α      lambda       -0.2764798E-02
   maximum displ.:     0.1084520 α      in ANC's #17, #28, #9, ...

........................................................................
.............................. CYCLE    3 ..............................
........................................................................

 iter      E             dE          RMSdq      gap      omega  full diag
   1    -77.3792254 -0.773792E+02  0.904E-02    3.21       0.0  T
   2    -77.3792597 -0.343841E-04  0.548E-02    3.20       1.0  T
   3    -77.3792570  0.272243E-05  0.209E-02    3.21       1.0  T
   4    -77.3792640 -0.695827E-05  0.331E-03    3.20       4.2  T
   5    -77.3792643 -0.301622E-06  0.158E-03    3.20       8.8  T
   6    -77.3792643 -0.539846E-07  0.775E-04    3.20      17.9  T
   7    -77.3792643 -0.527592E-08  0.277E-04    3.20      50.1  T
     SCC iter.                  ...        0 min,  0.020 sec
     gradient                   ...        0 min,  0.033 sec
 * total energy  :   -76.3602681 Eh     change       -0.1628861E-02 Eh
   gradient norm :     0.0097365 Eh/α   predicted    -0.1478967E-02 (  -9.20%)
   displ. norm   :     0.1500206 α      lambda       -0.3969970E-03
   maximum displ.:     0.0607031 α      in ANC's #9, #12, #17, ...

........................................................................
.............................. CYCLE    4 ..............................
........................................................................

 iter      E             dE          RMSdq      gap      omega  full diag
   1    -77.3817353 -0.773817E+02  0.353E-02    3.19       0.0  T
   2    -77.3817410 -0.566422E-05  0.216E-02    3.20       1.0  T
   3    -77.3817399  0.115847E-05  0.813E-03    3.20       1.7  T
   4    -77.3817412 -0.131204E-05  0.326E-03    3.20       4.3  T
   5    -77.3817417 -0.489424E-06  0.698E-04    3.20      19.9  T
   6    -77.3817417 -0.118117E-07  0.305E-04    3.20      45.5  T
     SCC iter.                  ...        0 min,  0.017 sec
     gradient                   ...        0 min,  0.033 sec
 * total energy  :   -76.3605420 Eh     change       -0.2738891E-03 Eh
   gradient norm :     0.0046116 Eh/α   predicted    -0.2029681E-03 ( -25.89%)
   displ. norm   :     0.1612892 α      lambda       -0.2147654E-03
   maximum displ.:     0.0725658 α      in ANC's #12, #9, #5, ...

........................................................................
.............................. CYCLE    5 ..............................
........................................................................

 iter      E             dE          RMSdq      gap      omega  full diag
   1    -77.3823866 -0.773824E+02  0.326E-02    3.18       0.0  T
   2    -77.3823890 -0.243788E-05  0.196E-02    3.19       1.0  T
   3    -77.3823874  0.160244E-05  0.724E-03    3.19       1.9  T
   4    -77.3823893 -0.186481E-05  0.224E-03    3.19       6.2  T
   5    -77.3823895 -0.226668E-06  0.531E-04    3.19      26.1  T
   6    -77.3823895 -0.499966E-08  0.250E-04    3.19      55.4  T
     SCC iter.                  ...        0 min,  0.017 sec
     gradient                   ...        0 min,  0.033 sec
 * total energy  :   -76.3606898 Eh     change       -0.1478267E-03 Eh
   gradient norm :     0.0032646 Eh/α   predicted    -0.1102902E-03 ( -25.39%)
   displ. norm   :     0.1710734 α      lambda       -0.1336737E-03
   maximum displ.:     0.0893143 α      in ANC's #5, #12, #9, ...

........................................................................
.............................. CYCLE    6 ..............................
........................................................................

 iter      E             dE          RMSdq      gap      omega  full diag
   1    -77.3820541 -0.773821E+02  0.330E-02    3.18       0.0  T
   2    -77.3820548 -0.616674E-06  0.196E-02    3.18       1.0  T
   3    -77.3820541  0.643254E-06  0.402E-03    3.18       3.5  T
   4    -77.3820548 -0.736838E-06  0.117E-03    3.18      11.9  T
   5    -77.3820549 -0.564340E-07  0.407E-04    3.18      34.1  T
   6    -77.3820549 -0.133765E-08  0.170E-04    3.18      81.5  T
     SCC iter.                  ...        0 min,  0.017 sec
     gradient                   ...        0 min,  0.033 sec
 * total energy  :   -76.3607880 Eh     change       -0.9815564E-04 Eh
   gradient norm :     0.0041549 Eh/α   predicted    -0.6879476E-04 ( -29.91%)
   displ. norm   :     0.1963167 α      lambda       -0.1210478E-03
   maximum displ.:     0.1092921 α      in ANC's #5, #12, #9, ...

........................................................................
.............................. CYCLE    7 ..............................
........................................................................

 iter      E             dE          RMSdq      gap      omega  full diag
   1    -77.3815431 -0.773815E+02  0.381E-02    3.18       0.0  T
   2    -77.3815435 -0.397700E-06  0.225E-02    3.17       1.0  T
   3    -77.3815435  0.649989E-07  0.188E-03    3.17       7.4  T
   4    -77.3815436 -0.136063E-06  0.806E-04    3.17      17.2  T
   5    -77.3815436 -0.168469E-07  0.390E-04    3.17      35.6  T
     SCC iter.                  ...        0 min,  0.014 sec
     gradient                   ...        0 min,  0.033 sec
 * total energy  :   -76.3608759 Eh     change       -0.8796655E-04 Eh
   gradient norm :     0.0038008 Eh/α   predicted    -0.6285923E-04 ( -28.54%)
   displ. norm   :     0.1700084 α      lambda       -0.8729241E-04
   maximum displ.:     0.1004181 α      in ANC's #5, #3, #9, ...

........................................................................
.............................. CYCLE    8 ..............................
........................................................................

 iter      E             dE          RMSdq      gap      omega  full diag
   1    -77.3814450 -0.773814E+02  0.347E-02    3.18       0.0  T
   2    -77.3814454 -0.435109E-06  0.205E-02    3.17       1.0  T
   3    -77.3814453  0.186844E-06  0.240E-03    3.17       5.8  T
   4    -77.3814455 -0.245688E-06  0.947E-04    3.17      14.6  T
   5    -77.3814455 -0.307696E-07  0.365E-04    3.17      37.9  T
     SCC iter.                  ...        0 min,  0.014 sec
     gradient                   ...        0 min,  0.033 sec
 * total energy  :   -76.3609392 Eh     change       -0.6330397E-04 Eh
   gradient norm :     0.0023159 Eh/α   predicted    -0.4490808E-04 ( -29.06%)
   displ. norm   :     0.1359549 α      lambda       -0.5576857E-04
   maximum displ.:     0.0829483 α      in ANC's #5, #3, #6, ...

........................................................................
.............................. CYCLE    9 ..............................
........................................................................

 iter      E             dE          RMSdq      gap      omega  full diag
   1    -77.3818355 -0.773818E+02  0.292E-02    3.18       0.0  T
   2    -77.3818357 -0.266149E-06  0.172E-02    3.18       1.0  T
   3    -77.3818357  0.605284E-07  0.174E-03    3.18       8.0  T
   4    -77.3818358 -0.110334E-06  0.677E-04    3.18      20.5  T
   5    -77.3818358 -0.113187E-07  0.326E-04    3.18      42.5  T
     SCC iter.                  ...        0 min,  0.014 sec
     gradient                   ...        0 min,  0.033 sec
 * total energy  :   -76.3609796 Eh     change       -0.4040444E-04 Eh
   gradient norm :     0.0016332 Eh/α   predicted    -0.2840028E-04 ( -29.71%)
   displ. norm   :     0.1659540 α      lambda       -0.3443121E-04
   maximum displ.:     0.1016874 α      in ANC's #5, #3, #6, ...

........................................................................
.............................. CYCLE   10 ..............................
........................................................................

 iter      E             dE          RMSdq      gap      omega  full diag
   1    -77.3823364 -0.773823E+02  0.371E-02    3.18       0.0  T
   2    -77.3823367 -0.282494E-06  0.217E-02    3.18       1.0  T
   3    -77.3823367 -0.768196E-08  0.144E-03    3.18       9.6  T
   4    -77.3823367 -0.695070E-07  0.607E-04    3.18      22.8  T
   5    -77.3823368 -0.295404E-08  0.337E-04    3.18      41.2  T
     SCC iter.                  ...        0 min,  0.014 sec
     gradient                   ...        0 min,  0.033 sec
 * total energy  :   -76.3610120 Eh     change       -0.3233110E-04 Eh
   gradient norm :     0.0020256 Eh/α   predicted    -0.1742868E-04 ( -46.09%)
   displ. norm   :     0.0554232 α      lambda       -0.1609414E-04
   maximum displ.:     0.0336914 α      in ANC's #3, #5, #4, ...

........................................................................
.............................. CYCLE   11 ..............................
........................................................................

 iter      E             dE          RMSdq      gap      omega  full diag
   1    -77.3824611 -0.773825E+02  0.125E-02    3.18       0.0  T
   2    -77.3824612 -0.824959E-07  0.735E-03    3.18       1.9  T
   3    -77.3824611  0.640841E-07  0.135E-03    3.18      10.3  T
   4    -77.3824612 -0.787873E-07  0.372E-04    3.18      37.2  T
   5    -77.3824612 -0.473474E-08  0.160E-04    3.18      86.9  T
     SCC iter.                  ...        0 min,  0.014 sec
     gradient                   ...        0 min,  0.033 sec
 * total energy  :   -76.3610256 Eh     change       -0.1362825E-04 Eh
   gradient norm :     0.0014128 Eh/α   predicted    -0.8073491E-05 ( -40.76%)
   displ. norm   :     0.1374129 α      lambda       -0.2481122E-04
   maximum displ.:     0.0856129 α      in ANC's #3, #5, #4, ...

........................................................................
.............................. CYCLE   12 ..............................
........................................................................

 iter      E             dE          RMSdq      gap      omega  full diag
   1    -77.3826132 -0.773826E+02  0.302E-02    3.17       0.0  T
   2    -77.3826136 -0.486941E-06  0.178E-02    3.17       1.0  T
   3    -77.3826135  0.160676E-06  0.243E-03    3.17       5.7  T
   4    -77.3826137 -0.237337E-06  0.763E-04    3.17      18.2  T
   5    -77.3826137 -0.163660E-07  0.375E-04    3.17      37.0  T
     SCC iter.                  ...        0 min,  0.014 sec
     gradient                   ...        0 min,  0.033 sec
 * total energy  :   -76.3610469 Eh     change       -0.2129517E-04 Eh
   gradient norm :     0.0014167 Eh/α   predicted    -0.1251088E-04 ( -41.25%)
   displ. norm   :     0.0578704 α      lambda       -0.6501225E-05
   maximum displ.:     0.0404634 α      in ANC's #3, #5, #4, ...

........................................................................
.............................. CYCLE   13 ..............................
........................................................................

 iter      E             dE          RMSdq      gap      omega  full diag
   1    -77.3823129 -0.773823E+02  0.122E-02    3.18       0.0  T
   2    -77.3823129 -0.483636E-07  0.719E-03    3.18       1.9  T
   3    -77.3823128  0.157899E-06  0.186E-03    3.18       7.5  T
   4    -77.3823130 -0.185150E-06  0.327E-04    3.18      42.4  T
   5    -77.3823130 -0.200286E-08  0.174E-04    3.17      79.8  T
     SCC iter.                  ...        0 min,  0.014 sec
     gradient                   ...        0 min,  0.033 sec
 * total energy  :   -76.3610544 Eh     change       -0.7524726E-05 Eh
   gradient norm :     0.0009268 Eh/α   predicted    -0.3258481E-05 ( -56.70%)
   displ. norm   :     0.0603043 α      lambda       -0.6707212E-05
   maximum displ.:     0.0439530 α      in ANC's #3, #5, #4, ...

........................................................................
.............................. CYCLE   14 ..............................
........................................................................

 iter      E             dE          RMSdq      gap      omega  full diag
   1    -77.3823411 -0.773823E+02  0.135E-02    3.18       0.0  T
   2    -77.3823412 -0.807822E-07  0.801E-03    3.18       1.7  T
   3    -77.3823408  0.321047E-06  0.269E-03    3.18       5.2  T
   4    -77.3823412 -0.373372E-06  0.387E-04    3.18      35.8  T
   5    -77.3823412 -0.248563E-08  0.209E-04    3.18      66.3  T
     SCC iter.                  ...        0 min,  0.014 sec
     gradient                   ...        0 min,  0.033 sec
 * total energy  :   -76.3610614 Eh     change       -0.6959756E-05 Eh
   gradient norm :     0.0004658 Eh/α   predicted    -0.3362971E-05 ( -51.68%)
   displ. norm   :     0.0433526 α      lambda       -0.2946559E-05
   maximum displ.:     0.0335193 α      in ANC's #3, #5, #6, ...

........................................................................
.............................. CYCLE   15 ..............................
........................................................................

 iter      E             dE          RMSdq      gap      omega  full diag
   1    -77.3823909 -0.773824E+02  0.953E-03    3.18       0.0  T
   2    -77.3823909 -0.266127E-07  0.563E-03    3.18       2.5  T
   3    -77.3823908  0.573929E-07  0.123E-03    3.18      11.3  T
   4    -77.3823909 -0.721180E-07  0.267E-04    3.18      52.0  T
   5    -77.3823909 -0.698464E-09  0.146E-04    3.18      95.1  T
     SCC iter.                  ...        0 min,  0.014 sec
     gradient                   ...        0 min,  0.033 sec
 * total energy  :   -76.3610648 Eh     change       -0.3439198E-05 Eh
   gradient norm :     0.0004619 Eh/α   predicted    -0.1475943E-05 ( -57.08%)
   displ. norm   :     0.0319158 α      lambda       -0.1967528E-05
   maximum displ.:     0.0254715 α      in ANC's #3, #6, #5, ...

   *** GEOMETRY OPTIMIZATION CONVERGED AFTER 15 ITERATIONS ***

------------------------------------------------------------------------
 total energy gain   :        -0.0103794 Eh       -6.5132 kcal/mol
 total RMSD          :         0.2086162 a0        0.1104 Å
 total power (kW/mol):        -1.8167467 (step)  -29.5447 (real)
------------------------------------------------------------------------

 ANCopt (total)                0 d,  0 h,  0 min,  0.923 sec
 optimizer setup                ...        0 min,  0.000 sec (  0.009%)
 model hessian                  ...        0 min,  0.033 sec (  3.570%)
 ANC generation                 ...        0 min,  0.002 sec (  0.245%)
 coordinate transformation      ...        0 min,  0.000 sec (  0.016%)
 single point calculation       ...        0 min,  0.881 sec ( 95.447%)
 optimization log               ...        0 min,  0.005 sec (  0.497%)
 hessian update                 ...        0 min,  0.000 sec (  0.027%)
 rational function              ...        0 min,  0.001 sec (  0.114%)

================
 final structure:
================
52
 xtb: 6.7.1 (edcfbbe)
H           -0.52314503821271       -0.92343458619365        1.56297751301284
C           -0.69522521105578       -0.66355529332243        0.49330834678823
C           -2.07664667309076       -0.12055586573551        0.34777911375647
N           -2.49408868863905        1.10104050257914        0.81285522327609
C           -3.82004222645453        1.25336139619218        0.51635916661588
C           -4.25331209343961        0.08391416000932       -0.15985731449676
C           -5.58167815663577       -0.01595213110248       -0.57153104200573
C           -6.43471464117035        1.03145802120339       -0.30555314433167
C           -5.99376603450551        2.17787572422332        0.36047299791643
C           -4.68609299348821        2.30549608271388        0.77910606902238
C           -3.11716828200834       -0.77190743587845       -0.24659954733943
C           -2.95037873840039       -2.13749874001231       -0.81943372099864
C           -1.69302990814552       -2.75554205158491       -0.20364108358648
N           -0.56828406185223       -1.84728646665220       -0.34669859947390
C            0.71466443625330       -2.48120953044711       -0.13339055469169
C            1.83972501000454       -1.53884839181139       -0.56519761955048
C            3.21304548633927       -2.18714864760456       -0.41371689244976
C            4.30766763838798       -1.22427030108734       -0.86568451031669
C            4.27031948240546        0.09328805650429       -0.08101342531182
C            2.86055994064733        0.73259565102701       -0.17366476397042
C            1.76081773839703       -0.24657547661567        0.24861292076629
C            0.36848394222819        0.35737415055525        0.07527616431570
H            1.89348725896086       -0.47798169499126        1.31270998971036
C            2.87192331690350        1.96183284740403        0.71582583292552
O            3.53505047407913        2.96317233306858        0.13223835226944
C            3.68934124565631        4.14589198511907        0.90617792032230
O            2.37551670713425        2.03834791870915        1.80883204822908
O            4.69462929494127       -0.06604927474108        1.24839792784173
H            1.67712272877510       -1.29168897911707       -1.61935288365901
H           -1.92358940885801        1.76666680429445        1.30481228153353
H           -5.92803459604367       -0.89888328518929       -1.08793756314560
H           -7.46817190608212        0.97268829867075       -0.61510360856626
H           -6.69385080115429        2.97821980171203        0.55036559958777
H           -4.34605389818113        3.19215504464071        1.29446427463781
H           -2.83405482768051       -2.07973791668315       -1.90536870417567
H           -3.81969716628143       -2.76197200972882       -0.60360345100240
H           -1.88501603293157       -2.99554524759631        0.85769277372864
H           -1.44644718052935       -3.68535114622442       -0.72161339949089
H            0.86031611061857       -2.76999807848358        0.92607919192708
H            0.75439820431061       -3.39185500409549       -0.73675636850176
H            3.26170456141514       -3.09861136669800       -1.01267528630469
H            3.37284364593930       -2.47490520344200        0.62898265117181
H            4.18330690866084       -1.00194241094446       -1.92649256221732
H            5.28968206220322       -1.67905047974952       -0.72413658925838
H            4.99568024644647        0.79190101831450       -0.51405943806294
H            2.70642540336971        1.05528434502383       -1.20665255134748
H            0.20417242282633        0.62343117984988       -0.97054292716855
H            0.27922485956560        1.25522233433251        0.68676290044337
H            2.71269796081179        4.57238914150558        1.14445927422175
H            4.26913835181316        4.83478107374424        0.29774740915659
H            4.21231655218871        3.92004759220828        1.83722297275885
H            4.05812657355882       -0.62117844787269        1.71355863548650

 Bond Distances (Angstroems)
 ---------------------------
H1-C2=1.1142         C2-H1=1.1142         C2-C3=1.4914         C2-N14=1.4570        C2-C22=1.5325        C3-C2=1.4914         
C3-N4=1.3722         C3-C11=1.3639        N4-C3=1.3722         N4-C5=1.3672         N4-H30=1.0053        C5-N4=1.3672         
C5-C6=1.4187         C5-C10=1.3878        C6-C5=1.4187         C6-C7=1.3943         C6-C11=1.4251        C7-C6=1.3943         
C7-C8=1.3768         C7-H31=1.0799        C8-C7=1.3768         C8-C9=1.3972         C8-H32=1.0804        C9-C8=1.3972         
C9-C10=1.3790        C9-H33=1.0802        C10-C5=1.3878        C10-C9=1.3790        C10-H34=1.0805       C11-C3=1.3639        
C11-C6=1.4251        C11-C12=1.4902       C12-C11=1.4902       C12-C13=1.5304       C12-H35=1.0937       C12-H36=1.0919       
C13-C12=1.5304       C13-N14=1.4527       C13-H37=1.1049       C13-H38=1.0925       N14-C2=1.4570        N14-C13=1.4527       
N14-C15=1.4468       C15-N14=1.4468       C15-C16=1.5298       C15-H39=1.1077       C15-H40=1.0931       C16-C15=1.5298       
C16-C17=1.5262       C16-C21=1.5292       C16-H29=1.0949       C17-C16=1.5262       C17-C18=1.5263       C17-H41=1.0917       
C17-H42=1.0934       C18-C17=1.5263       C18-C19=1.5340       C18-H43=1.0910       C18-H44=1.0914       C19-C18=1.5340       
C19-C20=1.5507       C19-O28=1.4046       C19-H45=1.0962       C20-C19=1.5507       C20-C21=1.5318       C20-C24=1.5173       
C20-H46=1.0931       C21-C16=1.5292       C21-C20=1.5318       C21-C22=1.5275       C21-H23=1.0970       C22-C2=1.5325        
C22-C21=1.5275       C22-H47=1.0916       C22-H48=1.0900       H23-C21=1.0970       C24-C20=1.5173       C24-O25=1.3353       
C24-O27=1.2029       O25-C24=1.3353       O25-C26=1.4218       C26-O25=1.4218       C26-H49=1.0920       C26-H50=1.0867       
C26-H51=1.0915       O27-C24=1.2029       O28-C19=1.4046       O28-H52=0.9642       H29-C16=1.0949       H30-N4=1.0053        
H31-C7=1.0799        H32-C8=1.0804        H33-C9=1.0802        H34-C10=1.0805       H35-C12=1.0937       H36-C12=1.0919       
H37-C13=1.1049       H38-C13=1.0925       H39-C15=1.1077       H40-C15=1.0931       H41-C17=1.0917       H42-C17=1.0934       
H43-C18=1.0910       H44-C18=1.0914       H45-C19=1.0962       H46-C20=1.0931       H47-C22=1.0916       H48-C22=1.0900       
H49-C26=1.0920       H50-C26=1.0867       H51-C26=1.0915       H52-O28=0.9642       
 C  H  Rav=1.0925 sigma=0.0080  Rmin=1.0799  Rmax=1.1142    24
 C  C  Rav=1.4743 sigma=0.0662  Rmin=1.3639  Rmax=1.5507    21
 N  H  Rav=1.0053 sigma=0.0000  Rmin=1.0053  Rmax=1.0053     1
 N  C  Rav=1.4192 sigma=0.0406  Rmin=1.3672  Rmax=1.4570     5
 O  H  Rav=0.9642 sigma=0.0000  Rmin=0.9642  Rmax=0.9642     1
 O  C  Rav=1.3411 sigma=0.0861  Rmin=1.2029  Rmax=1.4218     4

 selected bond angles (degree)
 --------------------
C3-C2-H1=108.76                N14-C2-H1=110.52               N14-C2-C3=108.68               C22-C2-H1=108.06               
C22-C2-C3=111.95               C22-C2-N14=108.87              N4-C3-C2=124.95                C11-C3-C2=125.12               
C11-C3-N4=109.92               C5-N4-C3=108.71                H30-N4-C3=125.64               H30-N4-C5=125.64               
C6-C5-N4=107.92                C10-C5-N4=130.44               C10-C5-C6=121.64               C7-C6-C5=119.39                
C11-C6-C5=106.29               C11-C6-C7=134.31               C8-C7-C6=118.61                H31-C7-C6=120.35               
H31-C7-C8=121.04               C9-C8-C7=121.38                H32-C8-C7=119.73               H32-C8-C9=118.89               
C10-C9-C8=121.33               H33-C9-C8=119.16               H33-C9-C10=119.52              C9-C10-C5=117.65               
H34-C10-C5=121.07              H34-C10-C9=121.28              

 selected dihedral angles (degree)
 ---------------------------------
N4-C3-C2-H1= 70.82            N4-C3-C2-N14=191.19           N4-C3-C2-C22=311.48           C11-C3-C2-H1=251.96           
C11-C3-C2-N14= 12.34          C11-C3-C2-C22=132.63          C5-N4-C3-C2=180.80            C5-N4-C3-C11=359.80           
H30-N4-C3-C2=359.79           H30-N4-C3-C11=178.79          C6-C5-N4-C3=  0.03            C6-C5-N4-H30=181.04           
C10-C5-N4-C3=179.85           C10-C5-N4-H30=  0.86          C7-C6-C5-N4=179.78            C7-C6-C5-C10=359.94           
C11-C6-C5-N4=  0.14           C11-C6-C5-C10=180.30          C8-C7-C6-C5=  0.00            C8-C7-C6-C11=179.50           
H31-C7-C6-C5=179.97           H31-C7-C6-C11=359.48          C9-C8-C7-C6=  0.08            C9-C8-C7-H31=180.09           
H32-C8-C7-C6=180.09           H32-C8-C7-H31=  0.10          C10-C9-C8-C7=359.95           C10-C9-C8-H32=179.93          
H33-C9-C8-C7=179.99           H33-C9-C8-H32=359.98          C9-C10-C5-N4=180.28           C9-C10-C5-C6=  0.08           
H34-C10-C5-N4=  0.23          H34-C10-C5-C6=180.03          C5-C10-C9-C8=359.97           C5-C10-C9-H33=179.93          
H34-C10-C9-C8=180.03          H34-C10-C9-H33=  0.00         
           -------------------------------------------------
          |                Final Singlepoint                |
           -------------------------------------------------

          ...................................................
          :                      SETUP                      :
          :.................................................:
          :  # basis functions                 130          :
          :  # atomic orbitals                 130          :
          :  # shells                           78          :
          :  # electrons                       138          :
          :  max. iterations                   250          :
          :  Hamiltonian                  GFN2-xTB          :
          :  restarted?                      false          :
          :  GBSA solvation                  false          :
          :  PC potential                    false          :
          :  electronic temp.          300.0000000     K    :
          :  accuracy                    1.0000000          :
          :  -> integral cutoff          0.2500000E+02      :
          :  -> integral neglect         0.1000000E-07      :
          :  -> SCF convergence          0.1000000E-05 Eh   :
          :  -> wf. convergence          0.1000000E-03 e    :
          :  Broyden damping             0.4000000          :
          :  net charge                          0          :
          :  unpaired electrons                  0          :
          ...................................................

 iter      E             dE          RMSdq      gap      omega  full diag
   1    -77.3823909 -0.773824E+02  0.650E-05    3.18       0.0  T
   2    -77.3823909 -0.527223E-10  0.447E-05    3.18     310.1  T
   3    -77.3823909 -0.580229E-10  0.259E-05    3.18     534.4  T

   *** convergence criteria satisfied after 3 iterations ***

         #    Occupation            Energy/Eh            Energy/eV
      -------------------------------------------------------------
         1        2.0000           -0.7481807             -20.3590
       ...           ...                  ...                  ...
        63        2.0000           -0.4106474             -11.1743
        64        2.0000           -0.4066709             -11.0661
        65        2.0000           -0.4047779             -11.0146
        66        2.0000           -0.4039092             -10.9909
        67        2.0000           -0.3720699             -10.1245
        68        2.0000           -0.3528727              -9.6022
        69        2.0000           -0.3504805              -9.5371 (HOMO)
        70                         -0.2336863              -6.3589 (LUMO)
        71                         -0.2212384              -6.0202
        72                         -0.1895055              -5.1567
        73                         -0.1472813              -4.0077
        74                         -0.0621369              -1.6908
       ...                                ...                  ...
       130                          0.7310407              19.8926
      -------------------------------------------------------------
                  HL-Gap            0.1167942 Eh            3.1781 eV
             Fermi-level           -0.2920834 Eh           -7.9480 eV

 SCC (total)                   0 d,  0 h,  0 min,  0.053 sec
 SCC setup                      ...        0 min,  0.000 sec (  0.770%)
 Dispersion                     ...        0 min,  0.000 sec (  0.904%)
 classical contributions        ...        0 min,  0.000 sec (  0.390%)
 integral evaluation            ...        0 min,  0.010 sec ( 18.224%)
 iterations                     ...        0 min,  0.009 sec ( 17.024%)
 molecular gradient             ...        0 min,  0.033 sec ( 62.279%)
 printout                       ...        0 min,  0.000 sec (  0.396%)

         :::::::::::::::::::::::::::::::::::::::::::::::::::::
         ::                     SUMMARY                     ::
         :::::::::::::::::::::::::::::::::::::::::::::::::::::
         :: total energy             -76.361064812009 Eh    ::
         :: gradient norm              0.000461930512 Eh/a0 ::
         :: HOMO-LUMO gap              3.178133042479 eV    ::
         ::.................................................::
         :: SCC energy               -77.382156706617 Eh    ::
         :: -> isotropic ES            0.080277211440 Eh    ::
         :: -> anisotropic ES          0.009733908035 Eh    ::
         :: -> anisotropic XC          0.027206282582 Eh    ::
         :: -> dispersion             -0.058470532610 Eh    ::
         :: repulsion energy           1.021091894609 Eh    ::
         :: add. restraining           0.000000000000 Eh    ::
         :: total charge              -0.000000000000 e     ::
         :::::::::::::::::::::::::::::::::::::::::::::::::::::

           -------------------------------------------------
          |                Property Printout                |
           -------------------------------------------------

    * Orbital Energies and Occupations

         #    Occupation            Energy/Eh            Energy/eV
      -------------------------------------------------------------
         1        2.0000           -0.7481807             -20.3590
       ...           ...                  ...                  ...
        57        2.0000           -0.4418878             -12.0244
        58        2.0000           -0.4403176             -11.9817
        59        2.0000           -0.4346501             -11.8274
        60        2.0000           -0.4309396             -11.7265
        61        2.0000           -0.4261494             -11.5961
        62        2.0000           -0.4226576             -11.5011
        63        2.0000           -0.4106474             -11.1743
        64        2.0000           -0.4066709             -11.0661
        65        2.0000           -0.4047779             -11.0146
        66        2.0000           -0.4039092             -10.9909
        67        2.0000           -0.3720699             -10.1245
        68        2.0000           -0.3528727              -9.6022
        69        2.0000           -0.3504805              -9.5371 (HOMO)
        70                         -0.2336863              -6.3589 (LUMO)
        71                         -0.2212384              -6.0202
        72                         -0.1895055              -5.1567
        73                         -0.1472813              -4.0077
        74                         -0.0621369              -1.6908
        75                         -0.0007349              -0.0200
        76                          0.0050342               0.1370
        77                          0.0187026               0.5089
        78                          0.0317790               0.8648
        79                          0.0453005               1.2327
        80                          0.0514312               1.3995
       ...                                ...                  ...
       130                          0.7310407              19.8926
      -------------------------------------------------------------
                  HL-Gap            0.1167942 Eh            3.1781 eV
             Fermi-level           -0.2920834 Eh           -7.9480 eV

     #   Z          covCN         q      C6AA      α(0)
     1   1 H        0.921     0.008     2.921     2.673
     2   6 C        3.819     0.051    19.712     6.318
     3   6 C        3.091     0.028    27.278     8.561
     4   7 N        2.775    -0.119    23.581     7.212
     5   6 C        3.090     0.044    26.913     8.503
     6   6 C        3.108    -0.020    28.361     8.725
     7   6 C        2.911    -0.038    28.934     8.820
     8   6 C        2.920    -0.042    29.055     8.839
     9   6 C        2.924    -0.038    28.957     8.825
    10   6 C        2.908    -0.054    29.332     8.881
    11   6 C        3.071    -0.037    28.844     8.806
    12   6 C        3.808    -0.059    21.629     6.620
    13   6 C        3.763     0.013    20.392     6.437
    14   7 N        2.739    -0.181    24.911     7.413
    15   6 C        3.767     0.013    20.393     6.436
    16   6 C        3.863    -0.030    21.062     6.526
    17   6 C        3.806    -0.061    21.660     6.625
    18   6 C        3.804    -0.075    21.933     6.667
    19   6 C        3.731     0.117    18.755     6.182
    20   6 C        3.856    -0.064    21.681     6.622
    21   6 C        3.863    -0.015    20.805     6.486
    22   6 C        3.813    -0.064    21.719     6.633
    23   1 H        0.924     0.041     2.431     2.438
    24   6 C        2.730     0.362    20.860     7.477
    25   8 O        1.705    -0.260    18.315     5.778
    26   6 C        3.657     0.032    20.316     6.469
    27   8 O        0.856    -0.410    21.875     6.271
    28   8 O        1.656    -0.444    21.728     6.292
    29   1 H        0.924     0.046     2.369     2.407
    30   1 H        0.860     0.159     1.344     1.816
    31   1 H        0.926     0.025     2.652     2.546
    32   1 H        0.926     0.024     2.679     2.560
    33   1 H        0.926     0.025     2.662     2.551
    34   1 H        0.926     0.021     2.719     2.579
    35   1 H        0.924     0.046     2.367     2.406
    36   1 H        0.924     0.040     2.455     2.450
    37   1 H        0.922     0.006     2.951     2.686
    38   1 H        0.924     0.031     2.575     2.510
    39   1 H        0.922     0.002     3.028     2.721
    40   1 H        0.924     0.033     2.538     2.491
    41   1 H        0.924     0.038     2.477     2.461
    42   1 H        0.924     0.033     2.549     2.497
    43   1 H        0.924     0.039     2.457     2.451
    44   1 H        0.924     0.051     2.302     2.373
    45   1 H        0.924     0.047     2.354     2.399
    46   1 H        0.924     0.055     2.257     2.349
    47   1 H        0.924     0.043     2.414     2.430
    48   1 H        0.925     0.039     2.456     2.451
    49   1 H        0.924     0.062     2.178     2.308
    50   1 H        0.925     0.070     2.084     2.258
    51   1 H        0.924     0.068     2.112     2.273
    52   1 H        0.805     0.298     0.727     1.339

 Mol. C6AA /au·bohr⁶  :      27236.914053
 Mol. C8AA /au·bohr⁸  :     629147.831640
 Mol. α(0) /au        :        250.852874


Wiberg/Mayer (AO) data.
largest (>0.10) Wiberg bond orders for each atom

 ---------------------------------------------------------------------------
     #   Z sym  total        # sym  WBO       # sym  WBO       # sym  WBO
 ---------------------------------------------------------------------------
     1   1 H    0.996 --     2 C    0.936
     2   6 C    3.987 --     3 C    1.002    14 N    0.993    22 C    0.981
                             1 H    0.936
     3   6 C    3.951 --    11 C    1.553     4 N    1.172     2 C    1.002
     4   7 N    3.525 --     3 C    1.172     5 C    1.170    30 H    0.944
     5   6 C    3.956 --    10 C    1.346     6 C    1.241     4 N    1.170
     6   6 C    3.984 --     7 C    1.333     5 C    1.241    11 C    1.208
     7   6 C    3.989 --     8 C    1.501     6 C    1.333    31 H    0.970
                            10 C    0.111
     8   6 C    3.991 --     7 C    1.501     9 C    1.375    32 H    0.972
     9   6 C    3.988 --    10 C    1.486     8 C    1.375    33 H    0.972
    10   6 C    3.987 --     9 C    1.486     5 C    1.346    34 H    0.969
                             7 C    0.111
    11   6 C    3.973 --     3 C    1.553     6 C    1.208    12 C    1.015
    12   6 C    3.997 --    11 C    1.015    13 C    0.999    36 H    0.970
                            35 H    0.963
    13   6 C    3.986 --    14 N    1.001    12 C    0.999    38 H    0.973
                            37 H    0.966
    14   7 N    3.125 --    15 C    1.008    13 C    1.001     2 C    0.993
    15   6 C    3.987 --    14 N    1.008    16 C    0.990    40 H    0.971
                            39 H    0.961
    16   6 C    3.994 --    17 C    0.997    15 C    0.990    21 C    0.986
                            29 H    0.964
    17   6 C    3.997 --    18 C    1.008    16 C    0.997    41 H    0.975
                            42 H    0.973
    18   6 C    3.996 --    17 C    1.008    19 C    0.983    43 H    0.976
                            44 H    0.973
    19   6 C    3.958 --    28 O    1.003    18 C    0.983    45 H    0.962
                            20 C    0.944
    20   6 C    3.992 --    21 C    0.984    46 H    0.956    24 C    0.956
                            19 C    0.944
    21   6 C    3.993 --    22 C    0.995    16 C    0.986    20 C    0.984
                            23 H    0.960
    22   6 C    3.994 --    21 C    0.995     2 C    0.981    47 H    0.976
                            48 H    0.972
    23   1 H    0.998 --    21 C    0.960
    24   6 C    3.914 --    27 O    1.754    25 O    1.135    20 C    0.956
    25   8 O    2.307 --    24 C    1.135    26 C    0.955    27 O    0.172
    26   6 C    3.924 --    50 H    0.982    49 H    0.977    51 H    0.977
                            25 O    0.955
    27   8 O    2.037 --    24 C    1.754    25 O    0.172
    28   8 O    1.971 --    19 C    1.003    52 H    0.887
    29   1 H    0.998 --    16 C    0.964
    30   1 H    0.974 --     4 N    0.944
    31   1 H    0.999 --     7 C    0.970
    32   1 H    0.999 --     8 C    0.972
    33   1 H    0.999 --     9 C    0.972
    34   1 H    0.999 --    10 C    0.969
    35   1 H    0.998 --    12 C    0.963
    36   1 H    0.998 --    12 C    0.970
    37   1 H    1.000 --    13 C    0.966
    38   1 H    0.998 --    13 C    0.973
    39   1 H    1.000 --    15 C    0.961
    40   1 H    0.998 --    15 C    0.971
    41   1 H    0.998 --    17 C    0.975
    42   1 H    0.999 --    17 C    0.973
    43   1 H    0.998 --    18 C    0.976
    44   1 H    0.996 --    18 C    0.973
    45   1 H    0.997 --    19 C    0.962
    46   1 H    0.997 --    20 C    0.956
    47   1 H    0.998 --    22 C    0.976
    48   1 H    0.998 --    22 C    0.972
    49   1 H    0.996 --    26 C    0.977
    50   1 H    0.995 --    26 C    0.982
    51   1 H    0.995 --    26 C    0.977
    52   1 H    0.911 --    28 O    0.887
 ---------------------------------------------------------------------------

Topologies differ in total number of bonds
Writing topology from bond orders to xtbtopo.mol

molecular dipole:
                 x           y           z       tot (Debye)
 q only:        0.614      -0.071      -0.656
   full:        0.721      -0.109      -0.330       2.034
molecular quadrupole (traceless):
                xx          xy          yy          xz          yz          zz
 q only:      -11.281       3.497      14.511      -6.957       0.814      -3.230
  q+dip:      -16.423       1.884      18.539      -7.580       0.571      -2.116
   full:      -16.440       2.214      18.511      -8.168      -0.618      -2.072

           -------------------------------------------------
          |                Geometry Summary                 |
           -------------------------------------------------

      molecular mass/u    :      354.4435346
   center of mass at/Å    :       -0.1419785       0.1813824       0.1604735
  moments of inertia/u·Å² :        0.1347606E+04   0.4484089E+04   0.5614951E+04
rotational constants/cm⁻¹ :        0.1250932E-01   0.3759433E-02   0.3002276E-02

 * 54 selected distances

     #   Z          #   Z                                           value/Å
     1   1 H        2   6 C                                       1.1141549
     2   6 C        3   6 C                                       1.4914264
     3   6 C        4   7 N                                       1.3721704
     4   7 N        5   6 C                                       1.3672106
     5   6 C        6   6 C                                       1.4186609
     6   6 C        7   6 C                                       1.3942759
     7   6 C        8   6 C                                       1.3767657
     8   6 C        9   6 C                                       1.3972474
     5   6 C       10   6 C                                       1.3878284
     9   6 C       10   6 C                                       1.3789669
     3   6 C       11   6 C                                       1.3639026
     6   6 C       11   6 C                                       1.4250537
    11   6 C       12   6 C                                       1.4902341
    12   6 C       13   6 C                                       1.5303936
     2   6 C       14   7 N                                       1.4570332
    13   6 C       14   7 N                                       1.4527379
    14   7 N       15   6 C                                       1.4468296
    15   6 C       16   6 C                                       1.5297920
    16   6 C       17   6 C                                       1.5261878
    17   6 C       18   6 C                                       1.5263052
    18   6 C       19   6 C                                       1.5339700 (max)
    16   6 C       21   6 C                                       1.5292101
    20   6 C       21   6 C                                       1.5318381
     2   6 C       22   6 C                                       1.5324899
    21   6 C       22   6 C                                       1.5275453
    21   6 C       23   1 H                                       1.0970200
    24   6 C       25   8 O                                       1.3352876
    25   8 O       26   6 C                                       1.4218348
    24   6 C       27   8 O                                       1.2028869
    19   6 C       28   8 O                                       1.4045505
    16   6 C       29   1 H                                       1.0948839
     4   7 N       30   1 H                                       1.0052610
     7   6 C       31   1 H                                       1.0799102
     8   6 C       32   1 H                                       1.0804210
     9   6 C       33   1 H                                       1.0801522
    10   6 C       34   1 H                                       1.0804559
    12   6 C       35   1 H                                       1.0936739
    12   6 C       36   1 H                                       1.0919086
    13   6 C       37   1 H                                       1.1049389
    13   6 C       38   1 H                                       1.0925399
    15   6 C       39   1 H                                       1.1077408
    15   6 C       40   1 H                                       1.0931169
    17   6 C       41   1 H                                       1.0917341
    17   6 C       42   1 H                                       1.0934175
    18   6 C       43   1 H                                       1.0909671
    18   6 C       44   1 H                                       1.0914272
    19   6 C       45   1 H                                       1.0962378
    20   6 C       46   1 H                                       1.0931374
    22   6 C       47   1 H                                       1.0915688
    22   6 C       48   1 H                                       1.0899609
    26   6 C       49   1 H                                       1.0920211
    26   6 C       50   1 H                                       1.0867018
    26   6 C       51   1 H                                       1.0914916
    28   8 O       52   1 H                                       0.9641985 (min)

 * 6 distinct bonds (by element types)

   Z      Z             #   av. dist./Å        max./Å        min./Å
   1 H    6 C          24     1.0924826     1.1141549     1.0799102
   6 C    6 C          19     1.4680050     1.5339700     1.3639026
   1 H    7 N           1     1.0052610     1.0052610     1.0052610
   6 C    7 N           5     1.4191963     1.4570332     1.3672106
   1 H    8 O           1     0.9641985     0.9641985     0.9641985
   6 C    8 O           4     1.3411400     1.4218348     1.2028869


optimized geometry written to: xtbopt.xyz


           -------------------------------------------------
          | TOTAL ENERGY              -76.361064812009 Eh   |
          | GRADIENT NORM               0.000461930512 Eh/α |
          | HOMO-LUMO GAP               3.178133042479 eV   |
           -------------------------------------------------

------------------------------------------------------------------------
 * finished run on 2025/05/15 at 16:38:22.110     
------------------------------------------------------------------------
 total:
 * wall-time:     0 d,  0 h,  0 min,  1.073 sec
 *  cpu-time:     0 d,  0 h,  0 min,  1.064 sec
 * ratio c/w:     0.992 speedup
 SCF:
 * wall-time:     0 d,  0 h,  0 min,  0.080 sec
 *  cpu-time:     0 d,  0 h,  0 min,  0.079 sec
 * ratio c/w:     0.996 speedup
 ANC optimizer:
 * wall-time:     0 d,  0 h,  0 min,  0.978 sec
 *  cpu-time:     0 d,  0 h,  0 min,  0.970 sec
 * ratio c/w:     0.992 speedup



----- Single-point -----
      -----------------------------------------------------------      
     |                   =====================                   |     
     |                           x T B                           |     
     |                   =====================                   |     
     |                         S. Grimme                         |     
     |          Mulliken Center for Theoretical Chemistry        |     
     |                    University of Bonn                     |     
      -----------------------------------------------------------      

   * xtb version 6.7.1 (edcfbbe) compiled by 'conda@3ef47c1a292c' on 2024-11-25

   xtb is free software: you can redistribute it and/or modify it under
   the terms of the GNU Lesser General Public License as published by
   the Free Software Foundation, either version 3 of the License, or
   (at your option) any later version.
   
   xtb is distributed in the hope that it will be useful,
   but WITHOUT ANY WARRANTY; without even the implied warranty of
   MERCHANTABILITY or FITNESS FOR A PARTICULAR PURPOSE.  See the
   GNU Lesser General Public License for more details.
   
   Cite this work as:
   * C. Bannwarth, E. Caldeweyher, S. Ehlert, A. Hansen, P. Pracht,
     J. Seibert, S. Spicher, S. Grimme, WIREs Comput. Mol. Sci., 2020, 11,
     e01493. DOI: 10.1002/wcms.1493
   
   for GFN2-xTB:
   * C. Bannwarth, S. Ehlert and S. Grimme., J. Chem. Theory Comput., 2019,
     15, 1652-1671. DOI: 10.1021/acs.jctc.8b01176
   for GFN1-xTB:
   * S. Grimme, C. Bannwarth, P. Shushkov, J. Chem. Theory Comput., 2017,
     13, 1989-2009. DOI: 10.1021/acs.jctc.7b00118
   for GFN0-xTB:
   * P. Pracht, E. Caldeweyher, S. Ehlert, S. Grimme, ChemRxiv, 2019, preprint.
     DOI: 10.26434/chemrxiv.8326202.v1
   for GFN-FF:
   * S. Spicher and S. Grimme, Angew. Chem. Int. Ed., 2020, 59, 15665-15673.
     DOI: 10.1002/anie.202004239
   
   for ALPB and GBSA implicit solvation:
   * S. Ehlert, M. Stahn, S. Spicher, S. Grimme, J. Chem. Theory Comput.,
     2021, 17, 4250-4261. DOI: 10.1021/acs.jctc.1c00471
   
   for ddCOSMO and CPCM-X implicit solvation:
   * M. Stahn, S. Ehlert, S. Grimme, J. Phys. Chem. A,
     2023, XX, XXXX-XXXX. DOI: 10.1021/acs.jpca.3c04382
   
   for DFT-D4:
   * E. Caldeweyher, C. Bannwarth and S. Grimme, J. Chem. Phys., 2017,
     147, 034112. DOI: 10.1063/1.4993215
   * E. Caldeweyher, S. Ehlert, A. Hansen, H. Neugebauer, S. Spicher,
     C. Bannwarth and S. Grimme, J. Chem. Phys., 2019, 150, 154122.
     DOI: 10.1063/1.5090222
   * E. Caldeweyher, J.-M. Mewes, S. Ehlert and S. Grimme, Phys. Chem. Chem. Phys.
     2020, 22, 8499-8512. DOI: 10.1039/D0CP00502A
   
   for sTDA-xTB:
   * S. Grimme and C. Bannwarth, J. Chem. Phys., 2016, 145, 054103.
     DOI: 10.1063/1.4959605
   
   in the mass-spec context:
   * V. Asgeirsson, C. Bauer and S. Grimme, Chem. Sci., 2017, 8, 4879.
     DOI: 10.1039/c7sc00601b
   * J. Koopman and S. Grimme, ACS Omega 2019, 4, 12, 15120-15133.
     DOI: 10.1021/acsomega.9b02011
   
   for metadynamics refer to:
   * S. Grimme, J. Chem. Theory Comput., 2019, 155, 2847-2862
     DOI: 10.1021/acs.jctc.9b00143
   
   for SPH calculations refer to:
   * S. Spicher and S. Grimme, J. Chem. Theory Comput., 2021, 17, 1701-1714
     DOI: 10.1021/acs.jctc.0c01306
   
   for ONIOM refer to:
   * C. Plett, A. Katbashev, S. Ehlert, S. Grimme, M. Bursch,
     Phys. Chem. Chem. Phys., 2023, 25, 17860-17868. DOI: 10.1039/D3CP02178E
   
   for DIPRO refer to:
   * J. Kohn, N. Gildemeister, S. Grimme, D. Fazzi, A. Hansen,
     J. Chem. Phys., 2023, just accepted.
   
   for PTB refer to:
   * S. Grimme, M. Mueller, A. Hansen, J. Chem. Phys., 2023, 158, 124111.
     DOI: 10.1063/5.0137838
   
   with help from (in alphabetical order)
   P. Atkinson, C. Bannwarth, F. Bohle, G. Brandenburg, E. Caldeweyher
   M. Checinski, S. Dohm, S. Ehlert, S. Ehrlich, I. Gerasimov, C. Hölzer
   A. Katbashev, J. Kohn, J. Koopman, C. Lavigne, S. Lehtola, F. März, M. Müller,
   F. Musil, H. Neugebauer, J. Pisarek, C. Plett, P. Pracht, F. Pultar,
   J. Seibert, P. Shushkov, S. Spicher, M. Stahn, M. Steiner, T. Strunk,
   J. Stückrath, T. Rose, and J. Unsleber
   
 * started run on 2025/05/15 at 16:38:22.121     
   ID    Z sym.   atoms
    1    1 H      1, 23, 29-52
    2    6 C      2, 3, 5-13, 15-22, 24, 26
    3    7 N      4, 14
    4    8 O      25, 27, 28

           -------------------------------------------------
          |                Calculation Setup                |
           -------------------------------------------------

          program call               : xtb /rds/general/user/hgt20/home/callum/QDESCP/Yohimbine_rdkit_conf_6/Yohimbine_rdkit_conf_6.xyz --acc 1 --gfn 2 --chrg 0 --uhf 0 --etemp 300 --input /rds/general/user/hgt20/home/callum/QDESCP/Yohimbine_rdkit_conf_6/Yohimbine_rdkit_conf_6_xtb.inp -P 1
          hostname                   : login-c
          coordinate file            : /rds/general/user/hgt20/home/callum/QDESCP/Yohimbine_rdkit_conf_6/Yohimbine_rdkit_conf_6.xyz
          omp threads                :                     1


           -------------------------------------------------
          |                 G F N 2 - x T B                 |
           -------------------------------------------------

        Reference                      10.1021/acs.jctc.8b01176
      * Hamiltonian:
        H0-scaling (s, p, d)           1.850000    2.230000    2.230000
        zeta-weighting                 0.500000
      * Dispersion:
        s8                             2.700000
        a1                             0.520000
        a2                             5.000000
        s9                             5.000000
      * Repulsion:
        kExp                           1.500000    1.000000
        rExp                           1.000000
      * Coulomb:
        alpha                          2.000000
        third order                    shell-resolved
        anisotropic                    true
        a3                             3.000000
        a5                             4.000000
        cn-shift                       1.200000
        cn-exp                         4.000000
        max-rad                        5.000000

q/qsh data taken from xtbrestart
CAMM data taken from xtbrestart

          ...................................................
          :                      SETUP                      :
          :.................................................:
          :  # basis functions                 130          :
          :  # atomic orbitals                 130          :
          :  # shells                           78          :
          :  # electrons                       138          :
          :  max. iterations                   250          :
          :  Hamiltonian                  GFN2-xTB          :
          :  restarted?                       true          :
          :  GBSA solvation                  false          :
          :  PC potential                    false          :
          :  electronic temp.          300.0000000     K    :
          :  accuracy                    1.0000000          :
          :  -> integral cutoff          0.2500000E+02      :
          :  -> integral neglect         0.1000000E-07      :
          :  -> SCF convergence          0.1000000E-05 Eh   :
          :  -> wf. convergence          0.1000000E-03 e    :
          :  Broyden damping             0.4000000          :
          :  net charge                          0          :
          :  unpaired electrons                  0          :
          ...................................................

 iter      E             dE          RMSdq      gap      omega  full diag
   1    -77.3823909 -0.773824E+02  0.775E-06    3.18       0.0  T
   2    -77.3823909 -0.767386E-12  0.586E-06    3.18    2367.6  T
   3    -77.3823909 -0.164846E-11  0.184E-06    3.18    7557.1  T

   *** convergence criteria satisfied after 3 iterations ***

         #    Occupation            Energy/Eh            Energy/eV
      -------------------------------------------------------------
         1        2.0000           -0.7481808             -20.3590
       ...           ...                  ...                  ...
        63        2.0000           -0.4106474             -11.1743
        64        2.0000           -0.4066709             -11.0661
        65        2.0000           -0.4047778             -11.0146
        66        2.0000           -0.4039092             -10.9909
        67        2.0000           -0.3720700             -10.1245
        68        2.0000           -0.3528727              -9.6022
        69        2.0000           -0.3504805              -9.5371 (HOMO)
        70                         -0.2336864              -6.3589 (LUMO)
        71                         -0.2212383              -6.0202
        72                         -0.1895055              -5.1567
        73                         -0.1472813              -4.0077
        74                         -0.0621368              -1.6908
       ...                                ...                  ...
       130                          0.7310408              19.8926
      -------------------------------------------------------------
                  HL-Gap            0.1167941 Eh            3.1781 eV
             Fermi-level           -0.2920834 Eh           -7.9480 eV

 SCC (total)                   0 d,  0 h,  0 min,  0.057 sec
 SCC setup                      ...        0 min,  0.000 sec (  0.785%)
 Dispersion                     ...        0 min,  0.001 sec (  1.091%)
 classical contributions        ...        0 min,  0.000 sec (  0.369%)
 integral evaluation            ...        0 min,  0.010 sec ( 17.373%)
 iterations                     ...        0 min,  0.010 sec ( 17.218%)
 molecular gradient             ...        0 min,  0.036 sec ( 62.685%)
 printout                       ...        0 min,  0.000 sec (  0.467%)

         :::::::::::::::::::::::::::::::::::::::::::::::::::::
         ::                     SUMMARY                     ::
         :::::::::::::::::::::::::::::::::::::::::::::::::::::
         :: total energy             -76.361064812014 Eh    ::
         :: gradient norm              0.000461996417 Eh/a0 ::
         :: HOMO-LUMO gap              3.178130537931 eV    ::
         ::.................................................::
         :: SCC energy               -77.382156706623 Eh    ::
         :: -> isotropic ES            0.080277111668 Eh    ::
         :: -> anisotropic ES          0.009733919266 Eh    ::
         :: -> anisotropic XC          0.027206288873 Eh    ::
         :: -> dispersion             -0.058470532263 Eh    ::
         :: repulsion energy           1.021091894609 Eh    ::
         :: add. restraining           0.000000000000 Eh    ::
         :: total charge               0.000000000000 e     ::
         :::::::::::::::::::::::::::::::::::::::::::::::::::::

           -------------------------------------------------
          |                Property Printout                |
           -------------------------------------------------

    * Orbital Energies and Occupations

         #    Occupation            Energy/Eh            Energy/eV
      -------------------------------------------------------------
         1        2.0000           -0.7481808             -20.3590
       ...           ...                  ...                  ...
        57        2.0000           -0.4418878             -12.0244
        58        2.0000           -0.4403175             -11.9817
        59        2.0000           -0.4346502             -11.8274
        60        2.0000           -0.4309396             -11.7265
        61        2.0000           -0.4261494             -11.5961
        62        2.0000           -0.4226576             -11.5011
        63        2.0000           -0.4106474             -11.1743
        64        2.0000           -0.4066709             -11.0661
        65        2.0000           -0.4047778             -11.0146
        66        2.0000           -0.4039092             -10.9909
        67        2.0000           -0.3720700             -10.1245
        68        2.0000           -0.3528727              -9.6022
        69        2.0000           -0.3504805              -9.5371 (HOMO)
        70                         -0.2336864              -6.3589 (LUMO)
        71                         -0.2212383              -6.0202
        72                         -0.1895055              -5.1567
        73                         -0.1472813              -4.0077
        74                         -0.0621368              -1.6908
        75                         -0.0007349              -0.0200
        76                          0.0050341               0.1370
        77                          0.0187026               0.5089
        78                          0.0317790               0.8648
        79                          0.0453006               1.2327
        80                          0.0514312               1.3995
       ...                                ...                  ...
       130                          0.7310408              19.8926
      -------------------------------------------------------------
                  HL-Gap            0.1167941 Eh            3.1781 eV
             Fermi-level           -0.2920834 Eh           -7.9480 eV

     #   Z          covCN         q      C6AA      α(0)
     1   1 H        0.921     0.008     2.921     2.673
     2   6 C        3.819     0.051    19.712     6.318
     3   6 C        3.091     0.028    27.278     8.561
     4   7 N        2.775    -0.119    23.581     7.212
     5   6 C        3.090     0.044    26.913     8.503
     6   6 C        3.108    -0.020    28.361     8.725
     7   6 C        2.911    -0.038    28.934     8.820
     8   6 C        2.920    -0.042    29.055     8.839
     9   6 C        2.924    -0.038    28.957     8.825
    10   6 C        2.908    -0.054    29.332     8.881
    11   6 C        3.071    -0.037    28.844     8.806
    12   6 C        3.808    -0.059    21.629     6.620
    13   6 C        3.763     0.013    20.392     6.437
    14   7 N        2.739    -0.181    24.911     7.413
    15   6 C        3.767     0.013    20.393     6.436
    16   6 C        3.863    -0.030    21.062     6.526
    17   6 C        3.806    -0.061    21.660     6.625
    18   6 C        3.804    -0.075    21.933     6.667
    19   6 C        3.731     0.117    18.755     6.182
    20   6 C        3.856    -0.064    21.681     6.622
    21   6 C        3.863    -0.015    20.805     6.486
    22   6 C        3.813    -0.064    21.719     6.633
    23   1 H        0.924     0.041     2.431     2.438
    24   6 C        2.730     0.362    20.860     7.477
    25   8 O        1.705    -0.260    18.315     5.778
    26   6 C        3.657     0.032    20.316     6.469
    27   8 O        0.856    -0.410    21.875     6.271
    28   8 O        1.656    -0.444    21.728     6.292
    29   1 H        0.924     0.046     2.369     2.407
    30   1 H        0.860     0.159     1.344     1.816
    31   1 H        0.926     0.025     2.652     2.546
    32   1 H        0.926     0.024     2.679     2.560
    33   1 H        0.926     0.025     2.662     2.551
    34   1 H        0.926     0.021     2.719     2.579
    35   1 H        0.924     0.046     2.367     2.406
    36   1 H        0.924     0.040     2.455     2.450
    37   1 H        0.922     0.006     2.951     2.686
    38   1 H        0.924     0.031     2.575     2.510
    39   1 H        0.922     0.002     3.028     2.721
    40   1 H        0.924     0.033     2.538     2.491
    41   1 H        0.924     0.038     2.477     2.461
    42   1 H        0.924     0.033     2.549     2.497
    43   1 H        0.924     0.039     2.457     2.451
    44   1 H        0.924     0.051     2.302     2.373
    45   1 H        0.924     0.047     2.354     2.399
    46   1 H        0.924     0.055     2.257     2.349
    47   1 H        0.924     0.043     2.414     2.430
    48   1 H        0.925     0.039     2.456     2.451
    49   1 H        0.924     0.062     2.178     2.308
    50   1 H        0.925     0.070     2.084     2.258
    51   1 H        0.924     0.068     2.112     2.273
    52   1 H        0.805     0.298     0.727     1.339

 Mol. C6AA /au·bohr⁶  :      27236.914004
 Mol. C8AA /au·bohr⁸  :     629147.827577
 Mol. α(0) /au        :        250.852874


Wiberg/Mayer (AO) data.
largest (>0.10) Wiberg bond orders for each atom

 ---------------------------------------------------------------------------
     #   Z sym  total        # sym  WBO       # sym  WBO       # sym  WBO
 ---------------------------------------------------------------------------
     1   1 H    0.996 --     2 C    0.936
     2   6 C    3.987 --     3 C    1.002    14 N    0.993    22 C    0.981
                             1 H    0.936
     3   6 C    3.951 --    11 C    1.553     4 N    1.172     2 C    1.002
     4   7 N    3.525 --     3 C    1.172     5 C    1.170    30 H    0.944
     5   6 C    3.956 --    10 C    1.346     6 C    1.241     4 N    1.170
     6   6 C    3.984 --     7 C    1.333     5 C    1.241    11 C    1.208
     7   6 C    3.989 --     8 C    1.501     6 C    1.333    31 H    0.970
                            10 C    0.111
     8   6 C    3.991 --     7 C    1.501     9 C    1.375    32 H    0.972
     9   6 C    3.988 --    10 C    1.486     8 C    1.375    33 H    0.972
    10   6 C    3.987 --     9 C    1.486     5 C    1.346    34 H    0.969
                             7 C    0.111
    11   6 C    3.973 --     3 C    1.553     6 C    1.208    12 C    1.015
    12   6 C    3.997 --    11 C    1.015    13 C    0.999    36 H    0.970
                            35 H    0.963
    13   6 C    3.986 --    14 N    1.001    12 C    0.999    38 H    0.973
                            37 H    0.966
    14   7 N    3.125 --    15 C    1.008    13 C    1.001     2 C    0.993
    15   6 C    3.987 --    14 N    1.008    16 C    0.990    40 H    0.971
                            39 H    0.961
    16   6 C    3.994 --    17 C    0.997    15 C    0.990    21 C    0.986
                            29 H    0.964
    17   6 C    3.997 --    18 C    1.008    16 C    0.997    41 H    0.975
                            42 H    0.973
    18   6 C    3.996 --    17 C    1.008    19 C    0.983    43 H    0.976
                            44 H    0.973
[...]
   
   for DIPRO refer to:
   * J. Kohn, N. Gildemeister, S. Grimme, D. Fazzi, A. Hansen,
     J. Chem. Phys., 2023, just accepted.
   
   for PTB refer to:
   * S. Grimme, M. Mueller, A. Hansen, J. Chem. Phys., 2023, 158, 124111.
     DOI: 10.1063/5.0137838
   
   with help from (in alphabetical order)
   P. Atkinson, C. Bannwarth, F. Bohle, G. Brandenburg, E. Caldeweyher
   M. Checinski, S. Dohm, S. Ehlert, S. Ehrlich, I. Gerasimov, C. Hölzer
   A. Katbashev, J. Kohn, J. Koopman, C. Lavigne, S. Lehtola, F. März, M. Müller,
   F. Musil, H. Neugebauer, J. Pisarek, C. Plett, P. Pracht, F. Pultar,
   J. Seibert, P. Shushkov, S. Spicher, M. Stahn, M. Steiner, T. Strunk,
   J. Stückrath, T. Rose, and J. Unsleber
   
 * started run on 2025/05/15 at 16:38:23.902     
   ID    Z sym.   atoms
    1    1 H      1, 23, 29-52
    2    6 C      2, 3, 5-13, 15-22, 24, 26
    3    7 N      4, 14
    4    8 O      25, 27, 28

           -------------------------------------------------
          |                Calculation Setup                |
           -------------------------------------------------

          program call               : xtb /rds/general/user/hgt20/home/callum/QDESCP/Yohimbine_rdkit_conf_6/Yohimbine_rdkit_conf_6.xyz --acc 1 --gfn 2 --chrg 0 --uhf 2 --etemp 300 --input /rds/general/user/hgt20/home/callum/QDESCP/Yohimbine_rdkit_conf_6/Yohimbine_rdkit_conf_6_xtb.inp -P 1
          hostname                   : login-c
          coordinate file            : /rds/general/user/hgt20/home/callum/QDESCP/Yohimbine_rdkit_conf_6/Yohimbine_rdkit_conf_6.xyz
          omp threads                :                     1


           -------------------------------------------------
          |                 G F N 2 - x T B                 |
           -------------------------------------------------

        Reference                      10.1021/acs.jctc.8b01176
      * Hamiltonian:
        H0-scaling (s, p, d)           1.850000    2.230000    2.230000
        zeta-weighting                 0.500000
      * Dispersion:
        s8                             2.700000
        a1                             0.520000
        a2                             5.000000
        s9                             5.000000
      * Repulsion:
        kExp                           1.500000    1.000000
        rExp                           1.000000
      * Coulomb:
        alpha                          2.000000
        third order                    shell-resolved
        anisotropic                    true
        a3                             3.000000
        a5                             4.000000
        cn-shift                       1.200000
        cn-exp                         4.000000
        max-rad                        5.000000


          ...................................................
          :                      SETUP                      :
          :.................................................:
          :  # basis functions                 130          :
          :  # atomic orbitals                 130          :
          :  # shells                           78          :
          :  # electrons                       138          :
          :  max. iterations                   250          :
          :  Hamiltonian                  GFN2-xTB          :
          :  restarted?                      false          :
          :  GBSA solvation                  false          :
          :  PC potential                    false          :
          :  electronic temp.          300.0000000     K    :
          :  accuracy                    1.0000000          :
          :  -> integral cutoff          0.2500000E+02      :
          :  -> integral neglect         0.1000000E-07      :
          :  -> SCF convergence          0.1000000E-05 Eh   :
          :  -> wf. convergence          0.1000000E-03 e    :
          :  Broyden damping             0.4000000          :
          :  net charge                          0          :
          :  unpaired electrons                  2          :
          ...................................................

 iter      E             dE          RMSdq      gap      omega  full diag
   1    -77.0366525 -0.770367E+02  0.358E+00    0.98       0.0  T
   2    -76.8866195  0.150033E+00  0.311E+00    0.90       1.0  T
   3    -76.8590035  0.276159E-01  0.208E+00    0.93       1.0  T
   4    -76.9860661 -0.127063E+00  0.194E+00    1.13       1.0  T
   5    -77.1269851 -0.140919E+00  0.148E+00    0.51       1.0  T
   6    -77.2350492 -0.108064E+00  0.799E-01    0.24       1.0  T
   7    -77.2420625 -0.701337E-02  0.649E-01    0.25       1.0  T
   8    -77.2413591  0.703475E-03  0.550E-01    0.28       1.0  T
   9    -77.1586115  0.827476E-01  0.104E+00    0.31       1.0  T
  10    -77.2466344 -0.880229E-01  0.283E-01    0.22       1.0  T
  11    -77.2494493 -0.281487E-02  0.386E-02    0.12       1.0  T
  12    -77.2491573  0.291944E-03  0.697E-02    0.10       1.0  T
  13    -77.2494356 -0.278284E-03  0.375E-02    0.13       1.0  T
  14    -77.2493554  0.802022E-04  0.436E-02    0.11       1.0  T
  15    -77.2495043 -0.148882E-03  0.188E-02    0.13       1.0  T
  16    -77.2495229 -0.186479E-04  0.884E-03    0.12       1.6  T
  17    -77.2495252 -0.230599E-05  0.631E-03    0.12       2.2  T
  18    -77.2495267 -0.149829E-05  0.422E-03    0.12       3.3  T
  19    -77.2495275 -0.750080E-06  0.264E-03    0.12       5.3  T
  20    -77.2495279 -0.383102E-06  0.118E-03    0.12      11.7  T
  21    -77.2495279 -0.747448E-07  0.445E-04    0.12      31.1  T
  22    -77.2495279 -0.109574E-07  0.179E-04    0.12      77.3  T

   *** convergence criteria satisfied after 22 iterations ***

         #    Occupation            Energy/Eh            Energy/eV
      -------------------------------------------------------------
         1        2.0000           -0.7342234             -19.9792
       ...           ...                  ...                  ...
        64        2.0000           -0.4084667             -11.1149
        65        2.0000           -0.4081346             -11.1059
        66        2.0000           -0.3979310             -10.8283
        67        2.0000           -0.3748218             -10.1994
        68        1.9696           -0.3653476              -9.9416
        69        1.0304           -0.3587699              -9.7626
        70        0.9105           -0.2223296              -6.0499 (HOMO)
        71        0.0895           -0.2179214              -5.9299 (LUMO)
        72                         -0.1908007              -5.1920
        73                         -0.1558056              -4.2397
        74                         -0.0627896              -1.7086
        75                         -0.0045615              -0.1241
       ...                                ...                  ...
       130                          0.7274791              19.7957
      -------------------------------------------------------------
                  HL-Gap            0.0044082 Eh            0.1200 eV
             Fermi-level           -0.2910921 Eh           -7.9210 eV

 transition dipole moment (au) for excitation:          69          70
     X       Y       Z   
   1.5322   0.4859   0.6742  total (au/Debye):    1.743   4.431
 dE (eV)             :    3.713
 oscillator strength :  0.39084E+00

 SCC (total)                   0 d,  0 h,  0 min,  0.119 sec
 SCC setup                      ...        0 min,  0.000 sec (  0.387%)
 Dispersion                     ...        0 min,  0.001 sec (  0.523%)
 classical contributions        ...        0 min,  0.000 sec (  0.188%)
 integral evaluation            ...        0 min,  0.010 sec (  8.421%)
 iterations                     ...        0 min,  0.063 sec ( 53.040%)
 molecular gradient             ...        0 min,  0.036 sec ( 30.132%)
 printout                       ...        0 min,  0.009 sec (  7.304%)

         :::::::::::::::::::::::::::::::::::::::::::::::::::::
         ::                     SUMMARY                     ::
         :::::::::::::::::::::::::::::::::::::::::::::::::::::
         :: total energy             -76.228201841959 Eh    ::
         :: gradient norm              0.155326271873 Eh/a0 ::
         :: HOMO-LUMO gap              0.119953528548 eV    ::
         ::.................................................::
         :: SCC energy               -77.249293736568 Eh    ::
         :: -> isotropic ES            0.082917561615 Eh    ::
         :: -> anisotropic ES          0.008850465653 Eh    ::
         :: -> anisotropic XC          0.025978394044 Eh    ::
         :: -> dispersion             -0.058328111347 Eh    ::
         :: repulsion energy           1.021091894609 Eh    ::
         :: add. restraining           0.000000000000 Eh    ::
         :: total charge              -0.000000000000 e     ::
         :::::::::::::::::::::::::::::::::::::::::::::::::::::

           -------------------------------------------------
          |                Property Printout                |
           -------------------------------------------------

    * Orbital Energies and Occupations

         #    Occupation            Energy/Eh            Energy/eV
      -------------------------------------------------------------
         1        2.0000           -0.7342234             -19.9792
       ...           ...                  ...                  ...
        58        2.0000           -0.4406274             -11.9901
        59        2.0000           -0.4367508             -11.8846
        60        2.0000           -0.4327104             -11.7746
        61        2.0000           -0.4247259             -11.5574
        62        2.0000           -0.4183576             -11.3841
        63        2.0000           -0.4125057             -11.2249
        64        2.0000           -0.4084667             -11.1149
        65        2.0000           -0.4081346             -11.1059
        66        2.0000           -0.3979310             -10.8283
        67        2.0000           -0.3748218             -10.1994
        68        1.9696           -0.3653476              -9.9416
        69        1.0304           -0.3587699              -9.7626
        70        0.9105           -0.2223296              -6.0499 (HOMO)
        71        0.0895           -0.2179214              -5.9299 (LUMO)
        72                         -0.1908007              -5.1920
        73                         -0.1558056              -4.2397
        74                         -0.0627896              -1.7086
        75                         -0.0045615              -0.1241
        76                          0.0075403               0.2052
        77                          0.0102421               0.2787
        78                          0.0309935               0.8434
        79                          0.0468412               1.2746
        80                          0.0507959               1.3822
        81                          0.0564695               1.5366
       ...                                ...                  ...
       130                          0.7274791              19.7957
      -------------------------------------------------------------
                  HL-Gap            0.0044082 Eh            0.1200 eV
             Fermi-level           -0.2910921 Eh           -7.9210 eV

     #   Z          covCN         q      C6AA      α(0)
     1   1 H        0.921     0.021     2.717     2.578
     2   6 C        3.819     0.049    19.746     6.324
     3   6 C        3.091     0.014    27.606     8.612
     4   7 N        2.775    -0.105    23.295     7.168
     5   6 C        3.090     0.048    26.830     8.490
     6   6 C        3.108    -0.031    28.617     8.765
     7   6 C        2.911    -0.047    29.175     8.857
     8   6 C        2.920    -0.042    29.045     8.838
     9   6 C        2.924    -0.038    28.936     8.821
    10   6 C        2.908    -0.068    29.695     8.935
    11   6 C        3.071    -0.005    28.064     8.686
    12   6 C        3.808    -0.061    21.673     6.627
    13   6 C        3.763     0.011    20.427     6.443
    14   7 N        2.739    -0.165    24.563     7.361
    15   6 C        3.767     0.010    20.444     6.444
    16   6 C        3.863    -0.030    21.062     6.526
    17   6 C        3.806    -0.060    21.648     6.623
    18   6 C        3.804    -0.075    21.934     6.667
    19   6 C        3.731     0.116    18.775     6.185
    20   6 C        3.856    -0.063    21.674     6.621
    21   6 C        3.863    -0.015    20.808     6.487
    22   6 C        3.813    -0.065    21.737     6.636
    23   1 H        0.924     0.042     2.421     2.433
    24   6 C        2.730     0.347    21.098     7.520
    25   8 O        1.705    -0.272    18.514     5.809
    26   6 C        3.657     0.036    20.260     6.460
    27   8 O        0.856    -0.434    22.364     6.340
    28   8 O        1.656    -0.443    21.705     6.289
    29   1 H        0.924     0.046     2.370     2.407
    30   1 H        0.860     0.166     1.296     1.783
    31   1 H        0.926     0.018     2.761     2.598
    32   1 H        0.926     0.022     2.708     2.573
    33   1 H        0.926     0.022     2.698     2.569
    34   1 H        0.926     0.015     2.808     2.620
    35   1 H        0.924     0.063     2.165     2.301
    36   1 H        0.924     0.053     2.288     2.366
    37   1 H        0.922     0.013     2.842     2.636
    38   1 H        0.924     0.036     2.496     2.471
    39   1 H        0.922     0.007     2.940     2.681
    40   1 H        0.924     0.035     2.511     2.478
    41   1 H        0.924     0.036     2.497     2.471
    42   1 H        0.924     0.033     2.550     2.497
    43   1 H        0.924     0.038     2.470     2.458
    44   1 H        0.924     0.050     2.314     2.379
    45   1 H        0.924     0.048     2.350     2.397
    46   1 H        0.924     0.050     2.323     2.384
    47   1 H        0.924     0.045     2.389     2.417
    48   1 H        0.925     0.045     2.377     2.411
    49   1 H        0.924     0.058     2.224     2.332
    50   1 H        0.925     0.065     2.139     2.287
    51   1 H        0.924     0.064     2.151     2.293
    52   1 H        0.805     0.296     0.733     1.344

 Mol. C6AA /au·bohr⁶  :      27207.508917
 Mol. C8AA /au·bohr⁸  :     628851.172259
 Mol. α(0) /au        :        250.704715


Wiberg/Mayer (AO) data.
largest (>0.10) Wiberg bond orders for each atom

 ---------------------------------------------------------------------------
     #   Z sym  total        # sym  WBO       # sym  WBO       # sym  WBO
 ---------------------------------------------------------------------------
     1   1 H    0.978 --     2 C    0.921
     2   6 C    3.983 --     3 C    1.015    14 N    0.993    22 C    0.972
                             1 H    0.921
     3   6 C    3.788 --     4 N    1.234    11 C    1.205     2 C    1.015
                            10 C    0.109
     4   7 N    3.534 --     3 C    1.234     5 C    1.124    30 H    0.941
     5   6 C    3.950 --    10 C    1.395     6 C    1.238     4 N    1.124
     6   6 C    3.961 --    11 C    1.329     5 C    1.238     7 C    1.174
     7   6 C    3.793 --     8 C    1.351     6 C    1.174    31 H    0.970
     8   6 C    3.981 --     9 C    1.500     7 C    1.351    32 H    0.972
     9   6 C    3.885 --     8 C    1.500    10 C    1.186    33 H    0.972
    10   6 C    3.828 --     5 C    1.395     9 C    1.186    34 H    0.969
                             3 C    0.109
    11   6 C    3.881 --     6 C    1.329     3 C    1.205    12 C    1.032
    12   6 C    3.994 --    11 C    1.032    13 C    0.998    36 H    0.962
                            35 H    0.946
    13   6 C    3.983 --    14 N    1.001    12 C    0.998    38 H    0.972
                            37 H    0.965
    14   7 N    3.130 --    15 C    1.006    13 C    1.001     2 C    0.993
    15   6 C    3.984 --    14 N    1.006    16 C    0.989    40 H    0.971
                            39 H    0.960
    16   6 C    3.993 --    17 C    0.997    15 C    0.989    21 C    0.986
                            29 H    0.964
    17   6 C    3.997 --    18 C    1.008    16 C    0.997    41 H    0.975
                            42 H    0.973
    18   6 C    3.995 --    17 C    1.008    19 C    0.983    43 H    0.976
                            44 H    0.974
    19   6 C    3.952 --    28 O    1.003    18 C    0.983    45 H    0.962
                            20 C    0.946
    20   6 C    3.992 --    21 C    0.985    46 H    0.958    24 C    0.953
                            19 C    0.946
    21   6 C    3.992 --    22 C    0.995    16 C    0.986    20 C    0.985
                            23 H    0.960
    22   6 C    3.984 --    21 C    0.995    47 H    0.975     2 C    0.972
                            48 H    0.971
    23   1 H    0.998 --    21 C    0.960
    24   6 C    3.831 --    27 O    1.706    25 O    1.110    20 C    0.953
    25   8 O    2.271 --    24 C    1.110    26 C    0.958    27 O    0.159
    26   6 C    3.928 --    50 H    0.982    49 H    0.978    51 H    0.978
                            25 O    0.958
    27   8 O    1.970 --    24 C    1.706    25 O    0.159
    28   8 O    1.972 --    19 C    1.003    52 H    0.889
    29   1 H    0.998 --    16 C    0.964
    30   1 H    0.972 --     4 N    0.941
    31   1 H    0.999 --     7 C    0.970
    32   1 H    0.999 --     8 C    0.972
    33   1 H    0.999 --     9 C    0.972
    34   1 H    0.999 --    10 C    0.969
    35   1 H    0.986 --    12 C    0.946
    36   1 H    0.993 --    12 C    0.962
    37   1 H    0.996 --    13 C    0.965
    38   1 H    0.998 --    13 C    0.972
    39   1 H    0.996 --    15 C    0.960
    40   1 H    0.998 --    15 C    0.971
    41   1 H    0.998 --    17 C    0.975
    42   1 H    0.999 --    17 C    0.973
    43   1 H    0.999 --    18 C    0.976
    44   1 H    0.996 --    18 C    0.974
    45   1 H    0.997 --    19 C    0.962
    46   1 H    0.996 --    20 C    0.958
    47   1 H    0.998 --    22 C    0.975
    48   1 H    0.997 --    22 C    0.971
    49   1 H    0.996 --    26 C    0.978
    50   1 H    0.995 --    26 C    0.982
    51   1 H    0.995 --    26 C    0.978
    52   1 H    0.912 --    28 O    0.889
 ---------------------------------------------------------------------------

Topologies differ in total number of bonds
Writing topology from bond orders to xtbtopo.mol

molecular dipole:
                 x           y           z       tot (Debye)
 q only:        0.242      -0.715      -0.777
   full:        0.344      -0.808      -0.487       2.554
molecular quadrupole (traceless):
                xx          xy          yy          xz          yz          zz
 q only:      -15.338       3.865      16.120      -7.265       0.252      -0.782
  q+dip:      -21.626       2.224      20.823      -8.251       0.077       0.804
   full:      -21.296       2.743      20.499      -8.673      -1.160       0.797


           -------------------------------------------------
          | TOTAL ENERGY              -76.228201841959 Eh   |
          | GRADIENT NORM               0.155326271873 Eh/α |
          | HOMO-LUMO GAP               0.119953528548 eV   |
           -------------------------------------------------

------------------------------------------------------------------------
 * finished run on 2025/05/15 at 16:38:24.037     
------------------------------------------------------------------------
 total:
 * wall-time:     0 d,  0 h,  0 min,  0.134 sec
 *  cpu-time:     0 d,  0 h,  0 min,  0.133 sec
 * ratio c/w:     0.989 speedup
 SCF:
 * wall-time:     0 d,  0 h,  0 min,  0.119 sec
 *  cpu-time:     0 d,  0 h,  0 min,  0.119 sec
 * ratio c/w:     0.996 speedup


