42
 energy: -62.295894397870 gnorm: 0.000737621790 xtb: 6.7.1 (edcfbbe)
C            3.21153924648303        2.19031348281140        1.06551043349429
C            3.50870356994336        1.31829564806314       -0.15613510368387
C            3.05986887158846       -0.09686497164316        0.07423081918475
C            3.93384623845774       -1.09742805426757        0.45194326520955
C            3.50455431516552       -2.40427709924733        0.70019765815691
C            2.18155323280658       -2.75990794377567        0.57956616079869
C            1.26646283724638       -1.77872267528131        0.19761921927904
C            1.71733283983113       -0.45670267538856       -0.04738738329616
N            0.63608120558271        0.30286225274769       -0.39328230071782
C           -0.47492120907763       -0.49522420273432       -0.39716731174460
C           -0.13925003263896       -1.76921988804371       -0.03206407079566
C           -1.16707385578281       -2.84631392783272        0.06430246221332
C           -2.52642580441652       -2.15369097984824        0.20526776636229
O           -2.73611624421967       -1.16612537658120       -0.78323007978475
C           -1.86048592629457       -0.03647302863183       -0.73646623339053
C           -2.35001523048783        0.99261153152613        0.30792170041145
C           -3.76563700908154        1.48577884289804        0.03417447690005
C           -1.93349758225885        0.52983508764546       -2.17541637206108
C           -1.45763106612480        1.94247705644239       -2.35949951992445
O           -2.21533354664405        2.59974282940477       -3.23920703203049
O           -0.50651850201613        2.46202407771139       -1.82987636475436
H            2.14549333635101        2.19626667752485        1.28089336174992
H            3.53650458724257        3.21390480024846        0.89194862777162
H            3.73296423113365        1.80311185800531        1.93814871977578
H            2.99677383926463        1.73283051589130       -1.02842783058334
H            4.58205844392326        1.33231012805264       -0.35579502656247
H            4.98399296337123       -0.86387635034144        0.55691464184924
H            4.23466923591106       -3.14545300329146        0.99184384200720
H            1.85470152026709       -3.77101683599517        0.77150578959179
H            0.64051239636258        1.26291500566164       -0.70315745140680
H           -1.15644870470803       -3.46361764842751       -0.83925088689809
H           -0.98660596929194       -3.49512232775774        0.92296033444442
H           -3.34745959233199       -2.86079728335981        0.06607805490535
H           -2.60698382580618       -1.71498353840527        1.20954056839308
H           -1.65113955010585        1.82941519375584        0.33028510581947
H           -2.31759332954458        0.51264430471376        1.28846161708860
H           -4.42977160684433        0.63801499115594       -0.11653952665890
H           -3.79951100235612        2.11492316622689       -0.85177334546274
H           -4.12750977690949        2.06777189024052        0.87869945607188
H           -2.96503243764809        0.45599211427668       -2.51884238552019
H           -1.32404758842076       -0.10931519309618       -2.82060761454780
H           -1.88270351792340        3.50089154894790       -3.38078824165438
