----- Optimization -----
      -----------------------------------------------------------      
     |                   =====================                   |     
     |                           x T B                           |     
     |                   =====================                   |     
     |                         S. Grimme                         |     
     |          Mulliken Center for Theoretical Chemistry        |     
     |                    University of Bonn                     |     
      -----------------------------------------------------------      

   * xtb version 6.7.1 (edcfbbe) compiled by 'conda@3ef47c1a292c' on 2024-11-25

   xtb is free software: you can redistribute it and/or modify it under
   the terms of the GNU Lesser General Public License as published by
   the Free Software Foundation, either version 3 of the License, or
   (at your option) any later version.
   
   xtb is distributed in the hope that it will be useful,
   but WITHOUT ANY WARRANTY; without even the implied warranty of
   MERCHANTABILITY or FITNESS FOR A PARTICULAR PURPOSE.  See the
   GNU Lesser General Public License for more details.
   
   Cite this work as:
   * C. Bannwarth, E. Caldeweyher, S. Ehlert, A. Hansen, P. Pracht,
     J. Seibert, S. Spicher, S. Grimme, WIREs Comput. Mol. Sci., 2020, 11,
     e01493. DOI: 10.1002/wcms.1493
   
   for GFN2-xTB:
   * C. Bannwarth, S. Ehlert and S. Grimme., J. Chem. Theory Comput., 2019,
     15, 1652-1671. DOI: 10.1021/acs.jctc.8b01176
   for GFN1-xTB:
   * S. Grimme, C. Bannwarth, P. Shushkov, J. Chem. Theory Comput., 2017,
     13, 1989-2009. DOI: 10.1021/acs.jctc.7b00118
   for GFN0-xTB:
   * P. Pracht, E. Caldeweyher, S. Ehlert, S. Grimme, ChemRxiv, 2019, preprint.
     DOI: 10.26434/chemrxiv.8326202.v1
   for GFN-FF:
   * S. Spicher and S. Grimme, Angew. Chem. Int. Ed., 2020, 59, 15665-15673.
     DOI: 10.1002/anie.202004239
   
   for ALPB and GBSA implicit solvation:
   * S. Ehlert, M. Stahn, S. Spicher, S. Grimme, J. Chem. Theory Comput.,
     2021, 17, 4250-4261. DOI: 10.1021/acs.jctc.1c00471
   
   for ddCOSMO and CPCM-X implicit solvation:
   * M. Stahn, S. Ehlert, S. Grimme, J. Phys. Chem. A,
     2023, XX, XXXX-XXXX. DOI: 10.1021/acs.jpca.3c04382
   
   for DFT-D4:
   * E. Caldeweyher, C. Bannwarth and S. Grimme, J. Chem. Phys., 2017,
     147, 034112. DOI: 10.1063/1.4993215
   * E. Caldeweyher, S. Ehlert, A. Hansen, H. Neugebauer, S. Spicher,
     C. Bannwarth and S. Grimme, J. Chem. Phys., 2019, 150, 154122.
     DOI: 10.1063/1.5090222
   * E. Caldeweyher, J.-M. Mewes, S. Ehlert and S. Grimme, Phys. Chem. Chem. Phys.
     2020, 22, 8499-8512. DOI: 10.1039/D0CP00502A
   
   for sTDA-xTB:
   * S. Grimme and C. Bannwarth, J. Chem. Phys., 2016, 145, 054103.
     DOI: 10.1063/1.4959605
   
   in the mass-spec context:
   * V. Asgeirsson, C. Bauer and S. Grimme, Chem. Sci., 2017, 8, 4879.
     DOI: 10.1039/c7sc00601b
   * J. Koopman and S. Grimme, ACS Omega 2019, 4, 12, 15120-15133.
     DOI: 10.1021/acsomega.9b02011
   
   for metadynamics refer to:
   * S. Grimme, J. Chem. Theory Comput., 2019, 155, 2847-2862
     DOI: 10.1021/acs.jctc.9b00143
   
   for SPH calculations refer to:
   * S. Spicher and S. Grimme, J. Chem. Theory Comput., 2021, 17, 1701-1714
     DOI: 10.1021/acs.jctc.0c01306
   
   for ONIOM refer to:
   * C. Plett, A. Katbashev, S. Ehlert, S. Grimme, M. Bursch,
     Phys. Chem. Chem. Phys., 2023, 25, 17860-17868. DOI: 10.1039/D3CP02178E
   
   for DIPRO refer to:
   * J. Kohn, N. Gildemeister, S. Grimme, D. Fazzi, A. Hansen,
     J. Chem. Phys., 2023, just accepted.
   
   for PTB refer to:
   * S. Grimme, M. Mueller, A. Hansen, J. Chem. Phys., 2023, 158, 124111.
     DOI: 10.1063/5.0137838
   
   with help from (in alphabetical order)
   P. Atkinson, C. Bannwarth, F. Bohle, G. Brandenburg, E. Caldeweyher
   M. Checinski, S. Dohm, S. Ehlert, S. Ehrlich, I. Gerasimov, C. Hölzer
   A. Katbashev, J. Kohn, J. Koopman, C. Lavigne, S. Lehtola, F. März, M. Müller,
   F. Musil, H. Neugebauer, J. Pisarek, C. Plett, P. Pracht, F. Pultar,
   J. Seibert, P. Shushkov, S. Spicher, M. Stahn, M. Steiner, T. Strunk,
   J. Stückrath, T. Rose, and J. Unsleber
   
 * started run on 2025/05/15 at 16:22:56.008     
   ID    Z sym.   atoms
    1    6 C      1-8, 10-13, 15-19
    2    7 N      9
    3    8 O      14, 20, 21
    4    1 H      22-42

           -------------------------------------------------
          |                Calculation Setup                |
           -------------------------------------------------

          program call               : xtb /rds/general/user/hgt20/home/callum/QDESCP/Etodolac_rdkit_conf_4/Etodolac_rdkit_conf_4.xyz --opt normal --acc 1 --gfn 2 --chrg 0 --uhf 0 -P 1
          hostname                   : login-c
          coordinate file            : /rds/general/user/hgt20/home/callum/QDESCP/Etodolac_rdkit_conf_4/Etodolac_rdkit_conf_4.xyz
          omp threads                :                     1


           -------------------------------------------------
          |                 G F N 2 - x T B                 |
           -------------------------------------------------

        Reference                      10.1021/acs.jctc.8b01176
      * Hamiltonian:
        H0-scaling (s, p, d)           1.850000    2.230000    2.230000
        zeta-weighting                 0.500000
      * Dispersion:
        s8                             2.700000
        a1                             0.520000
        a2                             5.000000
        s9                             5.000000
      * Repulsion:
        kExp                           1.500000    1.000000
        rExp                           1.000000
      * Coulomb:
        alpha                          2.000000
        third order                    shell-resolved
        anisotropic                    true
        a3                             3.000000
        a5                             4.000000
        cn-shift                       1.200000
        cn-exp                         4.000000
        max-rad                        5.000000


          ...................................................
          :                      SETUP                      :
          :.................................................:
          :  # basis functions                 105          :
          :  # atomic orbitals                 105          :
          :  # shells                           63          :
          :  # electrons                       112          :
          :  max. iterations                   250          :
          :  Hamiltonian                  GFN2-xTB          :
          :  restarted?                      false          :
          :  GBSA solvation                  false          :
          :  PC potential                    false          :
          :  electronic temp.          300.0000000     K    :
          :  accuracy                    1.0000000          :
          :  -> integral cutoff          0.2500000E+02      :
          :  -> integral neglect         0.1000000E-07      :
          :  -> SCF convergence          0.1000000E-05 Eh   :
          :  -> wf. convergence          0.1000000E-03 e    :
          :  Broyden damping             0.4000000          :
          :  net charge                          0          :
          :  unpaired electrons                  0          :
          ...................................................

 iter      E             dE          RMSdq      gap      omega  full diag
   1    -62.9650191 -0.629650E+02  0.379E+00    3.08       0.0  T
   2    -63.0855431 -0.120524E+00  0.221E+00    2.49       1.0  T
   3    -63.0910483 -0.550523E-02  0.121E+00    2.98       1.0  T
   4    -63.0967233 -0.567493E-02  0.524E-01    2.29       1.0  T
   5    -63.1056383 -0.891502E-02  0.122E-01    2.27       1.0  T
   6    -63.1059161 -0.277828E-03  0.588E-02    2.29       1.0  T
   7    -63.1059557 -0.396014E-04  0.259E-02    2.29       1.0  T
   8    -63.1059584 -0.271756E-05  0.117E-02    2.30       1.3  T
   9    -63.1059618 -0.334736E-05  0.304E-03    2.31       5.1  T
  10    -63.1059618 -0.464013E-07  0.148E-03    2.30      10.4  T
  11    -63.1059619 -0.261317E-07  0.631E-04    2.30      24.4  T
  12    -63.1059619 -0.510759E-08  0.274E-04    2.30      56.3  T

   *** convergence criteria satisfied after 12 iterations ***

         #    Occupation            Energy/Eh            Energy/eV
      -------------------------------------------------------------
         1        2.0000           -0.7618236             -20.7303
       ...           ...                  ...                  ...
        50        2.0000           -0.4254840             -11.5780
        51        2.0000           -0.4138241             -11.2607
        52        2.0000           -0.4040520             -10.9948
        53        2.0000           -0.3944835             -10.7344
        54        2.0000           -0.3927377             -10.6869
        55        2.0000           -0.3696011             -10.0574
        56        2.0000           -0.3451195              -9.3912 (HOMO)
        57                         -0.2604744              -7.0879 (LUMO)
        58                         -0.2233964              -6.0789
        59                         -0.1854408              -5.0461
        60                         -0.1510283              -4.1097
        61                         -0.0646854              -1.7602
       ...                                ...                  ...
       105                          0.7159215              19.4812
      -------------------------------------------------------------
                  HL-Gap            0.0846451 Eh            2.3033 eV
             Fermi-level           -0.3027969 Eh           -8.2395 eV

 SCC (total)                   0 d,  0 h,  0 min,  0.089 sec
 SCC setup                      ...        0 min,  0.000 sec (  0.397%)
 Dispersion                     ...        0 min,  0.000 sec (  0.498%)
 classical contributions        ...        0 min,  0.000 sec (  0.162%)
 integral evaluation            ...        0 min,  0.008 sec (  8.393%)
 iterations                     ...        0 min,  0.024 sec ( 26.339%)
 molecular gradient             ...        0 min,  0.057 sec ( 64.023%)
 printout                       ...        0 min,  0.000 sec (  0.179%)

         :::::::::::::::::::::::::::::::::::::::::::::::::::::
         ::                     SUMMARY                     ::
         :::::::::::::::::::::::::::::::::::::::::::::::::::::
         :: total energy             -62.286858326312 Eh    ::
         :: gradient norm              0.074573157935 Eh/a0 ::
         :: HOMO-LUMO gap              2.303310682356 eV    ::
         ::.................................................::
         :: SCC energy               -63.105395729361 Eh    ::
         :: -> isotropic ES            0.074986165625 Eh    ::
         :: -> anisotropic ES          0.008380013471 Eh    ::
         :: -> anisotropic XC          0.018753265934 Eh    ::
         :: -> dispersion             -0.044835466369 Eh    ::
         :: repulsion energy           0.818537403049 Eh    ::
         :: add. restraining           0.000000000000 Eh    ::
         :: total charge               0.000000000000 e     ::
         :::::::::::::::::::::::::::::::::::::::::::::::::::::

      ----------------------------------------------------------- 
     |                   =====================                   |
     |                        A N C O P T                        |
     |                   =====================                   |
     |               Approximate Normal Coordinate               |
     |                Rational Function Optimizer                |
      ----------------------------------------------------------- 
      ----------------------------------------------------------- 
     |                   =====================                   |
     |                        A N C O P T                        |
     |                   =====================                   |
     |               Approximate Normal Coordinate               |
     |                Rational Function Optimizer                |
      ----------------------------------------------------------- 

          ...................................................
          :                      SETUP                      :
          :.................................................:
          :   optimization level            normal          :
          :   max. optcycles                   200          :
          :   ANC micro-cycles                  20          :
          :   degrees of freedom               120          :
          :.................................................:
          :   RF solver                   davidson          :
          :   write xtbopt.log                true          :
          :   linear?                        false          :
          :   energy convergence         0.5000000E-05 Eh   :
          :   grad. convergence          0.1000000E-02 Eh/α :
          :   maxmium RF displ.          1.0000000          :
          :   Hlow (freq-cutoff)         0.1000000E-01      :
          :   Hmax (freq-cutoff)         5.0000000          :
          :   S6 in model hess.         20.0000000          :
          ...................................................

generating ANC from exact Hessian ...
Using Lindh-Hessian (1995)
 Shifting diagonal of input Hessian by    9.4586418330365046E-003
 Lowest  eigenvalues of input Hessian
    0.000000    0.000000    0.000000    0.000000    0.000000    0.000000
    0.010000    0.010328    0.011038    0.011266    0.011613    0.012845
    0.013905    0.014321    0.014746    0.015774    0.016062    0.018243
 Highest eigenvalues
    1.832410    1.924734    1.985085    2.024401    2.127572    2.266946


........................................................................
.............................. CYCLE    1 ..............................
........................................................................

 iter      E             dE          RMSdq      gap      omega  full diag
   1    -63.1059619 -0.631060E+02  0.129E-04    2.30       0.0  T
   2    -63.1059619 -0.138023E-09  0.832E-05    2.30     185.4  T
   3    -63.1059619 -0.859686E-10  0.535E-05    2.30     288.4  T
     SCC iter.                  ...        0 min,  0.006 sec
     gradient                   ...        0 min,  0.064 sec
 * total energy  :   -62.2868583 Eh     change       -0.9743317E-09 Eh
   gradient norm :     0.0745747 Eh/α   predicted     0.0000000E+00 (-100.00%)
   displ. norm   :     0.2898705 α      lambda       -0.9921899E-02
   maximum displ.:     0.0957148 α      in ANC's #23, #14, #29, ...

........................................................................
.............................. CYCLE    2 ..............................
........................................................................

 iter      E             dE          RMSdq      gap      omega  full diag
   1    -63.1375229 -0.631375E+02  0.203E-01    2.54       0.0  T
   2    -63.1376030 -0.800880E-04  0.121E-01    2.53       1.0  T
   3    -63.1375825  0.204673E-04  0.361E-02    2.55       1.0  T
   4    -63.1376103 -0.278270E-04  0.104E-02    2.54       1.5  T
   5    -63.1376138 -0.344717E-05  0.465E-03    2.54       3.3  T
   6    -63.1376143 -0.519165E-06  0.196E-03    2.54       7.9  T
   7    -63.1376143 -0.309459E-07  0.853E-04    2.54      18.1  T
   8    -63.1376143 -0.333024E-08  0.280E-04    2.54      55.1  T
     SCC iter.                  ...        0 min,  0.015 sec
     gradient                   ...        0 min,  0.058 sec
 * total energy  :   -62.2933571 Eh     change       -0.6498771E-02 Eh
   gradient norm :     0.0271541 Eh/α   predicted    -0.5379844E-02 ( -17.22%)
   displ. norm   :     0.2524773 α      lambda       -0.2510605E-02
   maximum displ.:     0.1200492 α      in ANC's #14, #11, #23, ...

........................................................................
.............................. CYCLE    3 ..............................
........................................................................

 iter      E             dE          RMSdq      gap      omega  full diag
   1    -63.1519583 -0.631520E+02  0.105E-01    2.63       0.0  T
   2    -63.1519854 -0.271482E-04  0.634E-02    2.61       1.0  T
   3    -63.1519724  0.130115E-04  0.245E-02    2.62       1.0  T
   4    -63.1519886 -0.162193E-04  0.800E-03    2.61       1.9  T
   5    -63.1519908 -0.215556E-05  0.251E-03    2.61       6.2  T
   6    -63.1519909 -0.126270E-06  0.102E-03    2.61      15.1  T
   7    -63.1519909 -0.634993E-08  0.506E-04    2.61      30.5  T
   8    -63.1519909 -0.115605E-08  0.177E-04    2.61      87.0  T
     SCC iter.                  ...        0 min,  0.015 sec
     gradient                   ...        0 min,  0.024 sec
 * total energy  :   -62.2948839 Eh     change       -0.1526832E-02 Eh
   gradient norm :     0.0090247 Eh/α   predicted    -0.1336548E-02 ( -12.46%)
   displ. norm   :     0.1756073 α      lambda       -0.5368930E-03
   maximum displ.:     0.0892363 α      in ANC's #11, #14, #9, ...

........................................................................
.............................. CYCLE    4 ..............................
........................................................................

 iter      E             dE          RMSdq      gap      omega  full diag
   1    -63.1535890 -0.631536E+02  0.493E-02    2.62       0.0  T
   2    -63.1535922 -0.326752E-05  0.299E-02    2.62       1.0  T
   3    -63.1535887  0.359367E-05  0.106E-02    2.62       1.5  T
   4    -63.1535930 -0.431114E-05  0.289E-03    2.62       5.3  T
   5    -63.1535932 -0.223613E-06  0.113E-03    2.62      13.6  T
   6    -63.1535932 -0.133167E-07  0.557E-04    2.62      27.7  T
   7    -63.1535932 -0.145389E-08  0.271E-04    2.62      57.0  T
     SCC iter.                  ...        0 min,  0.013 sec
     gradient                   ...        0 min,  0.048 sec
 * total energy  :   -62.2952489 Eh     change       -0.3649780E-03 Eh
   gradient norm :     0.0064324 Eh/α   predicted    -0.2767340E-03 ( -24.18%)
   displ. norm   :     0.1777869 α      lambda       -0.2956851E-03
   maximum displ.:     0.0926461 α      in ANC's #11, #9, #14, ...

........................................................................
.............................. CYCLE    5 ..............................
........................................................................

 iter      E             dE          RMSdq      gap      omega  full diag
   1    -63.1530633 -0.631531E+02  0.377E-02    2.63       0.0  T
   2    -63.1530642 -0.886446E-06  0.227E-02    2.62       1.0  T
   3    -63.1530633  0.973925E-06  0.587E-03    2.62       2.6  T
   4    -63.1530646 -0.130549E-05  0.166E-03    2.62       9.3  T
   5    -63.1530646 -0.419283E-07  0.932E-04    2.62      16.6  T
   6    -63.1530646 -0.675674E-08  0.371E-04    2.62      41.6  T
     SCC iter.                  ...        0 min,  0.011 sec
     gradient                   ...        0 min,  0.025 sec
 * total energy  :   -62.2954367 Eh     change       -0.1877728E-03 Eh
   gradient norm :     0.0049834 Eh/α   predicted    -0.1525169E-03 ( -18.78%)
   displ. norm   :     0.1319695 α      lambda       -0.1238315E-03
   maximum displ.:     0.0622005 α      in ANC's #11, #4, #9, ...

........................................................................
.............................. CYCLE    6 ..............................
........................................................................

 iter      E             dE          RMSdq      gap      omega  full diag
   1    -63.1524974 -0.631525E+02  0.249E-02    2.63       0.0  T
   2    -63.1524979 -0.474550E-06  0.149E-02    2.63       1.0  T
   3    -63.1524977  0.170020E-06  0.306E-03    2.63       5.0  T
   4    -63.1524980 -0.278637E-06  0.108E-03    2.63      14.3  T
   5    -63.1524980 -0.203455E-07  0.554E-04    2.63      27.9  T
   6    -63.1524980 -0.220467E-08  0.260E-04    2.63      59.4  T
     SCC iter.                  ...        0 min,  0.011 sec
     gradient                   ...        0 min,  0.024 sec
 * total energy  :   -62.2955219 Eh     change       -0.8518471E-04 Eh
   gradient norm :     0.0031907 Eh/α   predicted    -0.6301813E-04 ( -26.02%)
   displ. norm   :     0.1343108 α      lambda       -0.8392280E-04
   maximum displ.:     0.0672939 α      in ANC's #4, #1, #11, ...

........................................................................
.............................. CYCLE    7 ..............................
........................................................................

 iter      E             dE          RMSdq      gap      omega  full diag
   1    -63.1525761 -0.631526E+02  0.219E-02    2.64       0.0  T
   2    -63.1525767 -0.553616E-06  0.132E-02    2.64       1.2  T
   3    -63.1525762  0.471152E-06  0.409E-03    2.64       3.8  T
   4    -63.1525768 -0.581424E-06  0.118E-03    2.64      13.1  T
   5    -63.1525768 -0.332281E-07  0.493E-04    2.64      31.3  T
   6    -63.1525768 -0.153523E-08  0.263E-04    2.64      58.8  T
     SCC iter.                  ...        0 min,  0.011 sec
     gradient                   ...        0 min,  0.057 sec
 * total energy  :   -62.2955818 Eh     change       -0.5993633E-04 Eh
   gradient norm :     0.0024433 Eh/α   predicted    -0.4271902E-04 ( -28.73%)
   displ. norm   :     0.1419243 α      lambda       -0.6489463E-04
   maximum displ.:     0.0826603 α      in ANC's #4, #1, #3, ...

........................................................................
.............................. CYCLE    8 ..............................
........................................................................

 iter      E             dE          RMSdq      gap      omega  full diag
   1    -63.1528590 -0.631529E+02  0.245E-02    2.65       0.0  T
   2    -63.1528593 -0.272165E-06  0.145E-02    2.65       1.1  T
   3    -63.1528590  0.268058E-06  0.301E-03    2.65       5.1  T
   4    -63.1528593 -0.341773E-06  0.886E-04    2.65      17.4  T
   5    -63.1528594 -0.136926E-07  0.437E-04    2.65      35.3  T
     SCC iter.                  ...        0 min,  0.009 sec
     gradient                   ...        0 min,  0.024 sec
 * total energy  :   -62.2956320 Eh     change       -0.5019747E-04 Eh
   gradient norm :     0.0030260 Eh/α   predicted    -0.3310358E-04 ( -34.05%)
   displ. norm   :     0.1650713 α      lambda       -0.6828912E-04
   maximum displ.:     0.1010541 α      in ANC's #4, #1, #3, ...

........................................................................
.............................. CYCLE    9 ..............................
........................................................................

 iter      E             dE          RMSdq      gap      omega  full diag
   1    -63.1532219 -0.631532E+02  0.325E-02    2.65       0.0  T
   2    -63.1532220 -0.179784E-06  0.191E-02    2.65       1.0  T
   3    -63.1532221 -0.377555E-07  0.151E-03    2.65      10.2  T
   4    -63.1532221 -0.436356E-07  0.791E-04    2.65      19.5  T
   5    -63.1532221 -0.166935E-08  0.357E-04    2.65      43.3  T
     SCC iter.                  ...        0 min,  0.009 sec
     gradient                   ...        0 min,  0.024 sec
 * total energy  :   -62.2956872 Eh     change       -0.5516280E-04 Eh
   gradient norm :     0.0032027 Eh/α   predicted    -0.3507865E-04 ( -36.41%)
   displ. norm   :     0.2042466 α      lambda       -0.7652028E-04
   maximum displ.:     0.1284640 α      in ANC's #4, #1, #3, ...

........................................................................
.............................. CYCLE   10 ..............................
........................................................................

 iter      E             dE          RMSdq      gap      omega  full diag
   1    -63.1533629 -0.631534E+02  0.433E-02    2.65       0.0  T
   2    -63.1533633 -0.378415E-06  0.254E-02    2.65       1.0  T
   3    -63.1533631  0.177947E-06  0.308E-03    2.65       5.0  T
   4    -63.1533635 -0.344437E-06  0.124E-03    2.65      12.5  T
   5    -63.1533635 -0.141290E-07  0.656E-04    2.65      23.5  T
   6    -63.1533635 -0.235972E-08  0.228E-04    2.65      67.7  T
     SCC iter.                  ...        0 min,  0.011 sec
     gradient                   ...        0 min,  0.057 sec
 * total energy  :   -62.2957473 Eh     change       -0.6013931E-04 Eh
   gradient norm :     0.0027805 Eh/α   predicted    -0.3985681E-04 ( -33.73%)
   displ. norm   :     0.1924657 α      lambda       -0.6201016E-04
   maximum displ.:     0.1244281 α      in ANC's #4, #3, #1, ...

........................................................................
.............................. CYCLE   11 ..............................
........................................................................

 iter      E             dE          RMSdq      gap      omega  full diag
   1    -63.1533578 -0.631534E+02  0.420E-02    2.64       0.0  T
   2    -63.1533582 -0.484995E-06  0.247E-02    2.64       1.0  T
   3    -63.1533578  0.428661E-06  0.392E-03    2.64       3.9  T
   4    -63.1533584 -0.614146E-06  0.132E-03    2.64      11.7  T
   5    -63.1533585 -0.228545E-07  0.693E-04    2.64      22.3  T
   6    -63.1533585 -0.196457E-08  0.286E-04    2.64      54.0  T
     SCC iter.                  ...        0 min,  0.011 sec
     gradient                   ...        0 min,  0.025 sec
 * total energy  :   -62.2957950 Eh     change       -0.4769656E-04 Eh
   gradient norm :     0.0024762 Eh/α   predicted    -0.3215432E-04 ( -32.59%)
   displ. norm   :     0.1516662 α      lambda       -0.4368799E-04
   maximum displ.:     0.1004684 α      in ANC's #4, #3, #1, ...

........................................................................
.............................. CYCLE   12 ..............................
........................................................................

 iter      E             dE          RMSdq      gap      omega  full diag
   1    -63.1534090 -0.631534E+02  0.322E-02    2.64       0.0  T
   2    -63.1534094 -0.343322E-06  0.189E-02    2.64       1.0  T
   3    -63.1534093  0.122971E-06  0.254E-03    2.64       6.1  T
   4    -63.1534095 -0.219084E-06  0.106E-03    2.64      14.6  T
   5    -63.1534095 -0.194501E-07  0.566E-04    2.64      27.2  T
   6    -63.1534095 -0.223130E-08  0.217E-04    2.64      71.0  T
     SCC iter.                  ...        0 min,  0.045 sec
     gradient                   ...        0 min,  0.025 sec
 * total energy  :   -62.2958288 Eh     change       -0.3377297E-04 Eh
   gradient norm :     0.0022322 Eh/α   predicted    -0.2234772E-04 ( -33.83%)
   displ. norm   :     0.1307733 α      lambda       -0.3196346E-04
   maximum displ.:     0.0870586 α      in ANC's #4, #3, #1, ...

........................................................................
.............................. CYCLE   13 ..............................
........................................................................

 iter      E             dE          RMSdq      gap      omega  full diag
   1    -63.1533528 -0.631534E+02  0.265E-02    2.64       0.0  T
   2    -63.1533530 -0.226448E-06  0.155E-02    2.64       1.0  T
   3    -63.1533530  0.226557E-07  0.188E-03    2.64       8.2  T
   4    -63.1533531 -0.947752E-07  0.700E-04    2.64      22.1  T
   5    -63.1533531 -0.144787E-08  0.433E-04    2.64      35.7  T
     SCC iter.                  ...        0 min,  0.009 sec
     gradient                   ...        0 min,  0.063 sec
 * total energy  :   -62.2958528 Eh     change       -0.2406933E-04 Eh
   gradient norm :     0.0019273 Eh/α   predicted    -0.1625718E-04 ( -32.46%)
   displ. norm   :     0.1763993 α      lambda       -0.2110638E-04
   maximum displ.:     0.1152247 α      in ANC's #4, #3, #6, ...

........................................................................
.............................. CYCLE   14 ..............................
........................................................................

 iter      E             dE          RMSdq      gap      omega  full diag
   1    -63.1530878 -0.631531E+02  0.348E-02    2.64       0.0  T
   2    -63.1530882 -0.356931E-06  0.205E-02    2.64       1.0  T
   3    -63.1530876  0.551797E-06  0.442E-03    2.64       3.5  T
   4    -63.1530884 -0.719232E-06  0.109E-03    2.64      14.2  T
   5    -63.1530884 -0.135373E-07  0.622E-04    2.64      24.8  T
   6    -63.1530884 -0.119085E-08  0.225E-04    2.64      68.6  T
     SCC iter.                  ...        0 min,  0.011 sec
     gradient                   ...        0 min,  0.024 sec
 * total energy  :   -62.2958712 Eh     change       -0.1831796E-04 Eh
   gradient norm :     0.0015212 Eh/α   predicted    -0.1069957E-04 ( -41.59%)
   displ. norm   :     0.0472259 α      lambda       -0.6279294E-05
   maximum displ.:     0.0237449 α      in ANC's #4, #3, #2, ...

........................................................................
.............................. CYCLE   15 ..............................
........................................................................

 iter      E             dE          RMSdq      gap      omega  full diag
   1    -63.1533417 -0.631533E+02  0.887E-03    2.64       0.0  T
   2    -63.1533417 -0.781460E-07  0.528E-03    2.64       2.9  T
   3    -63.1533416  0.136485E-06  0.220E-03    2.64       7.0  T
   4    -63.1533418 -0.166547E-06  0.405E-04    2.64      38.1  T
   5    -63.1533418 -0.331811E-08  0.184E-04    2.64      83.8  T
     SCC iter.                  ...        0 min,  0.009 sec
     gradient                   ...        0 min,  0.040 sec
 * total energy  :   -62.2958785 Eh     change       -0.7366350E-05 Eh
   gradient norm :     0.0007327 Eh/α   predicted    -0.3147348E-05 ( -57.27%)
   displ. norm   :     0.0784840 α      lambda       -0.8198809E-05
   maximum displ.:     0.0357308 α      in ANC's #2, #3, #9, ...

........................................................................
.............................. CYCLE   16 ..............................
........................................................................

 iter      E             dE          RMSdq      gap      omega  full diag
   1    -63.1532842 -0.631533E+02  0.154E-02    2.64       0.0  T
   2    -63.1532843 -0.982461E-07  0.910E-03    2.64       1.7  T
   3    -63.1532841  0.192885E-06  0.249E-03    2.64       6.2  T
   4    -63.1532844 -0.234500E-06  0.519E-04    2.64      29.7  T
   5    -63.1532844 -0.311721E-08  0.274E-04    2.64      56.4  T
     SCC iter.                  ...        0 min,  0.009 sec
     gradient                   ...        0 min,  0.024 sec
 * total energy  :   -62.2958864 Eh     change       -0.7855168E-05 Eh
   gradient norm :     0.0008929 Eh/α   predicted    -0.4114328E-05 ( -47.62%)
   displ. norm   :     0.0507125 α      lambda       -0.4265923E-05
   maximum displ.:     0.0254541 α      in ANC's #9, #2, #15, ...

........................................................................
.............................. CYCLE   17 ..............................
........................................................................

 iter      E             dE          RMSdq      gap      omega  full diag
   1    -63.1536822 -0.631537E+02  0.806E-03    2.65       0.0  T
   2    -63.1536823 -0.474651E-07  0.485E-03    2.64       3.2  T
   3    -63.1536823  0.209669E-07  0.107E-03    2.64      14.4  T
   4    -63.1536823 -0.313170E-07  0.160E-04    2.64      96.4  T
   5    -63.1536823 -0.627622E-10  0.780E-05    2.64     197.7  T
     SCC iter.                  ...        0 min,  0.037 sec
     gradient                   ...        0 min,  0.025 sec
 * total energy  :   -62.2958905 Eh     change       -0.4136521E-05 Eh
   gradient norm :     0.0012461 Eh/α   predicted    -0.2137581E-05 ( -48.32%)
   displ. norm   :     0.0622913 α      lambda       -0.4017718E-05
   maximum displ.:     0.0317219 α      in ANC's #2, #9, #6, ...

........................................................................
.............................. CYCLE   18 ..............................
........................................................................

 iter      E             dE          RMSdq      gap      omega  full diag
   1    -63.1533855 -0.631534E+02  0.126E-02    2.64       0.0  T
   2    -63.1533856 -0.525902E-07  0.745E-03    2.64       2.1  T
   3    -63.1533855  0.486933E-07  0.136E-03    2.64      11.3  T
   4    -63.1533856 -0.659385E-07  0.389E-04    2.64      39.7  T
   5    -63.1533856 -0.188230E-08  0.223E-04    2.64      69.1  T
     SCC iter.                  ...        0 min,  0.011 sec
     gradient                   ...        0 min,  0.069 sec
 * total energy  :   -62.2958944 Eh     change       -0.3880979E-05 Eh
   gradient norm :     0.0007386 Eh/α   predicted    -0.2013662E-05 ( -48.11%)
   displ. norm   :     0.0332190 α      lambda       -0.2138631E-05
   maximum displ.:     0.0147209 α      in ANC's #5, #2, #1, ...

   *** GEOMETRY OPTIMIZATION CONVERGED AFTER 18 ITERATIONS ***

------------------------------------------------------------------------
 total energy gain   :        -0.0090361 Eh       -5.6702 kcal/mol
 total RMSD          :         0.2850083 a0        0.1508 Å
 total power (kW/mol):        -1.3180112 (step)  -19.8965 (real)
------------------------------------------------------------------------

 ANCopt (total)                0 d,  0 h,  0 min,  1.192 sec
 optimizer setup                ...        0 min,  0.000 sec (  0.007%)
 model hessian                  ...        0 min,  0.020 sec (  1.681%)
 ANC generation                 ...        0 min,  0.002 sec (  0.128%)
 coordinate transformation      ...        0 min,  0.000 sec (  0.010%)
 single point calculation       ...        0 min,  1.165 sec ( 97.710%)
 optimization log               ...        0 min,  0.004 sec (  0.299%)
 hessian update                 ...        0 min,  0.000 sec (  0.019%)
 rational function              ...        0 min,  0.001 sec (  0.098%)

================
 final structure:
================
42
 xtb: 6.7.1 (edcfbbe)
C            3.21153924648303        2.19031348281140        1.06551043349429
C            3.50870356994336        1.31829564806314       -0.15613510368387
C            3.05986887158846       -0.09686497164316        0.07423081918475
C            3.93384623845774       -1.09742805426757        0.45194326520955
C            3.50455431516552       -2.40427709924733        0.70019765815691
C            2.18155323280658       -2.75990794377567        0.57956616079869
C            1.26646283724638       -1.77872267528131        0.19761921927904
C            1.71733283983113       -0.45670267538856       -0.04738738329616
N            0.63608120558271        0.30286225274769       -0.39328230071782
C           -0.47492120907763       -0.49522420273432       -0.39716731174460
C           -0.13925003263896       -1.76921988804371       -0.03206407079566
C           -1.16707385578281       -2.84631392783272        0.06430246221332
C           -2.52642580441652       -2.15369097984824        0.20526776636229
O           -2.73611624421967       -1.16612537658120       -0.78323007978475
C           -1.86048592629457       -0.03647302863183       -0.73646623339053
C           -2.35001523048783        0.99261153152613        0.30792170041145
C           -3.76563700908154        1.48577884289804        0.03417447690005
C           -1.93349758225885        0.52983508764546       -2.17541637206108
C           -1.45763106612480        1.94247705644239       -2.35949951992445
O           -2.21533354664405        2.59974282940477       -3.23920703203049
O           -0.50651850201613        2.46202407771139       -1.82987636475436
H            2.14549333635101        2.19626667752485        1.28089336174992
H            3.53650458724257        3.21390480024846        0.89194862777162
H            3.73296423113365        1.80311185800531        1.93814871977578
H            2.99677383926463        1.73283051589130       -1.02842783058334
H            4.58205844392326        1.33231012805264       -0.35579502656247
H            4.98399296337123       -0.86387635034144        0.55691464184924
H            4.23466923591106       -3.14545300329146        0.99184384200720
H            1.85470152026709       -3.77101683599517        0.77150578959179
H            0.64051239636258        1.26291500566164       -0.70315745140680
H           -1.15644870470803       -3.46361764842751       -0.83925088689809
H           -0.98660596929194       -3.49512232775774        0.92296033444442
H           -3.34745959233199       -2.86079728335981        0.06607805490535
H           -2.60698382580618       -1.71498353840527        1.20954056839308
H           -1.65113955010585        1.82941519375584        0.33028510581947
H           -2.31759332954458        0.51264430471376        1.28846161708860
H           -4.42977160684433        0.63801499115594       -0.11653952665890
H           -3.79951100235612        2.11492316622689       -0.85177334546274
H           -4.12750977690949        2.06777189024052        0.87869945607188
H           -2.96503243764809        0.45599211427668       -2.51884238552019
H           -1.32404758842076       -0.10931519309618       -2.82060761454780
H           -1.88270351792340        3.50089154894790       -3.38078824165438

 Bond Distances (Angstroems)
 ---------------------------
C1-C2=1.5301         C1-H22=1.0876        C1-H23=1.0879        C1-H24=1.0878        C2-C1=1.5301         C2-C3=1.5024         
C2-H25=1.0931        C2-H26=1.0919        C3-C2=1.5024         C3-C4=1.3812         C3-C8=1.3952         C4-C3=1.3812         
C4-C5=1.3978         C4-H27=1.0809        C5-C4=1.3978         C5-C6=1.3753         C5-H28=1.0805        C6-C5=1.3753         
C6-C7=1.3950         C6-H29=1.0798        C7-C6=1.3950         C7-C8=1.4181         C7-C11=1.4244        C8-C3=1.3952         
C8-C7=1.4181         C8-N9=1.3659         N9-C8=1.3659         N9-C10=1.3679        N9-H30=1.0088        C10-N9=1.3679        
C10-C11=1.3671       C10-C15=1.4985       C11-C7=1.4244        C11-C10=1.3671       C11-C12=1.4919       C12-C11=1.4919       
C12-C13=1.5321       C12-H31=1.0943       C12-H32=1.0912       C13-C12=1.5321       C13-O14=1.4129       C13-H33=1.0925       
C13-H34=1.0989       O14-C13=1.4129       O14-C15=1.4300       C15-C10=1.4985       C15-O14=1.4300       C15-C16=1.5458       
C15-C18=1.5481       C16-C15=1.5458       C16-C17=1.5239       C16-H35=1.0905       C16-H36=1.0922       C17-C16=1.5239       
C17-H37=1.0874       C17-H38=1.0871       C17-H39=1.0876       C18-C15=1.5481       C18-C19=1.5020       C18-H40=1.0897       
C18-H41=1.0937       C19-C18=1.5020       C19-O20=1.3342       C19-O21=1.2063       O20-C19=1.3342       O20-H42=0.9710       
O21-C19=1.2063       H22-C1=1.0876        H23-C1=1.0879        H24-C1=1.0878        H25-C2=1.0931        H26-C2=1.0919        
H27-C4=1.0809        H28-C5=1.0805        H29-C6=1.0798        H30-N9=1.0088        H31-C12=1.0943       H32-C12=1.0912       
H33-C13=1.0925       H34-C13=1.0989       H35-C16=1.0905       H36-C16=1.0922       H37-C17=1.0874       H38-C17=1.0871       
H39-C17=1.0876       H40-C18=1.0897       H41-C18=1.0937       H42-O20=0.9710       
 C  H  Rav=1.0892 sigma=0.0048  Rmin=1.0798  Rmax=1.0989    19
 C  C  Rav=1.4605 sigma=0.0654  Rmin=1.3671  Rmax=1.5481    17
 N  H  Rav=1.0088 sigma=0.0000  Rmin=1.0088  Rmax=1.0088     1
 N  C  Rav=1.3669 sigma=0.0010  Rmin=1.3659  Rmax=1.3679     2
 O  H  Rav=0.9710 sigma=0.0000  Rmin=0.9710  Rmax=0.9710     1
 O  C  Rav=1.3458 sigma=0.0883  Rmin=1.2063  Rmax=1.4300     4

 selected bond angles (degree)
 --------------------
H22-C1-C2=110.59               H23-C1-C2=110.54               H23-C1-H22=108.62              H24-C1-C2=110.15               
H24-C1-H22=108.24              H24-C1-H23=108.65              C3-C2-C1=110.88                H25-C2-C1=109.27               
H25-C2-C3=109.86               H26-C2-C1=109.25               H26-C2-C3=109.50               H26-C2-H25=108.04              
C4-C3-C2=122.36                C8-C3-C2=121.13                C8-C3-C4=116.48                C5-C4-C3=122.11                
H27-C4-C3=119.00               H27-C4-C5=118.89               C6-C5-C4=121.44                H28-C5-C4=118.80               
H28-C5-C6=119.76               C7-C6-C5=118.24                H29-C6-C5=121.18               H29-C6-C7=120.58               
C8-C7-C6=119.63                C11-C7-C6=134.13               C11-C7-C8=106.24               C7-C8-C3=122.09                
N9-C8-C3=129.82                N9-C8-C7=108.09                C10-N9-C8=108.61               H30-N9-C8=127.12               
H30-N9-C10=123.91              C11-C10-N9=110.09              C15-C10-N9=124.96              C15-C10-C11=124.95             

 selected dihedral angles (degree)
 ---------------------------------
C3-C2-C1-H22=300.45           C3-C2-C1-H23=180.13           C3-C2-C1-H24= 60.05           H25-C2-C1-H22= 61.69          
H25-C2-C1-H23=301.36          H25-C2-C1-H24=181.28          H26-C2-C1-H22=179.69          H26-C2-C1-H23= 59.36          
H26-C2-C1-H24=299.28          C4-C3-C2-C1=260.76            C4-C3-C2-H25=139.88           C4-C3-C2-H26= 21.38           
C8-C3-C2-C1= 78.86            C8-C3-C2-H25=317.97           C8-C3-C2-H26=199.48           C5-C4-C3-C2=178.22            
C5-C4-C3-C8=  0.05            H27-C4-C3-C2=358.07           H27-C4-C3-C8=179.90           C6-C5-C4-C3=  0.00            
C6-C5-C4-H27=180.15           H28-C5-C4-C3=179.94           H28-C5-C4-H27=  0.09          C7-C6-C5-C4=  0.11            
C7-C6-C5-H28=180.17           H29-C6-C5-C4=179.94           H29-C6-C5-H28=  0.00          C8-C7-C6-C5=359.73            
C8-C7-C6-H29=179.90           C11-C7-C6-C5=179.61           C11-C7-C6-H29=359.78          C7-C8-C3-C2=181.59            
C7-C8-C3-C4=359.79            N9-C8-C3-C2=  1.50            N9-C8-C3-C4=179.70            C3-C8-C7-C6=  0.33            
C3-C8-C7-C11=180.42           N9-C8-C7-C6=180.40            N9-C8-C7-C11=  0.50           C10-N9-C8-C3=179.09           
C10-N9-C8-C7=359.00           H30-N9-C8-C3=  5.75           H30-N9-C8-C7=185.67           C11-C10-N9-C8=  1.14          
C11-C10-N9-H30=174.74         C15-C10-N9-C8=180.48          C15-C10-N9-H30=354.08         
           -------------------------------------------------
          |                Final Singlepoint                |
           -------------------------------------------------

          ...................................................
          :                      SETUP                      :
          :.................................................:
          :  # basis functions                 105          :
          :  # atomic orbitals                 105          :
          :  # shells                           63          :
          :  # electrons                       112          :
          :  max. iterations                   250          :
          :  Hamiltonian                  GFN2-xTB          :
          :  restarted?                      false          :
          :  GBSA solvation                  false          :
          :  PC potential                    false          :
          :  electronic temp.          300.0000000     K    :
          :  accuracy                    1.0000000          :
          :  -> integral cutoff          0.2500000E+02      :
          :  -> integral neglect         0.1000000E-07      :
          :  -> SCF convergence          0.1000000E-05 Eh   :
          :  -> wf. convergence          0.1000000E-03 e    :
          :  Broyden damping             0.4000000          :
          :  net charge                          0          :
          :  unpaired electrons                  0          :
          ...................................................

 iter      E             dE          RMSdq      gap      omega  full diag
   1    -63.1533856 -0.631534E+02  0.775E-05    2.64       0.0  T
   2    -63.1533856 -0.282370E-10  0.521E-05    2.64     296.2  T
   3    -63.1533856 -0.318821E-10  0.338E-05    2.64     456.7  T

   *** convergence criteria satisfied after 3 iterations ***

         #    Occupation            Energy/Eh            Energy/eV
      -------------------------------------------------------------
         1        2.0000           -0.7619747             -20.7344
       ...           ...                  ...                  ...
        50        2.0000           -0.4252656             -11.5721
        51        2.0000           -0.4140219             -11.2661
        52        2.0000           -0.4033537             -10.9758
        53        2.0000           -0.3969515             -10.8016
        54        2.0000           -0.3924707             -10.6797
        55        2.0000           -0.3673261              -9.9955
        56        2.0000           -0.3489962              -9.4967 (HOMO)
        57                         -0.2520100              -6.8575 (LUMO)
        58                         -0.2183436              -5.9414
        59                         -0.1857149              -5.0536
        60                         -0.1479862              -4.0269
        61                         -0.0613837              -1.6703
       ...                                ...                  ...
       105                          0.7300843              19.8666
      -------------------------------------------------------------
                  HL-Gap            0.0969863 Eh            2.6391 eV
             Fermi-level           -0.3005031 Eh           -8.1771 eV

 SCC (total)                   0 d,  0 h,  0 min,  0.038 sec
 SCC setup                      ...        0 min,  0.000 sec (  0.738%)
 Dispersion                     ...        0 min,  0.000 sec (  0.776%)
 classical contributions        ...        0 min,  0.000 sec (  0.373%)
 integral evaluation            ...        0 min,  0.007 sec ( 19.158%)
 iterations                     ...        0 min,  0.006 sec ( 14.656%)
 molecular gradient             ...        0 min,  0.024 sec ( 63.922%)
 printout                       ...        0 min,  0.000 sec (  0.357%)

         :::::::::::::::::::::::::::::::::::::::::::::::::::::
         ::                     SUMMARY                     ::
         :::::::::::::::::::::::::::::::::::::::::::::::::::::
         :: total energy             -62.295894397870 Eh    ::
         :: gradient norm              0.000737621790 Eh/a0 ::
         :: HOMO-LUMO gap              2.639130244842 eV    ::
         ::.................................................::
         :: SCC energy               -63.152790403928 Eh    ::
         :: -> isotropic ES            0.073549153409 Eh    ::
         :: -> anisotropic ES          0.006978423538 Eh    ::
         :: -> anisotropic XC          0.017324083161 Eh    ::
         :: -> dispersion             -0.045495499204 Eh    ::
         :: repulsion energy           0.856896006058 Eh    ::
         :: add. restraining           0.000000000000 Eh    ::
         :: total charge               0.000000000000 e     ::
         :::::::::::::::::::::::::::::::::::::::::::::::::::::

           -------------------------------------------------
          |                Property Printout                |
           -------------------------------------------------

    * Orbital Energies and Occupations

         #    Occupation            Energy/Eh            Energy/eV
      -------------------------------------------------------------
         1        2.0000           -0.7619747             -20.7344
       ...           ...                  ...                  ...
        44        2.0000           -0.4464676             -12.1490
        45        2.0000           -0.4430450             -12.0559
        46        2.0000           -0.4400754             -11.9751
        47        2.0000           -0.4380979             -11.9213
        48        2.0000           -0.4352055             -11.8425
        49        2.0000           -0.4308478             -11.7240
        50        2.0000           -0.4252656             -11.5721
        51        2.0000           -0.4140219             -11.2661
        52        2.0000           -0.4033537             -10.9758
        53        2.0000           -0.3969515             -10.8016
        54        2.0000           -0.3924707             -10.6797
        55        2.0000           -0.3673261              -9.9955
        56        2.0000           -0.3489962              -9.4967 (HOMO)
        57                         -0.2520100              -6.8575 (LUMO)
        58                         -0.2183436              -5.9414
        59                         -0.1857149              -5.0536
        60                         -0.1479862              -4.0269
        61                         -0.0613837              -1.6703
        62                         -0.0063540              -0.1729
        63                          0.0222158               0.6045
        64                          0.0439023               1.1946
        65                          0.0684886               1.8637
        66                          0.0829620               2.2575
        67                          0.0914880               2.4895
       ...                                ...                  ...
       105                          0.7300843              19.8666
      -------------------------------------------------------------
                  HL-Gap            0.0969863 Eh            2.6391 eV
             Fermi-level           -0.3005031 Eh           -8.1771 eV

     #   Z          covCN         q      C6AA      α(0)
     1   6 C        3.753    -0.098    22.436     6.754
     2   6 C        3.805    -0.057    21.589     6.615
     3   6 C        2.960    -0.010    28.258     8.719
     4   6 C        2.929    -0.048    29.198     8.862
     5   6 C        2.919    -0.044    29.096     8.845
     6   6 C        2.911    -0.042    29.053     8.838
     7   6 C        3.109    -0.024    28.453     8.739
     8   6 C        3.102     0.038    27.020     8.518
     9   7 N        2.774    -0.126    23.725     7.234
    10   6 C        3.095     0.013    27.619     8.613
    11   6 C        3.073    -0.039    28.880     8.811
    12   6 C        3.805    -0.064    21.725     6.635
    13   6 C        3.697     0.082    19.374     6.296
    14   8 O        1.700    -0.324    19.426     5.951
    15   6 C        3.790     0.143    18.294     6.091
    16   6 C        3.803    -0.064    21.735     6.637
    17   6 C        3.751    -0.104    22.545     6.771
    18   6 C        3.806    -0.099    22.385     6.735
    19   6 C        2.687     0.367    20.772     7.459
    20   8 O        1.660    -0.368    20.242     6.074
    21   8 O        0.856    -0.424    22.158     6.311
    22   1 H        0.925     0.035     2.518     2.482
    23   1 H        0.925     0.034     2.536     2.490
    24   1 H        0.925     0.036     2.509     2.477
    25   1 H        0.924     0.033     2.546     2.496
    26   1 H        0.924     0.035     2.522     2.483
    27   1 H        0.926     0.024     2.674     2.557
    28   1 H        0.926     0.022     2.700     2.569
    29   1 H        0.926     0.023     2.689     2.564
    30   1 H        0.860     0.192     1.150     1.680
    31   1 H        0.924     0.044     2.398     2.422
    32   1 H        0.924     0.039     2.467     2.456
    33   1 H        0.924     0.046     2.376     2.410
    34   1 H        0.923     0.021     2.725     2.581
    35   1 H        0.924     0.039     2.465     2.455
    36   1 H        0.924     0.038     2.471     2.458
    37   1 H        0.925     0.052     2.301     2.372
    38   1 H        0.925     0.033     2.539     2.492
    39   1 H        0.925     0.038     2.475     2.460
    40   1 H        0.925     0.093     1.848     2.126
    41   1 H        0.924     0.086     1.918     2.166
    42   1 H        0.804     0.333     0.631     1.248

 Mol. C6AA /au·bohr⁶  :      17926.003961
 Mol. C8AA /au·bohr⁸  :     415764.613963
 Mol. α(0) /au        :        204.956175


Wiberg/Mayer (AO) data.
largest (>0.10) Wiberg bond orders for each atom

 ---------------------------------------------------------------------------
     #   Z sym  total        # sym  WBO       # sym  WBO       # sym  WBO
 ---------------------------------------------------------------------------
     1   6 C    3.996 --     2 C    1.002    24 H    0.989    22 H    0.988
                            23 H    0.987
     2   6 C    3.997 --     3 C    1.010     1 C    1.002    26 H    0.976
                            25 H    0.971
     3   6 C    3.985 --     4 C    1.469     8 C    1.311     2 C    1.010
                             6 C    0.109
     4   6 C    3.987 --     3 C    1.469     5 C    1.370    27 H    0.970
     5   6 C    3.990 --     6 C    1.506     4 C    1.370    28 H    0.972
     6   6 C    3.988 --     5 C    1.506     7 C    1.324    29 H    0.970
                             3 C    0.109
     7   6 C    3.983 --     6 C    1.324     8 C    1.247    11 C    1.211
     8   6 C    3.956 --     3 C    1.311     7 C    1.247     9 N    1.180
     9   7 N    3.539 --    10 C    1.188     8 C    1.180    30 H    0.913
    10   6 C    3.952 --    11 C    1.541     9 N    1.188    15 C    0.988
    11   6 C    3.971 --    10 C    1.541     7 C    1.211    12 C    1.014
    12   6 C    3.997 --    11 C    1.014    13 C    0.993    32 H    0.970
                            31 H    0.964
    13   6 C    3.953 --    12 C    0.993    14 O    0.982    33 H    0.970
                            34 H    0.968
    14   8 O    2.075 --    13 C    0.982    15 C    0.961
    15   6 C    3.952 --    10 C    0.988    16 C    0.963    14 O    0.961
                            18 C    0.954
    16   6 C    3.993 --    17 C    1.019    35 H    0.974    36 H    0.973
                            15 C    0.963
    17   6 C    3.995 --    16 C    1.019    38 H    0.987    39 H    0.986
                            37 H    0.985
    18   6 C    3.986 --    19 C    0.990    40 H    0.962    15 C    0.954
                            41 H    0.938
    19   6 C    3.909 --    21 O    1.732    20 O    1.147    18 C    0.990
    20   8 O    2.213 --    19 C    1.147    42 H    0.863    21 O    0.169
    21   8 O    2.035 --    19 C    1.732    20 O    0.169
    22   1 H    0.999 --     1 C    0.988
    23   1 H    0.998 --     1 C    0.987
    24   1 H    0.999 --     1 C    0.989
    25   1 H    0.999 --     2 C    0.971
    26   1 H    0.998 --     2 C    0.976
    27   1 H    0.999 --     4 C    0.970
    28   1 H    0.999 --     5 C    0.972
    29   1 H    0.998 --     6 C    0.970
    30   1 H    0.963 --     9 N    0.913
    31   1 H    0.998 --    12 C    0.964
    32   1 H    0.998 --    12 C    0.970
    33   1 H    0.997 --    13 C    0.970
    34   1 H    1.000 --    13 C    0.968
    35   1 H    0.998 --    16 C    0.974
    36   1 H    0.999 --    16 C    0.973
    37   1 H    0.997 --    17 C    0.985
    38   1 H    0.999 --    17 C    0.987
    39   1 H    0.998 --    17 C    0.986
    40   1 H    0.991 --    18 C    0.962
    41   1 H    0.993 --    18 C    0.938
    42   1 H    0.889 --    20 O    0.863
 ---------------------------------------------------------------------------

Topologies differ in total number of bonds
Writing topology from bond orders to xtbtopo.mol

molecular dipole:
                 x           y           z       tot (Debye)
 q only:       -0.610       0.551      -0.336
   full:       -0.610       0.843      -0.395       2.829
molecular quadrupole (traceless):
                xx          xy          yy          xz          yz          zz
 q only:       -4.239      -0.424       2.140       0.743      -5.431       2.099
  q+dip:       -5.486      -0.503       5.516      -0.057      -8.450      -0.030
   full:       -6.758      -0.790       4.395      -1.002      -7.656       2.363

           -------------------------------------------------
          |                Geometry Summary                 |
           -------------------------------------------------

      molecular mass/u    :      287.3541840
   center of mass at/Å    :        0.0009123      -0.0677681      -0.4431693
  moments of inertia/u·Å² :        0.1098244E+04   0.2066342E+04   0.2790993E+04
rotational constants/cm⁻¹ :        0.1534962E-01   0.8158201E-02   0.6040012E-02

 * 40 selected distances

     #   Z          #   Z                                           value/Å
     1   6 C        2   6 C                                       1.5300784
     3   6 C        4   6 C                                       1.3811698
     4   6 C        5   6 C                                       1.3977756
     5   6 C        6   6 C                                       1.3752663
     6   6 C        7   6 C                                       1.3949906
     3   6 C        8   6 C                                       1.3952339
     7   6 C        8   6 C                                       1.4181147
     8   6 C        9   7 N                                       1.3659018
     9   7 N       10   6 C                                       1.3679488
     7   6 C       11   6 C                                       1.4243854
    10   6 C       11   6 C                                       1.3671287
    11   6 C       12   6 C                                       1.4919250
    12   6 C       13   6 C                                       1.5321344 (max)
    13   6 C       14   8 O                                       1.4129346
    10   6 C       15   6 C                                       1.4984547
    14   8 O       15   6 C                                       1.4300455
    16   6 C       17   6 C                                       1.5238560
    19   6 C       20   8 O                                       1.3341653
    19   6 C       21   8 O                                       1.2062525
     1   6 C       22   1 H                                       1.0876026
     1   6 C       23   1 H                                       1.0878720
     1   6 C       24   1 H                                       1.0877991
     2   6 C       25   1 H                                       1.0930718
     2   6 C       26   1 H                                       1.0918569
     4   6 C       27   1 H                                       1.0809134
     5   6 C       28   1 H                                       1.0804940
     6   6 C       29   1 H                                       1.0798214
     9   7 N       30   1 H                                       1.0088329
    12   6 C       31   1 H                                       1.0943426
    12   6 C       32   1 H                                       1.0912445
    13   6 C       33   1 H                                       1.0924604
    13   6 C       34   1 H                                       1.0988712
    16   6 C       35   1 H                                       1.0904898
    16   6 C       36   1 H                                       1.0921898
    17   6 C       37   1 H                                       1.0874251
    17   6 C       38   1 H                                       1.0871402
    17   6 C       39   1 H                                       1.0876077
    18   6 C       40   1 H                                       1.0897057
    18   6 C       41   1 H                                       1.0937158
    20   8 O       42   1 H                                       0.9709568 (min)

 * 6 distinct bonds (by element types)

   Z      Z             #   av. dist./Å        max./Å        min./Å
   1 H    6 C          19     1.0891907     1.0988712     1.0798214
   6 C    6 C          13     1.4408087     1.5321344     1.3671287
   1 H    7 N           1     1.0088329     1.0088329     1.0088329
   6 C    7 N           2     1.3669253     1.3679488     1.3659018
   1 H    8 O           1     0.9709568     0.9709568     0.9709568
   6 C    8 O           4     1.3458495     1.4300455     1.2062525


optimized geometry written to: xtbopt.xyz


           -------------------------------------------------
          | TOTAL ENERGY              -62.295894397870 Eh   |
          | GRADIENT NORM               0.000737621790 Eh/α |
          | HOMO-LUMO GAP               2.639130244842 eV   |
           -------------------------------------------------

------------------------------------------------------------------------
 * finished run on 2025/05/15 at 16:22:57.382     
------------------------------------------------------------------------
 total:
 * wall-time:     0 d,  0 h,  0 min,  1.374 sec
 *  cpu-time:     0 d,  0 h,  0 min,  0.905 sec
 * ratio c/w:     0.658 speedup
 SCF:
 * wall-time:     0 d,  0 h,  0 min,  0.090 sec
 *  cpu-time:     0 d,  0 h,  0 min,  0.056 sec
 * ratio c/w:     0.629 speedup
 ANC optimizer:
 * wall-time:     0 d,  0 h,  0 min,  1.232 sec
 *  cpu-time:     0 d,  0 h,  0 min,  0.837 sec
 * ratio c/w:     0.679 speedup



----- Single-point -----
      -----------------------------------------------------------      
     |                   =====================                   |     
     |                           x T B                           |     
     |                   =====================                   |     
     |                         S. Grimme                         |     
     |          Mulliken Center for Theoretical Chemistry        |     
     |                    University of Bonn                     |     
      -----------------------------------------------------------      

   * xtb version 6.7.1 (edcfbbe) compiled by 'conda@3ef47c1a292c' on 2024-11-25

   xtb is free software: you can redistribute it and/or modify it under
   the terms of the GNU Lesser General Public License as published by
   the Free Software Foundation, either version 3 of the License, or
   (at your option) any later version.
   
   xtb is distributed in the hope that it will be useful,
   but WITHOUT ANY WARRANTY; without even the implied warranty of
   MERCHANTABILITY or FITNESS FOR A PARTICULAR PURPOSE.  See the
   GNU Lesser General Public License for more details.
   
   Cite this work as:
   * C. Bannwarth, E. Caldeweyher, S. Ehlert, A. Hansen, P. Pracht,
     J. Seibert, S. Spicher, S. Grimme, WIREs Comput. Mol. Sci., 2020, 11,
     e01493. DOI: 10.1002/wcms.1493
   
   for GFN2-xTB:
   * C. Bannwarth, S. Ehlert and S. Grimme., J. Chem. Theory Comput., 2019,
     15, 1652-1671. DOI: 10.1021/acs.jctc.8b01176
   for GFN1-xTB:
   * S. Grimme, C. Bannwarth, P. Shushkov, J. Chem. Theory Comput., 2017,
     13, 1989-2009. DOI: 10.1021/acs.jctc.7b00118
   for GFN0-xTB:
   * P. Pracht, E. Caldeweyher, S. Ehlert, S. Grimme, ChemRxiv, 2019, preprint.
     DOI: 10.26434/chemrxiv.8326202.v1
   for GFN-FF:
   * S. Spicher and S. Grimme, Angew. Chem. Int. Ed., 2020, 59, 15665-15673.
     DOI: 10.1002/anie.202004239
   
   for ALPB and GBSA implicit solvation:
   * S. Ehlert, M. Stahn, S. Spicher, S. Grimme, J. Chem. Theory Comput.,
     2021, 17, 4250-4261. DOI: 10.1021/acs.jctc.1c00471
   
   for ddCOSMO and CPCM-X implicit solvation:
   * M. Stahn, S. Ehlert, S. Grimme, J. Phys. Chem. A,
     2023, XX, XXXX-XXXX. DOI: 10.1021/acs.jpca.3c04382
   
   for DFT-D4:
   * E. Caldeweyher, C. Bannwarth and S. Grimme, J. Chem. Phys., 2017,
     147, 034112. DOI: 10.1063/1.4993215
   * E. Caldeweyher, S. Ehlert, A. Hansen, H. Neugebauer, S. Spicher,
     C. Bannwarth and S. Grimme, J. Chem. Phys., 2019, 150, 154122.
     DOI: 10.1063/1.5090222
   * E. Caldeweyher, J.-M. Mewes, S. Ehlert and S. Grimme, Phys. Chem. Chem. Phys.
     2020, 22, 8499-8512. DOI: 10.1039/D0CP00502A
   
   for sTDA-xTB:
   * S. Grimme and C. Bannwarth, J. Chem. Phys., 2016, 145, 054103.
     DOI: 10.1063/1.4959605
   
   in the mass-spec context:
   * V. Asgeirsson, C. Bauer and S. Grimme, Chem. Sci., 2017, 8, 4879.
     DOI: 10.1039/c7sc00601b
   * J. Koopman and S. Grimme, ACS Omega 2019, 4, 12, 15120-15133.
     DOI: 10.1021/acsomega.9b02011
   
   for metadynamics refer to:
   * S. Grimme, J. Chem. Theory Comput., 2019, 155, 2847-2862
     DOI: 10.1021/acs.jctc.9b00143
   
   for SPH calculations refer to:
   * S. Spicher and S. Grimme, J. Chem. Theory Comput., 2021, 17, 1701-1714
     DOI: 10.1021/acs.jctc.0c01306
   
   for ONIOM refer to:
   * C. Plett, A. Katbashev, S. Ehlert, S. Grimme, M. Bursch,
     Phys. Chem. Chem. Phys., 2023, 25, 17860-17868. DOI: 10.1039/D3CP02178E
   
   for DIPRO refer to:
   * J. Kohn, N. Gildemeister, S. Grimme, D. Fazzi, A. Hansen,
     J. Chem. Phys., 2023, just accepted.
   
   for PTB refer to:
   * S. Grimme, M. Mueller, A. Hansen, J. Chem. Phys., 2023, 158, 124111.
     DOI: 10.1063/5.0137838
   
   with help from (in alphabetical order)
   P. Atkinson, C. Bannwarth, F. Bohle, G. Brandenburg, E. Caldeweyher
   M. Checinski, S. Dohm, S. Ehlert, S. Ehrlich, I. Gerasimov, C. Hölzer
   A. Katbashev, J. Kohn, J. Koopman, C. Lavigne, S. Lehtola, F. März, M. Müller,
   F. Musil, H. Neugebauer, J. Pisarek, C. Plett, P. Pracht, F. Pultar,
   J. Seibert, P. Shushkov, S. Spicher, M. Stahn, M. Steiner, T. Strunk,
   J. Stückrath, T. Rose, and J. Unsleber
   
 * started run on 2025/05/15 at 16:22:57.404     
   ID    Z sym.   atoms
    1    6 C      1-8, 10-13, 15-19
    2    7 N      9
    3    8 O      14, 20, 21
    4    1 H      22-42

           -------------------------------------------------
          |                Calculation Setup                |
           -------------------------------------------------

          program call               : xtb /rds/general/user/hgt20/home/callum/QDESCP/Etodolac_rdkit_conf_4/Etodolac_rdkit_conf_4.xyz --acc 1 --gfn 2 --chrg 0 --uhf 0 --etemp 300 --input /rds/general/user/hgt20/home/callum/QDESCP/Etodolac_rdkit_conf_4/Etodolac_rdkit_conf_4_xtb.inp -P 1
          hostname                   : login-c
          coordinate file            : /rds/general/user/hgt20/home/callum/QDESCP/Etodolac_rdkit_conf_4/Etodolac_rdkit_conf_4.xyz
          omp threads                :                     1


           -------------------------------------------------
          |                 G F N 2 - x T B                 |
           -------------------------------------------------

        Reference                      10.1021/acs.jctc.8b01176
      * Hamiltonian:
        H0-scaling (s, p, d)           1.850000    2.230000    2.230000
        zeta-weighting                 0.500000
      * Dispersion:
        s8                             2.700000
        a1                             0.520000
        a2                             5.000000
        s9                             5.000000
      * Repulsion:
        kExp                           1.500000    1.000000
        rExp                           1.000000
      * Coulomb:
        alpha                          2.000000
        third order                    shell-resolved
        anisotropic                    true
        a3                             3.000000
        a5                             4.000000
        cn-shift                       1.200000
        cn-exp                         4.000000
        max-rad                        5.000000

q/qsh data taken from xtbrestart
CAMM data taken from xtbrestart

          ...................................................
          :                      SETUP                      :
          :.................................................:
          :  # basis functions                 105          :
          :  # atomic orbitals                 105          :
          :  # shells                           63          :
          :  # electrons                       112          :
          :  max. iterations                   250          :
          :  Hamiltonian                  GFN2-xTB          :
          :  restarted?                       true          :
          :  GBSA solvation                  false          :
          :  PC potential                    false          :
          :  electronic temp.          300.0000000     K    :
          :  accuracy                    1.0000000          :
          :  -> integral cutoff          0.2500000E+02      :
          :  -> integral neglect         0.1000000E-07      :
          :  -> SCF convergence          0.1000000E-05 Eh   :
          :  -> wf. convergence          0.1000000E-03 e    :
          :  Broyden damping             0.4000000          :
          :  net charge                          0          :
          :  unpaired electrons                  0          :
          ...................................................

 iter      E             dE          RMSdq      gap      omega  full diag
   1    -63.1533856 -0.631534E+02  0.656E-06    2.64       0.0  T
   2    -63.1533856 -0.575540E-12  0.437E-06    2.64    3530.9  T
   3    -63.1533856 -0.817124E-12  0.210E-06    2.64    7357.0  T

   *** convergence criteria satisfied after 3 iterations ***

         #    Occupation            Energy/Eh            Energy/eV
      -------------------------------------------------------------
         1        2.0000           -0.7619746             -20.7344
       ...           ...                  ...                  ...
        50        2.0000           -0.4252656             -11.5721
        51        2.0000           -0.4140220             -11.2661
        52        2.0000           -0.4033538             -10.9758
        53        2.0000           -0.3969516             -10.8016
        54        2.0000           -0.3924708             -10.6797
        55        2.0000           -0.3673260              -9.9955
        56        2.0000           -0.3489963              -9.4967 (HOMO)
        57                         -0.2520098              -6.8575 (LUMO)
        58                         -0.2183436              -5.9414
        59                         -0.1857149              -5.0536
        60                         -0.1479862              -4.0269
        61                         -0.0613838              -1.6703
       ...                                ...                  ...
       105                          0.7300842              19.8666
      -------------------------------------------------------------
                  HL-Gap            0.0969865 Eh            2.6391 eV
             Fermi-level           -0.3005031 Eh           -8.1771 eV

 SCC (total)                   0 d,  0 h,  0 min,  0.070 sec
 SCC setup                      ...        0 min,  0.000 sec (  0.494%)
 Dispersion                     ...        0 min,  0.000 sec (  0.621%)
 classical contributions        ...        0 min,  0.000 sec (  0.204%)
 integral evaluation            ...        0 min,  0.008 sec ( 10.751%)
 iterations                     ...        0 min,  0.007 sec ( 10.254%)
 molecular gradient             ...        0 min,  0.024 sec ( 34.717%)
 printout                       ...        0 min,  0.030 sec ( 42.947%)

         :::::::::::::::::::::::::::::::::::::::::::::::::::::
         ::                     SUMMARY                     ::
         :::::::::::::::::::::::::::::::::::::::::::::::::::::
         :: total energy             -62.295894397882 Eh    ::
         :: gradient norm              0.000737640968 Eh/a0 ::
         :: HOMO-LUMO gap              2.639135780497 eV    ::
         ::.................................................::
         :: SCC energy               -63.152790403939 Eh    ::
         :: -> isotropic ES            0.073549285308 Eh    ::
         :: -> anisotropic ES          0.006978432890 Eh    ::
         :: -> anisotropic XC          0.017324087735 Eh    ::
         :: -> dispersion             -0.045495497052 Eh    ::
         :: repulsion energy           0.856896006058 Eh    ::
         :: add. restraining           0.000000000000 Eh    ::
         :: total charge               0.000000000000 e     ::
         :::::::::::::::::::::::::::::::::::::::::::::::::::::

           -------------------------------------------------
          |                Property Printout                |
           -------------------------------------------------

    * Orbital Energies and Occupations

         #    Occupation            Energy/Eh            Energy/eV
      -------------------------------------------------------------
         1        2.0000           -0.7619746             -20.7344
       ...           ...                  ...                  ...
        44        2.0000           -0.4464676             -12.1490
        45        2.0000           -0.4430450             -12.0559
        46        2.0000           -0.4400754             -11.9751
        47        2.0000           -0.4380979             -11.9213
        48        2.0000           -0.4352055             -11.8425
        49        2.0000           -0.4308478             -11.7240
        50        2.0000           -0.4252656             -11.5721
        51        2.0000           -0.4140220             -11.2661
        52        2.0000           -0.4033538             -10.9758
        53        2.0000           -0.3969516             -10.8016
        54        2.0000           -0.3924708             -10.6797
        55        2.0000           -0.3673260              -9.9955
        56        2.0000           -0.3489963              -9.4967 (HOMO)
        57                         -0.2520098              -6.8575 (LUMO)
        58                         -0.2183436              -5.9414
        59                         -0.1857149              -5.0536
        60                         -0.1479862              -4.0269
        61                         -0.0613838              -1.6703
        62                         -0.0063540              -0.1729
        63                          0.0222159               0.6045
        64                          0.0439024               1.1946
        65                          0.0684886               1.8637
        66                          0.0829620               2.2575
        67                          0.0914880               2.4895
       ...                                ...                  ...
       105                          0.7300842              19.8666
      -------------------------------------------------------------
                  HL-Gap            0.0969865 Eh            2.6391 eV
             Fermi-level           -0.3005031 Eh           -8.1771 eV

     #   Z          covCN         q      C6AA      α(0)
     1   6 C        3.753    -0.098    22.436     6.754
     2   6 C        3.805    -0.057    21.589     6.615
     3   6 C        2.960    -0.010    28.258     8.719
     4   6 C        2.929    -0.048    29.198     8.862
     5   6 C        2.919    -0.044    29.096     8.845
     6   6 C        2.911    -0.042    29.053     8.838
     7   6 C        3.109    -0.024    28.453     8.739
     8   6 C        3.102     0.038    27.020     8.518
     9   7 N        2.774    -0.126    23.725     7.234
    10   6 C        3.095     0.013    27.618     8.613
    11   6 C        3.073    -0.039    28.880     8.811
    12   6 C        3.805    -0.064    21.725     6.635
    13   6 C        3.697     0.082    19.374     6.296
    14   8 O        1.700    -0.324    19.426     5.951
    15   6 C        3.790     0.143    18.294     6.091
    16   6 C        3.803    -0.064    21.735     6.637
    17   6 C        3.751    -0.104    22.545     6.771
    18   6 C        3.806    -0.099    22.385     6.735
    19   6 C        2.687     0.367    20.772     7.459
    20   8 O        1.660    -0.368    20.242     6.074
    21   8 O        0.856    -0.424    22.158     6.311
    22   1 H        0.925     0.035     2.518     2.482
    23   1 H        0.925     0.034     2.536     2.490
    24   1 H        0.925     0.036     2.509     2.477
    25   1 H        0.924     0.033     2.546     2.496
    26   1 H        0.924     0.035     2.522     2.483
    27   1 H        0.926     0.024     2.674     2.557
    28   1 H        0.926     0.022     2.700     2.569
    29   1 H        0.926     0.023     2.689     2.564
    30   1 H        0.860     0.192     1.150     1.680
    31   1 H        0.924     0.044     2.398     2.422
    32   1 H        0.924     0.039     2.467     2.456
    33   1 H        0.924     0.046     2.376     2.410
    34   1 H        0.923     0.021     2.725     2.581
    35   1 H        0.924     0.039     2.465     2.455
    36   1 H        0.924     0.038     2.471     2.458
    37   1 H        0.925     0.052     2.301     2.372
    38   1 H        0.925     0.033     2.539     2.492
    39   1 H        0.925     0.038     2.475     2.460
    40   1 H        0.925     0.093     1.848     2.126
    41   1 H        0.924     0.086     1.918     2.166
    42   1 H        0.804     0.333     0.631     1.248

 Mol. C6AA /au·bohr⁶  :      17926.003375
 Mol. C8AA /au·bohr⁸  :     415764.607622
 Mol. α(0) /au        :        204.956172


Wiberg/Mayer (AO) data.
largest (>0.10) Wiberg bond orders for each atom

 ---------------------------------------------------------------------------
     #   Z sym  total        # sym  WBO       # sym  WBO       # sym  WBO
 ---------------------------------------------------------------------------
     1   6 C    3.996 --     2 C    1.002    24 H    0.989    22 H    0.988
                            23 H    0.987
     2   6 C    3.997 --     3 C    1.010     1 C    1.002    26 H    0.976
                            25 H    0.971
     3   6 C    3.985 --     4 C    1.469     8 C    1.311     2 C    1.010
                             6 C    0.109
     4   6 C    3.987 --     3 C    1.469     5 C    1.370    27 H    0.970
     5   6 C    3.990 --     6 C    1.506     4 C    1.370    28 H    0.972
     6   6 C    3.988 --     5 C    1.506     7 C    1.324    29 H    0.970
                             3 C    0.109
     7   6 C    3.983 --     6 C    1.324     8 C    1.247    11 C    1.211
     8   6 C    3.956 --     3 C    1.311     7 C    1.247     9 N    1.180
     9   7 N    3.539 --    10 C    1.188     8 C    1.180    30 H    0.913
    10   6 C    3.952 --    11 C    1.541     9 N    1.188    15 C    0.988
    11   6 C    3.971 --    10 C    1.541     7 C    1.211    12 C    1.014
    12   6 C    3.997 --    11 C    1.014    13 C    0.993    32 H    0.970
                            31 H    0.964
    13   6 C    3.953 --    12 C    0.993    14 O    0.982    33 H    0.970
                            34 H    0.968
    14   8 O    2.075 --    13 C    0.982    15 C    0.961
    15   6 C    3.952 --    10 C    0.988    16 C    0.963    14 O    0.961
                            18 C    0.954
    16   6 C    3.993 --    17 C    1.019    35 H    0.974    36 H    0.973
                            15 C    0.963
    17   6 C    3.995 --    16 C    1.019    38 H    0.987    39 H    0.986
                            37 H    0.985
    18   6 C    3.986 --    19 C    0.990    40 H    0.962    15 C    0.954
                            41 H    0.938
    19   6 C    3.909 --    21 O    1.732    20 O    1.147    18 C    0.990
    20   8 O    2.213 --    19 C    1.147    42 H    0.863    21 O    0.169
    21   8 O    2.035 --    19 C    1.732    20 O    0.169
    22   1 H    0.999 --     1 C    0.988
[...]
   * S. Ehlert, M. Stahn, S. Spicher, S. Grimme, J. Chem. Theory Comput.,
     2021, 17, 4250-4261. DOI: 10.1021/acs.jctc.1c00471
   
   for ddCOSMO and CPCM-X implicit solvation:
   * M. Stahn, S. Ehlert, S. Grimme, J. Phys. Chem. A,
     2023, XX, XXXX-XXXX. DOI: 10.1021/acs.jpca.3c04382
   
   for DFT-D4:
   * E. Caldeweyher, C. Bannwarth and S. Grimme, J. Chem. Phys., 2017,
     147, 034112. DOI: 10.1063/1.4993215
   * E. Caldeweyher, S. Ehlert, A. Hansen, H. Neugebauer, S. Spicher,
     C. Bannwarth and S. Grimme, J. Chem. Phys., 2019, 150, 154122.
     DOI: 10.1063/1.5090222
   * E. Caldeweyher, J.-M. Mewes, S. Ehlert and S. Grimme, Phys. Chem. Chem. Phys.
     2020, 22, 8499-8512. DOI: 10.1039/D0CP00502A
   
   for sTDA-xTB:
   * S. Grimme and C. Bannwarth, J. Chem. Phys., 2016, 145, 054103.
     DOI: 10.1063/1.4959605
   
   in the mass-spec context:
   * V. Asgeirsson, C. Bauer and S. Grimme, Chem. Sci., 2017, 8, 4879.
     DOI: 10.1039/c7sc00601b
   * J. Koopman and S. Grimme, ACS Omega 2019, 4, 12, 15120-15133.
     DOI: 10.1021/acsomega.9b02011
   
   for metadynamics refer to:
   * S. Grimme, J. Chem. Theory Comput., 2019, 155, 2847-2862
     DOI: 10.1021/acs.jctc.9b00143
   
   for SPH calculations refer to:
   * S. Spicher and S. Grimme, J. Chem. Theory Comput., 2021, 17, 1701-1714
     DOI: 10.1021/acs.jctc.0c01306
   
   for ONIOM refer to:
   * C. Plett, A. Katbashev, S. Ehlert, S. Grimme, M. Bursch,
     Phys. Chem. Chem. Phys., 2023, 25, 17860-17868. DOI: 10.1039/D3CP02178E
   
   for DIPRO refer to:
   * J. Kohn, N. Gildemeister, S. Grimme, D. Fazzi, A. Hansen,
     J. Chem. Phys., 2023, just accepted.
   
   for PTB refer to:
   * S. Grimme, M. Mueller, A. Hansen, J. Chem. Phys., 2023, 158, 124111.
     DOI: 10.1063/5.0137838
   
   with help from (in alphabetical order)
   P. Atkinson, C. Bannwarth, F. Bohle, G. Brandenburg, E. Caldeweyher
   M. Checinski, S. Dohm, S. Ehlert, S. Ehrlich, I. Gerasimov, C. Hölzer
   A. Katbashev, J. Kohn, J. Koopman, C. Lavigne, S. Lehtola, F. März, M. Müller,
   F. Musil, H. Neugebauer, J. Pisarek, C. Plett, P. Pracht, F. Pultar,
   J. Seibert, P. Shushkov, S. Spicher, M. Stahn, M. Steiner, T. Strunk,
   J. Stückrath, T. Rose, and J. Unsleber
   
 * started run on 2025/05/15 at 16:22:59.431     
   ID    Z sym.   atoms
    1    6 C      1-8, 10-13, 15-19
    2    7 N      9
    3    8 O      14, 20, 21
    4    1 H      22-42

           -------------------------------------------------
          |                Calculation Setup                |
           -------------------------------------------------

          program call               : xtb /rds/general/user/hgt20/home/callum/QDESCP/Etodolac_rdkit_conf_4/Etodolac_rdkit_conf_4.xyz --acc 1 --gfn 2 --chrg 0 --uhf 2 --etemp 300 --input /rds/general/user/hgt20/home/callum/QDESCP/Etodolac_rdkit_conf_4/Etodolac_rdkit_conf_4_xtb.inp -P 1
          hostname                   : login-c
          coordinate file            : /rds/general/user/hgt20/home/callum/QDESCP/Etodolac_rdkit_conf_4/Etodolac_rdkit_conf_4.xyz
          omp threads                :                     1


           -------------------------------------------------
          |                 G F N 2 - x T B                 |
           -------------------------------------------------

        Reference                      10.1021/acs.jctc.8b01176
      * Hamiltonian:
        H0-scaling (s, p, d)           1.850000    2.230000    2.230000
        zeta-weighting                 0.500000
      * Dispersion:
        s8                             2.700000
        a1                             0.520000
        a2                             5.000000
        s9                             5.000000
      * Repulsion:
        kExp                           1.500000    1.000000
        rExp                           1.000000
      * Coulomb:
        alpha                          2.000000
        third order                    shell-resolved
        anisotropic                    true
        a3                             3.000000
        a5                             4.000000
        cn-shift                       1.200000
        cn-exp                         4.000000
        max-rad                        5.000000


          ...................................................
          :                      SETUP                      :
          :.................................................:
          :  # basis functions                 105          :
          :  # atomic orbitals                 105          :
          :  # shells                           63          :
          :  # electrons                       112          :
          :  max. iterations                   250          :
          :  Hamiltonian                  GFN2-xTB          :
          :  restarted?                      false          :
          :  GBSA solvation                  false          :
          :  PC potential                    false          :
          :  electronic temp.          300.0000000     K    :
          :  accuracy                    1.0000000          :
          :  -> integral cutoff          0.2500000E+02      :
          :  -> integral neglect         0.1000000E-07      :
          :  -> SCF convergence          0.1000000E-05 Eh   :
          :  -> wf. convergence          0.1000000E-03 e    :
          :  Broyden damping             0.4000000          :
          :  net charge                          0          :
          :  unpaired electrons                  2          :
          ...................................................

 iter      E             dE          RMSdq      gap      omega  full diag
   1    -62.8325755 -0.628326E+02  0.378E+00    0.94       0.0  T
   2    -62.7229311  0.109644E+00  0.328E+00    0.99       1.0  T
   3    -62.6305314  0.923996E-01  0.215E+00    0.90       1.0  T
   4    -62.8055446 -0.175013E+00  0.218E+00    1.34       1.0  T
   5    -62.8957628 -0.902181E-01  0.131E+00    0.18       1.0  T
   6    -62.9940176 -0.982548E-01  0.105E+00    0.46       1.0  T
   7    -63.0006475 -0.662985E-02  0.963E-01    0.41       1.0  T
   8    -63.0059200 -0.527249E-02  0.788E-01    0.24       1.0  T
   9    -63.0212225 -0.153025E-01  0.350E-01    0.13       1.0  T
  10    -63.0237804 -0.255795E-02  0.141E-01    0.14       1.0  T
  11    -63.0242762 -0.495763E-03  0.490E-02    0.16       1.0  T
  12    -63.0242344  0.418063E-04  0.402E-02    0.17       1.0  T
  13    -63.0225819  0.165248E-02  0.160E-01    0.13       1.0  T
  14    -63.0243238 -0.174187E-02  0.151E-02    0.16       1.0  T
  15    -63.0243360 -0.122314E-04  0.346E-03    0.16       4.5  T
  16    -63.0243347  0.130663E-05  0.599E-03    0.16       2.6  T
  17    -63.0243365 -0.176621E-05  0.212E-03    0.16       7.3  T
  18    -63.0243367 -0.193620E-06  0.140E-03    0.16      11.0  T
  19    -63.0243368 -0.121914E-06  0.129E-04    0.16     119.4  T
  20    -63.0243368 -0.149683E-09  0.118E-04    0.16     130.3  T

   *** convergence criteria satisfied after 20 iterations ***

         #    Occupation            Energy/Eh            Energy/eV
      -------------------------------------------------------------
         1        2.0000           -0.7349599             -19.9993
       ...           ...                  ...                  ...
        51        2.0000           -0.4162783             -11.3275
        52        2.0000           -0.4098334             -11.1521
        53        2.0000           -0.4084524             -11.1146
        54        2.0000           -0.3972189             -10.8089
        55        1.9994           -0.3762532             -10.2384
        56        1.0006           -0.3620568              -9.8521
        57        0.9549           -0.2278160              -6.1992 (HOMO)
        58        0.0451           -0.2220170              -6.0414 (LUMO)
        59                         -0.1957634              -5.3270
        60                         -0.1606967              -4.3728
        61                         -0.0707756              -1.9259
        62                         -0.0057075              -0.1553
       ...                                ...                  ...
       105                          0.7189530              19.5637
      -------------------------------------------------------------
                  HL-Gap            0.0057990 Eh            0.1578 eV
             Fermi-level           -0.2970358 Eh           -8.0828 eV

 transition dipole moment (au) for excitation:          56          57
     X       Y       Z   
  -0.5024   1.5003  -0.4127  total (au/Debye):    1.635   4.156
 dE (eV)             :    3.653
 oscillator strength :  0.33840E+00

 SCC (total)                   0 d,  0 h,  0 min,  0.150 sec
 SCC setup                      ...        0 min,  0.000 sec (  0.224%)
 Dispersion                     ...        0 min,  0.000 sec (  0.294%)
 classical contributions        ...        0 min,  0.000 sec (  0.097%)
 integral evaluation            ...        0 min,  0.047 sec ( 31.084%)
 iterations                     ...        0 min,  0.038 sec ( 25.409%)
 molecular gradient             ...        0 min,  0.024 sec ( 16.275%)
 printout                       ...        0 min,  0.040 sec ( 26.611%)

         :::::::::::::::::::::::::::::::::::::::::::::::::::::
         ::                     SUMMARY                     ::
         :::::::::::::::::::::::::::::::::::::::::::::::::::::
         :: total energy             -62.166845579104 Eh    ::
         :: gradient norm              0.149739915906 Eh/a0 ::
         :: HOMO-LUMO gap              0.157799497343 eV    ::
         ::.................................................::
         :: SCC energy               -63.023741585162 Eh    ::
         :: -> isotropic ES            0.076820700605 Eh    ::
         :: -> anisotropic ES          0.004549238318 Eh    ::
         :: -> anisotropic XC          0.016750997531 Eh    ::
         :: -> dispersion             -0.045385396533 Eh    ::
         :: repulsion energy           0.856896006058 Eh    ::
         :: add. restraining           0.000000000000 Eh    ::
         :: total charge               0.000000000000 e     ::
         :::::::::::::::::::::::::::::::::::::::::::::::::::::

           -------------------------------------------------
          |                Property Printout                |
           -------------------------------------------------

    * Orbital Energies and Occupations

         #    Occupation            Energy/Eh            Energy/eV
      -------------------------------------------------------------
         1        2.0000           -0.7349599             -19.9993
       ...           ...                  ...                  ...
        45        2.0000           -0.4491674             -12.2225
        46        2.0000           -0.4461823             -12.1412
        47        2.0000           -0.4376102             -11.9080
        48        2.0000           -0.4360654             -11.8659
        49        2.0000           -0.4289480             -11.6723
        50        2.0000           -0.4216236             -11.4730
        51        2.0000           -0.4162783             -11.3275
        52        2.0000           -0.4098334             -11.1521
        53        2.0000           -0.4084524             -11.1146
        54        2.0000           -0.3972189             -10.8089
        55        1.9994           -0.3762532             -10.2384
        56        1.0006           -0.3620568              -9.8521
        57        0.9549           -0.2278160              -6.1992 (HOMO)
        58        0.0451           -0.2220170              -6.0414 (LUMO)
        59                         -0.1957634              -5.3270
        60                         -0.1606967              -4.3728
        61                         -0.0707756              -1.9259
        62                         -0.0057075              -0.1553
        63                          0.0184321               0.5016
        64                          0.0491424               1.3372
        65                          0.0744614               2.0262
        66                          0.0789423               2.1481
        67                          0.0838436               2.2815
        68                          0.0958709               2.6088
       ...                                ...                  ...
       105                          0.7189530              19.5637
      -------------------------------------------------------------
                  HL-Gap            0.0057990 Eh            0.1578 eV
             Fermi-level           -0.2970358 Eh           -8.0828 eV

     #   Z          covCN         q      C6AA      α(0)
     1   6 C        3.753    -0.098    22.437     6.755
     2   6 C        3.805    -0.057    21.598     6.616
     3   6 C        2.960    -0.016    28.416     8.744
     4   6 C        2.929    -0.042    29.046     8.838
     5   6 C        2.919    -0.041    29.028     8.835
     6   6 C        2.911    -0.042    29.055     8.839
     7   6 C        3.109    -0.033    28.679     8.774
     8   6 C        3.102     0.040    26.983     8.512
     9   7 N        2.774    -0.098    23.156     7.147
    10   6 C        3.095     0.005    27.807     8.643
    11   6 C        3.073    -0.002    27.988     8.674
    12   6 C        3.805    -0.066    21.768     6.642
    13   6 C        3.697     0.082    19.377     6.296
    14   8 O        1.700    -0.322    19.389     5.945
    15   6 C        3.790     0.142    18.305     6.093
    16   6 C        3.803    -0.063    21.709     6.633
    17   6 C        3.751    -0.104    22.541     6.771
    18   6 C        3.806    -0.097    22.352     6.730
    19   6 C        2.687     0.340    21.230     7.540
    20   8 O        1.660    -0.390    20.654     6.135
    21   8 O        0.856    -0.470    23.127     6.448
    22   1 H        0.925     0.036     2.504     2.475
    23   1 H        0.925     0.037     2.494     2.470
    24   1 H        0.925     0.036     2.497     2.471
    25   1 H        0.924     0.037     2.487     2.466
    26   1 H        0.924     0.037     2.485     2.465
    27   1 H        0.926     0.028     2.615     2.529
    28   1 H        0.926     0.026     2.644     2.543
    29   1 H        0.926     0.023     2.686     2.563
    30   1 H        0.860     0.208     1.066     1.617
    31   1 H        0.924     0.063     2.164     2.301
    32   1 H        0.924     0.050     2.314     2.379
    33   1 H        0.924     0.049     2.327     2.386
    34   1 H        0.923     0.023     2.682     2.561
    35   1 H        0.924     0.043     2.411     2.428
    36   1 H        0.924     0.033     2.543     2.494
    37   1 H        0.925     0.050     2.318     2.381
    38   1 H        0.925     0.040     2.454     2.450
    39   1 H        0.925     0.038     2.482     2.463
    40   1 H        0.925     0.085     1.927     2.171
    41   1 H        0.924     0.069     2.098     2.265
    42   1 H        0.804     0.323     0.655     1.271

 Mol. C6AA /au·bohr⁶  :      17896.749451
 Mol. C8AA /au·bohr⁸  :     415361.080609
 Mol. α(0) /au        :        204.758917


Wiberg/Mayer (AO) data.
largest (>0.10) Wiberg bond orders for each atom

 ---------------------------------------------------------------------------
     #   Z sym  total        # sym  WBO       # sym  WBO       # sym  WBO
 ---------------------------------------------------------------------------
     1   6 C    3.987 --     2 C    0.991    24 H    0.989    22 H    0.988
                            23 H    0.986
     2   6 C    3.996 --     3 C    1.020     1 C    0.991    26 H    0.974
                            25 H    0.967
     3   6 C    3.830 --     8 C    1.336     4 C    1.175     2 C    1.020
     4   6 C    3.896 --     5 C    1.517     3 C    1.175    27 H    0.970
     5   6 C    3.978 --     4 C    1.517     6 C    1.327    28 H    0.971
     6   6 C    3.790 --     5 C    1.327     7 C    1.198    29 H    0.970
                            11 C    0.100
     7   6 C    3.969 --    11 C    1.298     8 C    1.255     6 C    1.198
     8   6 C    3.953 --     3 C    1.336     7 C    1.255     9 N    1.145
     9   7 N    3.575 --    10 C    1.259     8 C    1.145    30 H    0.904
    10   6 C    3.847 --     9 N    1.259    11 C    1.224    15 C    1.002
    11   6 C    3.892 --     7 C    1.298    10 C    1.224    12 C    1.034
                             6 C    0.100
    12   6 C    3.995 --    11 C    1.034    13 C    0.990    32 H    0.962
                            31 H    0.945
    13   6 C    3.955 --    12 C    0.990    14 O    0.987    33 H    0.970
                            34 H    0.967
    14   8 O    2.076 --    13 C    0.987    15 C    0.958
    15   6 C    3.948 --    10 C    1.002    14 O    0.958    16 C    0.955
                            18 C    0.945
    16   6 C    3.987 --    17 C    1.019    36 H    0.974    35 H    0.973
                            15 C    0.955
    17   6 C    3.993 --    16 C    1.019    38 H    0.986    39 H    0.985
                            37 H    0.985
    18   6 C    3.983 --    19 C    0.986    40 H    0.964    41 H    0.948
                            15 C    0.945
    19   6 C    3.808 --    21 O    1.644    20 O    1.106    18 C    0.986
    20   8 O    2.156 --    19 C    1.106    42 H    0.870    21 O    0.147
    21   8 O    1.951 --    19 C    1.644    20 O    0.147
    22   1 H    0.999 --     1 C    0.988
    23   1 H    0.997 --     1 C    0.986
    24   1 H    0.999 --     1 C    0.989
    25   1 H    0.998 --     2 C    0.967
    26   1 H    0.997 --     2 C    0.974
    27   1 H    0.999 --     4 C    0.970
    28   1 H    0.999 --     5 C    0.971
    29   1 H    0.998 --     6 C    0.970
    30   1 H    0.956 --     9 N    0.904
    31   1 H    0.986 --    12 C    0.945
    32   1 H    0.993 --    12 C    0.962
    33   1 H    0.997 --    13 C    0.970
    34   1 H    0.999 --    13 C    0.967
    35   1 H    0.998 --    16 C    0.973
    36   1 H    0.999 --    16 C    0.974
    37   1 H    0.997 --    17 C    0.985
    38   1 H    0.998 --    17 C    0.986
    39   1 H    0.998 --    17 C    0.985
    40   1 H    0.990 --    18 C    0.964
    41   1 H    0.991 --    18 C    0.948
    42   1 H    0.895 --    20 O    0.870
 ---------------------------------------------------------------------------

Topologies differ in total number of bonds
Writing topology from bond orders to xtbtopo.mol

molecular dipole:
                 x           y           z       tot (Debye)
 q only:       -0.210      -0.166       0.215
   full:       -0.214       0.052       0.180       0.723
molecular quadrupole (traceless):
                xx          xy          yy          xz          yz          zz
 q only:       -2.067       1.997       3.179      -1.450      -2.222      -1.112
  q+dip:       -3.490       2.726       6.485      -2.582      -4.727      -2.994
   full:       -4.816       2.099       5.418      -3.351      -4.027      -0.602


           -------------------------------------------------
          | TOTAL ENERGY              -62.166845579104 Eh   |
          | GRADIENT NORM               0.149739915906 Eh/α |
          | HOMO-LUMO GAP               0.157799497343 eV   |
           -------------------------------------------------

------------------------------------------------------------------------
 * finished run on 2025/05/15 at 16:22:59.595     
------------------------------------------------------------------------
 total:
 * wall-time:     0 d,  0 h,  0 min,  0.163 sec
 *  cpu-time:     0 d,  0 h,  0 min,  0.089 sec
 * ratio c/w:     0.548 speedup
 SCF:
 * wall-time:     0 d,  0 h,  0 min,  0.150 sec
 *  cpu-time:     0 d,  0 h,  0 min,  0.078 sec
 * ratio c/w:     0.517 speedup


