----- Optimization -----
      -----------------------------------------------------------      
     |                   =====================                   |     
     |                           x T B                           |     
     |                   =====================                   |     
     |                         S. Grimme                         |     
     |          Mulliken Center for Theoretical Chemistry        |     
     |                    University of Bonn                     |     
      -----------------------------------------------------------      

   * xtb version 6.7.1 (edcfbbe) compiled by 'conda@3ef47c1a292c' on 2024-11-25

   xtb is free software: you can redistribute it and/or modify it under
   the terms of the GNU Lesser General Public License as published by
   the Free Software Foundation, either version 3 of the License, or
   (at your option) any later version.
   
   xtb is distributed in the hope that it will be useful,
   but WITHOUT ANY WARRANTY; without even the implied warranty of
   MERCHANTABILITY or FITNESS FOR A PARTICULAR PURPOSE.  See the
   GNU Lesser General Public License for more details.
   
   Cite this work as:
   * C. Bannwarth, E. Caldeweyher, S. Ehlert, A. Hansen, P. Pracht,
     J. Seibert, S. Spicher, S. Grimme, WIREs Comput. Mol. Sci., 2020, 11,
     e01493. DOI: 10.1002/wcms.1493
   
   for GFN2-xTB:
   * C. Bannwarth, S. Ehlert and S. Grimme., J. Chem. Theory Comput., 2019,
     15, 1652-1671. DOI: 10.1021/acs.jctc.8b01176
   for GFN1-xTB:
   * S. Grimme, C. Bannwarth, P. Shushkov, J. Chem. Theory Comput., 2017,
     13, 1989-2009. DOI: 10.1021/acs.jctc.7b00118
   for GFN0-xTB:
   * P. Pracht, E. Caldeweyher, S. Ehlert, S. Grimme, ChemRxiv, 2019, preprint.
     DOI: 10.26434/chemrxiv.8326202.v1
   for GFN-FF:
   * S. Spicher and S. Grimme, Angew. Chem. Int. Ed., 2020, 59, 15665-15673.
     DOI: 10.1002/anie.202004239
   
   for ALPB and GBSA implicit solvation:
   * S. Ehlert, M. Stahn, S. Spicher, S. Grimme, J. Chem. Theory Comput.,
     2021, 17, 4250-4261. DOI: 10.1021/acs.jctc.1c00471
   
   for ddCOSMO and CPCM-X implicit solvation:
   * M. Stahn, S. Ehlert, S. Grimme, J. Phys. Chem. A,
     2023, XX, XXXX-XXXX. DOI: 10.1021/acs.jpca.3c04382
   
   for DFT-D4:
   * E. Caldeweyher, C. Bannwarth and S. Grimme, J. Chem. Phys., 2017,
     147, 034112. DOI: 10.1063/1.4993215
   * E. Caldeweyher, S. Ehlert, A. Hansen, H. Neugebauer, S. Spicher,
     C. Bannwarth and S. Grimme, J. Chem. Phys., 2019, 150, 154122.
     DOI: 10.1063/1.5090222
   * E. Caldeweyher, J.-M. Mewes, S. Ehlert and S. Grimme, Phys. Chem. Chem. Phys.
     2020, 22, 8499-8512. DOI: 10.1039/D0CP00502A
   
   for sTDA-xTB:
   * S. Grimme and C. Bannwarth, J. Chem. Phys., 2016, 145, 054103.
     DOI: 10.1063/1.4959605
   
   in the mass-spec context:
   * V. Asgeirsson, C. Bauer and S. Grimme, Chem. Sci., 2017, 8, 4879.
     DOI: 10.1039/c7sc00601b
   * J. Koopman and S. Grimme, ACS Omega 2019, 4, 12, 15120-15133.
     DOI: 10.1021/acsomega.9b02011
   
   for metadynamics refer to:
   * S. Grimme, J. Chem. Theory Comput., 2019, 155, 2847-2862
     DOI: 10.1021/acs.jctc.9b00143
   
   for SPH calculations refer to:
   * S. Spicher and S. Grimme, J. Chem. Theory Comput., 2021, 17, 1701-1714
     DOI: 10.1021/acs.jctc.0c01306
   
   for ONIOM refer to:
   * C. Plett, A. Katbashev, S. Ehlert, S. Grimme, M. Bursch,
     Phys. Chem. Chem. Phys., 2023, 25, 17860-17868. DOI: 10.1039/D3CP02178E
   
   for DIPRO refer to:
   * J. Kohn, N. Gildemeister, S. Grimme, D. Fazzi, A. Hansen,
     J. Chem. Phys., 2023, just accepted.
   
   for PTB refer to:
   * S. Grimme, M. Mueller, A. Hansen, J. Chem. Phys., 2023, 158, 124111.
     DOI: 10.1063/5.0137838
   
   with help from (in alphabetical order)
   P. Atkinson, C. Bannwarth, F. Bohle, G. Brandenburg, E. Caldeweyher
   M. Checinski, S. Dohm, S. Ehlert, S. Ehrlich, I. Gerasimov, C. Hölzer
   A. Katbashev, J. Kohn, J. Koopman, C. Lavigne, S. Lehtola, F. März, M. Müller,
   F. Musil, H. Neugebauer, J. Pisarek, C. Plett, P. Pracht, F. Pultar,
   J. Seibert, P. Shushkov, S. Spicher, M. Stahn, M. Steiner, T. Strunk,
   J. Stückrath, T. Rose, and J. Unsleber
   
 * started run on 2025/05/15 at 16:05:34.297     
   ID    Z sym.   atoms
    1    8 O      1, 3, 21
    2    6 C      2, 4, 5, 7-9, 11, 12, 14-16, 18-20, 22-24
    3    7 N      6, 10, 13
    4    9 F      17
    5    1 H      25-42

           -------------------------------------------------
          |                Calculation Setup                |
           -------------------------------------------------

          program call               : xtb /rds/general/user/hgt20/home/callum/QDESCP/Ciprofloxacin_rdkit_conf_13/Ciprofloxacin_rdkit_conf_13.xyz --opt normal --acc 1 --gfn 2 --chrg 0 --uhf 0 -P 1
          hostname                   : login-c
          coordinate file            : /rds/general/user/hgt20/home/callum/QDESCP/Ciprofloxacin_rdkit_conf_13/Ciprofloxacin_rdkit_conf_13.xyz
          omp threads                :                     1


           -------------------------------------------------
          |                 G F N 2 - x T B                 |
           -------------------------------------------------

        Reference                      10.1021/acs.jctc.8b01176
      * Hamiltonian:
        H0-scaling (s, p, d)           1.850000    2.230000    2.230000
        zeta-weighting                 0.500000
      * Dispersion:
        s8                             2.700000
        a1                             0.520000
        a2                             5.000000
        s9                             5.000000
      * Repulsion:
        kExp                           1.500000    1.000000
        rExp                           1.000000
      * Coulomb:
        alpha                          2.000000
        third order                    shell-resolved
        anisotropic                    true
        a3                             3.000000
        a5                             4.000000
        cn-shift                       1.200000
        cn-exp                         4.000000
        max-rad                        5.000000


          ...................................................
          :                      SETUP                      :
          :.................................................:
          :  # basis functions                 114          :
          :  # atomic orbitals                 114          :
          :  # shells                           66          :
          :  # electrons                       126          :
          :  max. iterations                   250          :
          :  Hamiltonian                  GFN2-xTB          :
          :  restarted?                      false          :
          :  GBSA solvation                  false          :
          :  PC potential                    false          :
          :  electronic temp.          300.0000000     K    :
          :  accuracy                    1.0000000          :
          :  -> integral cutoff          0.2500000E+02      :
          :  -> integral neglect         0.1000000E-07      :
          :  -> SCF convergence          0.1000000E-05 Eh   :
          :  -> wf. convergence          0.1000000E-03 e    :
          :  Broyden damping             0.4000000          :
          :  net charge                          0          :
          :  unpaired electrons                  0          :
          ...................................................

 iter      E             dE          RMSdq      gap      omega  full diag
   1    -71.9792569 -0.719793E+02  0.408E+00    2.48       0.0  T
   2    -72.0971591 -0.117902E+00  0.246E+00    2.34       1.0  T
   3    -72.1069371 -0.977801E-02  0.142E+00    2.58       1.0  T
   4    -72.1243882 -0.174511E-01  0.463E-01    2.51       1.0  T
   5    -72.1313079 -0.691971E-02  0.108E-01    2.49       1.0  T
   6    -72.1315296 -0.221677E-03  0.513E-02    2.49       1.0  T
   7    -72.1315593 -0.297193E-04  0.226E-02    2.50       1.0  T
   8    -72.1315616 -0.232833E-05  0.898E-03    2.50       1.7  T
   9    -72.1315634 -0.178052E-05  0.405E-03    2.51       3.8  T
  10    -72.1315636 -0.135601E-06  0.154E-03    2.50      10.0  T
  11    -72.1315636 -0.513833E-07  0.677E-04    2.50      22.8  T
  12    -72.1315636 -0.616588E-08  0.272E-04    2.50      56.7  T

   *** convergence criteria satisfied after 12 iterations ***

         #    Occupation            Energy/Eh            Energy/eV
      -------------------------------------------------------------
         1        2.0000           -0.8222216             -22.3738
       ...           ...                  ...                  ...
        57        2.0000           -0.4362776             -11.8717
        58        2.0000           -0.4263089             -11.6005
        59        2.0000           -0.4191663             -11.4061
        60        2.0000           -0.3908375             -10.6352
        61        2.0000           -0.3820945             -10.3973
        62        2.0000           -0.3798480             -10.3362
        63        2.0000           -0.3703279             -10.0771 (HOMO)
        64                         -0.2783304              -7.5738 (LUMO)
        65                         -0.2661973              -7.2436
        66                         -0.2349034              -6.3920
        67                         -0.2137660              -5.8169
        68                         -0.1507510              -4.1021
       ...                                ...                  ...
       114                          0.6923359              18.8394
      -------------------------------------------------------------
                  HL-Gap            0.0919975 Eh            2.5034 eV
             Fermi-level           -0.3243292 Eh           -8.8254 eV

 SCC (total)                   0 d,  0 h,  0 min,  0.092 sec
 SCC setup                      ...        0 min,  0.000 sec (  0.415%)
 Dispersion                     ...        0 min,  0.001 sec (  0.543%)
 classical contributions        ...        0 min,  0.000 sec (  0.161%)
 integral evaluation            ...        0 min,  0.008 sec (  8.685%)
 iterations                     ...        0 min,  0.027 sec ( 29.547%)
 molecular gradient             ...        0 min,  0.056 sec ( 60.429%)
 printout                       ...        0 min,  0.000 sec (  0.212%)

         :::::::::::::::::::::::::::::::::::::::::::::::::::::
         ::                     SUMMARY                     ::
         :::::::::::::::::::::::::::::::::::::::::::::::::::::
         :: total energy             -71.290866080654 Eh    ::
         :: gradient norm              0.081112819560 Eh/a0 ::
         :: HOMO-LUMO gap              2.503379265315 eV    ::
         ::.................................................::
         :: SCC energy               -72.131459016200 Eh    ::
         :: -> isotropic ES            0.106650317372 Eh    ::
         :: -> anisotropic ES          0.008172634435 Eh    ::
         :: -> anisotropic XC          0.020892261827 Eh    ::
         :: -> dispersion             -0.045135637343 Eh    ::
         :: repulsion energy           0.840592935545 Eh    ::
         :: add. restraining           0.000000000000 Eh    ::
         :: total charge              -0.000000000000 e     ::
         :::::::::::::::::::::::::::::::::::::::::::::::::::::

      ----------------------------------------------------------- 
     |                   =====================                   |
     |                        A N C O P T                        |
     |                   =====================                   |
     |               Approximate Normal Coordinate               |
     |                Rational Function Optimizer                |
      ----------------------------------------------------------- 
      ----------------------------------------------------------- 
     |                   =====================                   |
     |                        A N C O P T                        |
     |                   =====================                   |
     |               Approximate Normal Coordinate               |
     |                Rational Function Optimizer                |
      ----------------------------------------------------------- 

          ...................................................
          :                      SETUP                      :
          :.................................................:
          :   optimization level            normal          :
          :   max. optcycles                   200          :
          :   ANC micro-cycles                  20          :
          :   degrees of freedom               120          :
          :.................................................:
          :   RF solver                   davidson          :
          :   write xtbopt.log                true          :
          :   linear?                        false          :
          :   energy convergence         0.5000000E-05 Eh   :
          :   grad. convergence          0.1000000E-02 Eh/α :
          :   maxmium RF displ.          1.0000000          :
          :   Hlow (freq-cutoff)         0.1000000E-01      :
          :   Hmax (freq-cutoff)         5.0000000          :
          :   S6 in model hess.         20.0000000          :
          ...................................................

generating ANC from exact Hessian ...
Using Lindh-Hessian (1995)
 Shifting diagonal of input Hessian by    9.6029871169103845E-003
 Lowest  eigenvalues of input Hessian
    0.000000    0.000000    0.000000    0.000000    0.000000    0.000000
    0.010000    0.010243    0.010698    0.011550    0.011896    0.012266
    0.012894    0.014384    0.015861    0.017794    0.018420    0.020048
 Highest eigenvalues
    1.865808    1.974639    2.024800    2.089581    2.211823    2.340990


........................................................................
.............................. CYCLE    1 ..............................
........................................................................

 iter      E             dE          RMSdq      gap      omega  full diag
   1    -72.1315636 -0.721316E+02  0.122E-04    2.50       0.0  T
   2    -72.1315636 -0.123364E-09  0.793E-05    2.50     194.5  T
   3    -72.1315636 -0.980407E-10  0.465E-05    2.50     331.9  T
     SCC iter.                  ...        0 min,  0.007 sec
     gradient                   ...        0 min,  0.024 sec
 * total energy  :   -71.2908661 Eh     change       -0.9895729E-09 Eh
   gradient norm :     0.0811145 Eh/α   predicted     0.0000000E+00 (-100.00%)
   displ. norm   :     0.3644699 α      lambda       -0.1480457E-01
   maximum displ.:     0.1261408 α      in ANC's #15, #29, #30, ...

........................................................................
.............................. CYCLE    2 ..............................
........................................................................

 iter      E             dE          RMSdq      gap      omega  full diag
   1    -72.1690908 -0.721691E+02  0.232E-01    2.50       0.0  T
   2    -72.1694444 -0.353641E-03  0.159E-01    2.52       1.0  T
   3    -72.1695809 -0.136531E-03  0.899E-02    2.51       1.0  T
   4    -72.1696633 -0.823559E-04  0.261E-02    2.51       1.0  T
   5    -72.1696848 -0.214684E-04  0.513E-03    2.51       3.0  T
   6    -72.1696852 -0.416163E-06  0.256E-03    2.51       6.0  T
   7    -72.1696852 -0.519179E-07  0.961E-04    2.51      16.1  T
   8    -72.1696852 -0.652362E-08  0.376E-04    2.51      41.0  T
     SCC iter.                  ...        0 min,  0.017 sec
     gradient                   ...        0 min,  0.024 sec
 * total energy  :   -71.3013211 Eh     change       -0.1045505E-01 Eh
   gradient norm :     0.0343145 Eh/α   predicted    -0.8391192E-02 ( -19.74%)
   displ. norm   :     0.3693299 α      lambda       -0.5411765E-02
   maximum displ.:     0.1470478 α      in ANC's #15, #13, #6, ...

........................................................................
.............................. CYCLE    3 ..............................
........................................................................

 iter      E             dE          RMSdq      gap      omega  full diag
   1    -72.1934909 -0.721935E+02  0.163E-01    2.50       0.0  T
   2    -72.1937141 -0.223147E-03  0.112E-01    2.53       1.0  T
   3    -72.1938099 -0.958084E-04  0.634E-02    2.52       1.0  T
   4    -72.1938365 -0.265765E-04  0.207E-02    2.52       1.0  T
   5    -72.1938490 -0.125949E-04  0.395E-03    2.52       3.9  T
   6    -72.1938494 -0.320064E-06  0.176E-03    2.52       8.8  T
   7    -72.1938494 -0.234446E-07  0.685E-04    2.52      22.5  T
   8    -72.1938494 -0.336712E-08  0.271E-04    2.52      56.9  T
     SCC iter.                  ...        0 min,  0.017 sec
     gradient                   ...        0 min,  0.042 sec
 * total energy  :   -71.3045295 Eh     change       -0.3208417E-02 Eh
   gradient norm :     0.0095084 Eh/α   predicted    -0.3076380E-02 (  -4.12%)
   displ. norm   :     0.2502249 α      lambda       -0.9851283E-03
   maximum displ.:     0.1371142 α      in ANC's #6, #15, #10, ...

........................................................................
.............................. CYCLE    4 ..............................
........................................................................

 iter      E             dE          RMSdq      gap      omega  full diag
   1    -72.1981127 -0.721981E+02  0.621E-02    2.51       0.0  T
   2    -72.1981272 -0.144603E-04  0.373E-02    2.52       1.0  T
   3    -72.1981235  0.370934E-05  0.206E-02    2.52       1.0  T
   4    -72.1981323 -0.880188E-05  0.476E-03    2.52       3.2  T
   5    -72.1981330 -0.753773E-06  0.136E-03    2.52      11.3  T
   6    -72.1981331 -0.303391E-07  0.707E-04    2.52      21.8  T
   7    -72.1981331 -0.400314E-08  0.204E-04    2.52      75.6  T
     SCC iter.                  ...        0 min,  0.015 sec
     gradient                   ...        0 min,  0.024 sec
 * total energy  :   -71.3052734 Eh     change       -0.7438356E-03 Eh
   gradient norm :     0.0076880 Eh/α   predicted    -0.5234199E-03 ( -29.63%)
   displ. norm   :     0.3741508 α      lambda       -0.9409848E-03
   maximum displ.:     0.2461226 α      in ANC's #6, #9, #5, ...

........................................................................
.............................. CYCLE    5 ..............................
........................................................................

 iter      E             dE          RMSdq      gap      omega  full diag
   1    -72.1991959 -0.721992E+02  0.884E-02    2.50       0.0  T
   2    -72.1992088 -0.129582E-04  0.516E-02    2.51       1.0  T
   3    -72.1991987  0.101633E-04  0.212E-02    2.51       1.0  T
   4    -72.1992123 -0.136114E-04  0.387E-03    2.51       4.0  T
   5    -72.1992127 -0.427722E-06  0.155E-03    2.51       9.9  T
   6    -72.1992127 -0.176529E-07  0.837E-04    2.51      18.4  T
   7    -72.1992127 -0.130663E-07  0.278E-04    2.51      55.6  T
     SCC iter.                  ...        0 min,  0.015 sec
     gradient                   ...        0 min,  0.039 sec
 * total energy  :   -71.3059101 Eh     change       -0.6367594E-03 Eh
   gradient norm :     0.0060295 Eh/α   predicted    -0.5363613E-03 ( -15.77%)
   displ. norm   :     0.2697435 α      lambda       -0.4001734E-03
   maximum displ.:     0.1975226 α      in ANC's #6, #5, #7, ...

........................................................................
.............................. CYCLE    6 ..............................
........................................................................

 iter      E             dE          RMSdq      gap      omega  full diag
   1    -72.1989887 -0.721990E+02  0.593E-02    2.50       0.0  T
   2    -72.1989912 -0.254460E-05  0.345E-02    2.51       1.0  T
   3    -72.1989882  0.302143E-05  0.963E-03    2.50       1.6  T
   4    -72.1989920 -0.381955E-05  0.189E-03    2.51       8.2  T
   5    -72.1989921 -0.641736E-07  0.924E-04    2.51      16.7  T
   6    -72.1989921 -0.462609E-08  0.375E-04    2.51      41.2  T
     SCC iter.                  ...        0 min,  0.013 sec
     gradient                   ...        0 min,  0.029 sec
 * total energy  :   -71.3062121 Eh     change       -0.3019195E-03 Eh
   gradient norm :     0.0050816 Eh/α   predicted    -0.2146461E-03 ( -28.91%)
   displ. norm   :     0.2515004 α      lambda       -0.3214296E-03
   maximum displ.:     0.1837334 α      in ANC's #6, #5, #7, ...

........................................................................
.............................. CYCLE    7 ..............................
........................................................................

 iter      E             dE          RMSdq      gap      omega  full diag
   1    -72.1991719 -0.721992E+02  0.569E-02    2.49       0.0  T
   2    -72.1991734 -0.151243E-05  0.333E-02    2.50       1.0  T
   3    -72.1991716  0.178869E-05  0.757E-03    2.50       2.0  T
   4    -72.1991739 -0.230476E-05  0.175E-03    2.50       8.8  T
   5    -72.1991740 -0.435437E-07  0.918E-04    2.50      16.8  T
   6    -72.1991740 -0.545322E-08  0.370E-04    2.50      41.7  T
     SCC iter.                  ...        0 min,  0.013 sec
     gradient                   ...        0 min,  0.024 sec
 * total energy  :   -71.3064676 Eh     change       -0.2555523E-03 Eh
   gradient norm :     0.0040534 Eh/α   predicted    -0.1708937E-03 ( -33.13%)
   displ. norm   :     0.2924216 α      lambda       -0.3035135E-03
   maximum displ.:     0.2082580 α      in ANC's #6, #5, #4, ...

........................................................................
.............................. CYCLE    8 ..............................
........................................................................

 iter      E             dE          RMSdq      gap      omega  full diag
   1    -72.1991115 -0.721991E+02  0.650E-02    2.48       0.0  T
   2    -72.1991135 -0.198594E-05  0.381E-02    2.49       1.0  T
   3    -72.1991090  0.446980E-05  0.116E-02    2.49       1.3  T
   4    -72.1991145 -0.547781E-05  0.218E-03    2.49       7.1  T
   5    -72.1991146 -0.624499E-07  0.117E-03    2.49      13.2  T
   6    -72.1991146 -0.587453E-08  0.455E-04    2.49      33.9  T
   7    -72.1991146 -0.476899E-08  0.161E-04    2.49      96.1  T
     SCC iter.                  ...        0 min,  0.015 sec
     gradient                   ...        0 min,  0.039 sec
 * total energy  :   -71.3066991 Eh     change       -0.2314924E-03 Eh
   gradient norm :     0.0042795 Eh/α   predicted    -0.1647348E-03 ( -28.84%)
   displ. norm   :     0.3055177 α      lambda       -0.2296789E-03
   maximum displ.:     0.2140504 α      in ANC's #6, #5, #4, ...

........................................................................
.............................. CYCLE    9 ..............................
........................................................................

 iter      E             dE          RMSdq      gap      omega  full diag
   1    -72.1987688 -0.721988E+02  0.706E-02    2.47       0.0  T
   2    -72.1987733 -0.452007E-05  0.411E-02    2.48       1.0  T
   3    -72.1987672  0.613730E-05  0.148E-02    2.48       1.0  T
   4    -72.1987748 -0.759000E-05  0.287E-03    2.48       5.4  T
   5    -72.1987750 -0.194910E-06  0.133E-03    2.48      11.6  T
   6    -72.1987750 -0.724344E-08  0.734E-04    2.48      21.0  T
   7    -72.1987750 -0.830157E-08  0.192E-04    2.48      80.3  T
     SCC iter.                  ...        0 min,  0.015 sec
     gradient                   ...        0 min,  0.024 sec
 * total energy  :   -71.3068662 Eh     change       -0.1671003E-03 Eh
   gradient norm :     0.0037661 Eh/α   predicted    -0.1255596E-03 ( -24.86%)
   displ. norm   :     0.2802243 α      lambda       -0.1567783E-03
   maximum displ.:     0.1881670 α      in ANC's #6, #3, #2, ...

........................................................................
.............................. CYCLE   10 ..............................
........................................................................

 iter      E             dE          RMSdq      gap      omega  full diag
   1    -72.1991951 -0.721992E+02  0.652E-02    2.46       0.0  T
   2    -72.1991995 -0.444910E-05  0.378E-02    2.47       1.0  T
   3    -72.1991939  0.558588E-05  0.145E-02    2.47       1.1  T
   4    -72.1992010 -0.707378E-05  0.273E-03    2.47       5.7  T
   5    -72.1992012 -0.173650E-06  0.129E-03    2.47      11.9  T
   6    -72.1992012 -0.828892E-08  0.722E-04    2.47      21.4  T
   7    -72.1992012 -0.752594E-08  0.194E-04    2.47      79.7  T
     SCC iter.                  ...        0 min,  0.015 sec
     gradient                   ...        0 min,  0.033 sec
 * total energy  :   -71.3069790 Eh     change       -0.1127453E-03 Eh
   gradient norm :     0.0034287 Eh/α   predicted    -0.8454578E-04 ( -25.01%)
   displ. norm   :     0.2211244 α      lambda       -0.1138616E-03
   maximum displ.:     0.1289726 α      in ANC's #6, #3, #2, ...

........................................................................
.............................. CYCLE   11 ..............................
........................................................................

 iter      E             dE          RMSdq      gap      omega  full diag
   1    -72.2004035 -0.722004E+02  0.541E-02    2.46       0.0  T
   2    -72.2004084 -0.490815E-05  0.310E-02    2.47       1.0  T
   3    -72.2004055  0.288042E-05  0.118E-02    2.47       1.3  T
   4    -72.2004093 -0.374874E-05  0.279E-03    2.47       5.5  T
   5    -72.2004095 -0.256096E-06  0.107E-03    2.47      14.5  T
   6    -72.2004096 -0.698087E-08  0.629E-04    2.47      24.5  T
   7    -72.2004096 -0.539298E-08  0.182E-04    2.47      84.9  T
     SCC iter.                  ...        0 min,  0.015 sec
     gradient                   ...        0 min,  0.024 sec
 * total energy  :   -71.3070652 Eh     change       -0.8629630E-04 Eh
   gradient norm :     0.0026594 Eh/α   predicted    -0.5971838E-04 ( -30.80%)
   displ. norm   :     0.2290247 α      lambda       -0.1018411E-03
   maximum displ.:     0.1105379 α      in ANC's #6, #3, #2, ...

........................................................................
.............................. CYCLE   12 ..............................
........................................................................

 iter      E             dE          RMSdq      gap      omega  full diag
   1    -72.2010187 -0.722010E+02  0.564E-02    2.45       0.0  T
   2    -72.2010221 -0.334747E-05  0.325E-02    2.46       1.0  T
   3    -72.2010182  0.385970E-05  0.118E-02    2.46       1.3  T
   4    -72.2010231 -0.488526E-05  0.229E-03    2.46       6.7  T
   5    -72.2010232 -0.127682E-06  0.109E-03    2.46      14.1  T
   6    -72.2010232 -0.567087E-08  0.619E-04    2.46      24.9  T
   7    -72.2010232 -0.545083E-08  0.173E-04    2.46      89.3  T
     SCC iter.                  ...        0 min,  0.015 sec
     gradient                   ...        0 min,  0.045 sec
 * total energy  :   -71.3071425 Eh     change       -0.7725268E-04 Eh
   gradient norm :     0.0031268 Eh/α   predicted    -0.5359859E-04 ( -30.62%)
   displ. norm   :     0.2139095 α      lambda       -0.8718637E-04
   maximum displ.:     0.1118555 α      in ANC's #3, #2, #1, ...

........................................................................
.............................. CYCLE   13 ..............................
........................................................................

 iter      E             dE          RMSdq      gap      omega  full diag
   1    -72.2019339 -0.722019E+02  0.506E-02    2.45       0.0  T
   2    -72.2019364 -0.242916E-05  0.291E-02    2.46       1.0  T
   3    -72.2019348  0.156058E-05  0.804E-03    2.45       1.9  T
   4    -72.2019369 -0.207154E-05  0.195E-03    2.46       7.9  T
   5    -72.2019370 -0.107097E-06  0.913E-04    2.46      16.9  T
   6    -72.2019370 -0.438952E-08  0.470E-04    2.46      32.8  T
     SCC iter.                  ...        0 min,  0.013 sec
     gradient                   ...        0 min,  0.024 sec
 * total energy  :   -71.3072060 Eh     change       -0.6345894E-04 Eh
   gradient norm :     0.0026689 Eh/α   predicted    -0.4558806E-04 ( -28.16%)
   displ. norm   :     0.2462433 α      lambda       -0.7185506E-04
   maximum displ.:     0.1209547 α      in ANC's #3, #2, #1, ...

........................................................................
.............................. CYCLE   14 ..............................
........................................................................

 iter      E             dE          RMSdq      gap      omega  full diag
   1    -72.2003240 -0.722003E+02  0.609E-02    2.44       0.0  T
   2    -72.2003262 -0.219760E-05  0.355E-02    2.44       1.0  T
   3    -72.2003225  0.374559E-05  0.107E-02    2.45       1.4  T
   4    -72.2003272 -0.474215E-05  0.227E-03    2.45       6.8  T
   5    -72.2003273 -0.791177E-07  0.123E-03    2.45      12.5  T
   6    -72.2003273 -0.542673E-08  0.446E-04    2.45      34.6  T
   7    -72.2003273 -0.300275E-08  0.182E-04    2.45      84.6  T
     SCC iter.                  ...        0 min,  0.015 sec
     gradient                   ...        0 min,  0.024 sec
 * total energy  :   -71.3072496 Eh     change       -0.4366195E-04 Eh
   gradient norm :     0.0047140 Eh/α   predicted    -0.3810660E-04 ( -12.72%)
   displ. norm   :     0.1847003 α      lambda       -0.7195389E-04
   maximum displ.:     0.0987712 α      in ANC's #3, #1, #2, ...

........................................................................
.............................. CYCLE   15 ..............................
........................................................................

 iter      E             dE          RMSdq      gap      omega  full diag
   1    -72.2014698 -0.722015E+02  0.389E-02    2.44       0.0  T
   2    -72.2014713 -0.142571E-05  0.229E-02    2.44       1.0  T
   3    -72.2014699  0.134328E-05  0.680E-03    2.44       2.3  T
   4    -72.2014717 -0.174407E-05  0.167E-03    2.44       9.2  T
   5    -72.2014717 -0.705306E-07  0.771E-04    2.44      20.0  T
   6    -72.2014717 -0.370746E-08  0.291E-04    2.44      53.1  T
     SCC iter.                  ...        0 min,  0.013 sec
     gradient                   ...        0 min,  0.024 sec
 * total energy  :   -71.3072893 Eh     change       -0.3967925E-04 Eh
   gradient norm :     0.0020614 Eh/α   predicted    -0.3720461E-04 (  -6.24%)
   displ. norm   :     0.1063854 α      lambda       -0.3096776E-04
   maximum displ.:     0.0536123 α      in ANC's #1, #2, #3, ...

........................................................................
.............................. CYCLE   16 ..............................
........................................................................

 iter      E             dE          RMSdq      gap      omega  full diag
   1    -72.2008648 -0.722009E+02  0.272E-02    2.44       0.0  T
   2    -72.2008651 -0.299457E-06  0.159E-02    2.44       1.0  T
   3    -72.2008650  0.386209E-07  0.205E-03    2.44       7.5  T
   4    -72.2008652 -0.122415E-06  0.931E-04    2.44      16.6  T
   5    -72.2008652 -0.151942E-07  0.494E-04    2.44      31.3  T
     SCC iter.                  ...        0 min,  0.014 sec
     gradient                   ...        0 min,  0.024 sec
 * total energy  :   -71.3073134 Eh     change       -0.2408590E-04 Eh
   gradient norm :     0.0021006 Eh/α   predicted    -0.1565942E-04 ( -34.99%)
   displ. norm   :     0.1326534 α      lambda       -0.4929371E-04
   maximum displ.:     0.0647120 α      in ANC's #1, #2, #7, ...

........................................................................
.............................. CYCLE   17 ..............................
........................................................................

 iter      E             dE          RMSdq      gap      omega  full diag
   1    -72.2007820 -0.722008E+02  0.359E-02    2.44       0.0  T
   2    -72.2007828 -0.786226E-06  0.211E-02    2.43       1.0  T
   3    -72.2007828  0.395581E-07  0.277E-03    2.43       5.6  T
   4    -72.2007829 -0.176981E-06  0.129E-03    2.43      12.0  T
   5    -72.2007830 -0.359102E-07  0.634E-04    2.43      24.4  T
   6    -72.2007830 -0.222336E-08  0.297E-04    2.43      51.9  T
     SCC iter.                  ...        0 min,  0.013 sec
     gradient                   ...        0 min,  0.024 sec
 * total energy  :   -71.3073441 Eh     change       -0.3066460E-04 Eh
   gradient norm :     0.0022072 Eh/α   predicted    -0.2508247E-04 ( -18.20%)
   displ. norm   :     0.0732258 α      lambda       -0.1781607E-04
   maximum displ.:     0.0378318 α      in ANC's #1, #7, #2, ...

........................................................................
.............................. CYCLE   18 ..............................
........................................................................

 iter      E             dE          RMSdq      gap      omega  full diag
   1    -72.2007327 -0.722007E+02  0.192E-02    2.43       0.0  T
   2    -72.2007328 -0.177922E-06  0.113E-02    2.43       1.4  T
   3    -72.2007328  0.251181E-07  0.151E-03    2.43      10.2  T
   4    -72.2007329 -0.640735E-07  0.634E-04    2.43      24.4  T
   5    -72.2007329 -0.818193E-08  0.343E-04    2.43      45.0  T
     SCC iter.                  ...        0 min,  0.011 sec
     gradient                   ...        0 min,  0.024 sec
 * total energy  :   -71.3073576 Eh     change       -0.1350346E-04 Eh
   gradient norm :     0.0021419 Eh/α   predicted    -0.8958018E-05 ( -33.66%)
   displ. norm   :     0.1112549 α      lambda       -0.2468190E-04
   maximum displ.:     0.0609081 α      in ANC's #1, #7, #2, ...

........................................................................
.............................. CYCLE   19 ..............................
........................................................................

 iter      E             dE          RMSdq      gap      omega  full diag
   1    -72.2010974 -0.722011E+02  0.294E-02    2.43       0.0  T
   2    -72.2010977 -0.288653E-06  0.173E-02    2.43       1.0  T
   3    -72.2010973  0.433930E-06  0.369E-03    2.43       4.2  T
   4    -72.2010979 -0.586038E-06  0.934E-04    2.43      16.5  T
   5    -72.2010979 -0.774057E-08  0.540E-04    2.43      28.6  T
     SCC iter.                  ...        0 min,  0.011 sec
     gradient                   ...        0 min,  0.024 sec
 * total energy  :   -71.3073738 Eh     change       -0.1624704E-04 Eh
   gradient norm :     0.0017828 Eh/α   predicted    -0.1249838E-04 ( -23.07%)
   displ. norm   :     0.1109190 α      lambda       -0.1291980E-04
   maximum displ.:     0.0671895 α      in ANC's #1, #2, #7, ...

........................................................................
.............................. CYCLE   20 ..............................
........................................................................

 iter      E             dE          RMSdq      gap      omega  full diag
   1    -72.2012832 -0.722013E+02  0.278E-02    2.42       0.0  T
   2    -72.2012839 -0.708167E-06  0.162E-02    2.43       1.0  T
   3    -72.2012834  0.567567E-06  0.483E-03    2.43       3.2  T
   4    -72.2012841 -0.765421E-06  0.105E-03    2.43      14.6  T
   5    -72.2012842 -0.230292E-07  0.543E-04    2.43      28.4  T
   6    -72.2012842 -0.119465E-08  0.264E-04    2.43      58.5  T
     SCC iter.                  ...        0 min,  0.013 sec
     gradient                   ...        0 min,  0.024 sec
 * total energy  :   -71.3073828 Eh     change       -0.8958630E-05 Eh
   gradient norm :     0.0017022 Eh/α   predicted    -0.6497612E-05 ( -27.47%)
   displ. norm   :     0.0806537 α      lambda       -0.8740411E-05
   maximum displ.:     0.0519127 α      in ANC's #1, #2, #3, ...
 * RMSD in coord.:     0.5071301 α      energy gain  -0.1651668E-01 Eh

generating ANC from exact Hessian ...
Using Lindh-Hessian (1995)
 Shifting diagonal of input Hessian by    9.5392050137894056E-003
 Lowest  eigenvalues of input Hessian
    0.000000    0.000000    0.000000    0.000000    0.000000    0.000000
    0.010000    0.010245    0.010801    0.011707    0.012144    0.012524
    0.013493    0.015007    0.016097    0.018288    0.019620    0.021013
 Highest eigenvalues
    1.972901    2.069052    2.113801    2.200953    2.297924    2.396667


........................................................................
.............................. CYCLE   21 ..............................
........................................................................

 iter      E             dE          RMSdq      gap      omega  full diag
   1    -72.2016609 -0.722017E+02  0.210E-02    2.42       0.0  T
   2    -72.2016615 -0.517491E-06  0.122E-02    2.42       1.3  T
   3    -72.2016610  0.418559E-06  0.416E-03    2.42       3.7  T
   4    -72.2016616 -0.575133E-06  0.950E-04    2.42      16.2  T
   5    -72.2016616 -0.160853E-07  0.501E-04    2.42      30.8  T
     SCC iter.                  ...        0 min,  0.011 sec
     gradient                   ...        0 min,  0.045 sec
 * total energy  :   -71.3073880 Eh     change       -0.5193454E-05 Eh
   gradient norm :     0.0021512 Eh/α   predicted     0.0000000E+00 (-100.00%)
   displ. norm   :     0.0131738 α      lambda       -0.4453278E-05
   maximum displ.:     0.0084656 α      in ANC's #5, #1, #12, ...

........................................................................
.............................. CYCLE   22 ..............................
........................................................................

 iter      E             dE          RMSdq      gap      omega  full diag
   1    -72.2017011 -0.722017E+02  0.497E-03    2.42       0.0  T
   2    -72.2017013 -0.131688E-06  0.296E-03    2.42       5.2  T
   3    -72.2017012  0.102921E-07  0.126E-03    2.42      12.3  T
   4    -72.2017013 -0.186925E-07  0.370E-04    2.42      41.7  T
   5    -72.2017013 -0.530392E-08  0.108E-04    2.42     142.6  T
     SCC iter.                  ...        0 min,  0.011 sec
     gradient                   ...        0 min,  0.024 sec
 * total energy  :   -71.3073928 Eh     change       -0.4857163E-05 Eh
   gradient norm :     0.0006390 Eh/α   predicted    -0.3303956E-05 ( -31.98%)
   displ. norm   :     0.0400067 α      lambda       -0.5403684E-05
   maximum displ.:     0.0274857 α      in ANC's #5, #1, #12, ...

   *** GEOMETRY OPTIMIZATION CONVERGED AFTER 22 ITERATIONS ***

------------------------------------------------------------------------
 total energy gain   :        -0.0165267 Eh      -10.3707 kcal/mol
 total RMSD          :         0.5076718 a0        0.2686 Å
 total power (kW/mol):        -1.9723148 (step)  -34.7432 (real)
------------------------------------------------------------------------

 ANCopt (total)                0 d,  0 h,  0 min,  1.249 sec
 optimizer setup                ...        0 min,  0.000 sec (  0.006%)
 model hessian                  ...        0 min,  0.028 sec (  2.267%)
 ANC generation                 ...        0 min,  0.003 sec (  0.240%)
 coordinate transformation      ...        0 min,  0.000 sec (  0.013%)
 single point calculation       ...        0 min,  1.210 sec ( 96.855%)
 optimization log               ...        0 min,  0.004 sec (  0.330%)
 hessian update                 ...        0 min,  0.000 sec (  0.022%)
 rational function              ...        0 min,  0.002 sec (  0.130%)

================
 final structure:
================
42
 xtb: 6.7.1 (edcfbbe)
O           -5.88429697868451        1.19197996823037       -1.48658554992331
C           -4.86732229641897        1.58328277225377       -2.02061432418403
O           -4.88673077327283        2.39403968541065       -3.07353832008449
C           -3.51809943535126        1.21047236078504       -1.55790591246550
C           -3.45942582198828        0.50278435632808       -0.39510656521599
N           -2.32913091354478        0.06379911488614        0.18344117031891
C           -1.10482157374359        0.37350064833200       -0.39123938453063
C            0.08963398441684       -0.02654118456951        0.20589832776485
C            1.33658191247052        0.26232586079244       -0.35025727842735
N            2.51508899384160       -0.08330237705733        0.26852403488884
C            2.53257632901131       -0.46179301333578        1.66477068155030
C            3.89596034322889       -0.07393938054508        2.26620891965098
N            5.01879512455280       -0.64424766267109        1.55403062451783
C            4.94365337388933       -0.29174993032896        0.14915442890300
C            3.60267674161800       -0.69395624432822       -0.47543424014113
C            1.32371356157986        0.99964353324154       -1.55456186112005
F            2.49414343299743        1.37373425798693       -2.12841914024979
C            0.16259640159989        1.39057949833338       -2.16043729404414
C           -1.08017410400259        1.08883211792581       -1.59758836111150
C           -2.29848474583836        1.54771493986977       -2.29030838558663
O           -2.25066174850620        2.13343794826806       -3.35663693691209
C           -2.39948258558336       -0.66941173273653        1.41328322144371
C           -3.45278403666642       -1.72101470137996        1.58822917923535
C           -2.02049963962642       -2.12417686110974        1.42974278860265
H           -5.80226516890840        2.58575516423975       -3.32952595039562
H           -4.38600532709938        0.27468856407958        0.11453261547144
H            0.04886269430574       -0.59775928586376        1.11650802736722
H            1.75007346282845        0.07792755902297        2.19854055829643
H            2.37030474082917       -1.54617559764024        1.78701048299677
H            3.93988456353424       -0.38852931935412        3.31081789540960
H            4.00153955337865        1.01365709245649        2.22341145304616
H            5.01070016727129       -1.65650704863815        1.65224403121181
H            5.76324356171742       -0.77649778192995       -0.38366004056760
H            5.06603386860259        0.79143731490546        0.07087251332656
H            3.49921076524320       -1.79241889141926       -0.43154822418956
H            3.57346806903598       -0.39349469314237       -1.51840113668060
H            0.18649299440701        1.95931222758006       -3.07712101902321
H           -2.13583958285479       -0.06974660040519        2.28023670339259
H           -3.91592783267855       -1.81237946777753        2.55829223733532
H           -4.12153934199768       -1.91805696810149        0.76534875974444
H           -1.48430957141200       -2.50528818887875        2.28542226997988
H           -1.72763316218236       -2.57191805371521        0.49246900039932

 Bond Distances (Angstroems)
 ---------------------------
O1-C2=1.2135         C2-O1=1.2135         C2-O3=1.3290         C2-C4=1.4743         O3-C2=1.3290         O3-H25=0.9698        
C4-C2=1.4743         C4-C5=1.3625         C4-C20=1.4621        C5-C4=1.3625         C5-N6=1.3435         C5-H26=1.0818        
N6-C5=1.3435         N6-C7=1.3875         N6-C22=1.4335        C7-N6=1.3875         C7-C8=1.3940         C7-C19=1.4027        
C8-C7=1.3940         C8-C9=1.3956         C8-H27=1.0757        C9-C8=1.3956         C9-N10=1.3752        C9-C16=1.4121        
N10-C9=1.3752        N10-C11=1.4467       N10-C15=1.4523       C11-N10=1.4467       C11-C12=1.5398       C11-H28=1.0902       
C11-H29=1.1032       C12-C11=1.5398       C12-N13=1.4468       C12-H30=1.0918       C12-H31=1.0935       N13-C12=1.4468       
N13-C14=1.4504       N13-H32=1.0170       C14-N13=1.4504       C14-C15=1.5330       C14-H33=1.0911       C14-H34=1.0929       
C15-N10=1.4523       C15-C14=1.5330       C15-H35=1.1042       C15-H36=1.0858       C16-C9=1.4121        C16-F17=1.3562       
C16-C18=1.3668       F17-C16=1.3562       C18-C16=1.3668       C18-C19=1.3973       C18-H37=1.0790       C19-C7=1.4027        
C19-C18=1.3973       C19-C20=1.4747       C20-C4=1.4621        C20-C19=1.4747       C20-O21=1.2175       O21-C20=1.2175       
C22-N6=1.4335        C22-C23=1.4986       C22-C24=1.5034       C22-H38=1.0866       C23-C22=1.4986       C23-C24=1.4964       
C23-H39=1.0788       C23-H40=1.0785       C24-C22=1.5034       C24-C23=1.4964       C24-H41=1.0793       C24-H42=1.0792       
H25-O3=0.9698        H26-C5=1.0818        H27-C8=1.0757        H28-C11=1.0902       H29-C11=1.1032       H30-C12=1.0918       
H31-C12=1.0935       H32-N13=1.0170       H33-C14=1.0911       H34-C14=1.0929       H35-C15=1.1042       H36-C15=1.0858       
H37-C18=1.0790       H38-C22=1.0866       H39-C23=1.0788       H40-C23=1.0785       H41-C24=1.0793       H42-C24=1.0792       
 C  H  Rav=1.0870 sigma=0.0085  Rmin=1.0757  Rmax=1.1042    16
 C  C  Rav=1.4475 sigma=0.0581  Rmin=1.3625  Rmax=1.5398    15
 N  H  Rav=1.0170 sigma=0.0000  Rmin=1.0170  Rmax=1.0170     1
 N  C  Rav=1.4170 sigma=0.0394  Rmin=1.3435  Rmax=1.4523     8
 O  H  Rav=0.9698 sigma=0.0000  Rmin=0.9698  Rmax=0.9698     1
 O  C  Rav=1.2534 sigma=0.0535  Rmin=1.2135  Rmax=1.3290     3
 F  C  Rav=1.3562 sigma=0.0000  Rmin=1.3562  Rmax=1.3562     1

 selected bond angles (degree)
 --------------------
O3-C2-O1=122.22                C4-C2-O1=123.18                C4-C2-O3=114.60                H25-O3-C2=110.09               
C5-C4-C2=116.02                C20-C4-C2=123.22               C20-C4-C5=120.76               N6-C5-C4=124.99                
H26-C5-C4=118.34               H26-C5-N6=116.67               C7-N6-C5=119.41                C22-N6-C5=119.69               
C22-N6-C7=120.85               C8-C7-N6=120.97                C19-C7-N6=119.05               C19-C7-C8=119.98               
C9-C8-C7=122.38                H27-C8-C7=118.85               H27-C8-C9=118.76               N10-C9-C8=122.30               
C16-C9-C8=116.09               C16-C9-N10=121.52              C11-N10-C9=120.69              C15-N10-C9=121.13              
C15-N10-C11=112.04             

 selected dihedral angles (degree)
 ---------------------------------
H25-O3-C2-O1=358.85           H25-O3-C2-C4=179.17           C5-C4-C2-O1=353.33            C5-C4-C2-O3=173.01            
C20-C4-C2-O1=172.45           C20-C4-C2-O3=352.12           N6-C5-C4-C2=179.50            N6-C5-C4-C20=  0.36           
H26-C5-C4-C2=359.15           H26-C5-C4-C20=180.01          C7-N6-C5-C4=  2.38            C7-N6-C5-H26=182.73           
C22-N6-C5-C4=179.81           C22-N6-C5-H26=  0.16          C8-C7-N6-C5=177.81            C8-C7-N6-C22=  0.42           
C19-C7-N6-C5=357.19           C19-C7-N6-C22=179.80          C9-C8-C7-N6=179.63            C9-C8-C7-C19=  0.26           
H27-C8-C7-N6=  1.05           H27-C8-C7-C19=181.68          N10-C9-C8-C7=177.18           N10-C9-C8-H27=355.76          
C16-C9-C8-C7=  0.60           C16-C9-C8-H27=179.18          C11-N10-C9-C8=344.56          C11-N10-C9-C16=160.95         
C15-N10-C9-C8=134.82          C15-N10-C9-C16=311.21         
           -------------------------------------------------
          |                Final Singlepoint                |
           -------------------------------------------------

          ...................................................
          :                      SETUP                      :
          :.................................................:
          :  # basis functions                 114          :
          :  # atomic orbitals                 114          :
          :  # shells                           66          :
          :  # electrons                       126          :
          :  max. iterations                   250          :
          :  Hamiltonian                  GFN2-xTB          :
          :  restarted?                      false          :
          :  GBSA solvation                  false          :
          :  PC potential                    false          :
          :  electronic temp.          300.0000000     K    :
          :  accuracy                    1.0000000          :
          :  -> integral cutoff          0.2500000E+02      :
          :  -> integral neglect         0.1000000E-07      :
          :  -> SCF convergence          0.1000000E-05 Eh   :
          :  -> wf. convergence          0.1000000E-03 e    :
          :  Broyden damping             0.4000000          :
          :  net charge                          0          :
          :  unpaired electrons                  0          :
          ...................................................

 iter      E             dE          RMSdq      gap      omega  full diag
   1    -72.2017013 -0.722017E+02  0.544E-05    2.42       0.0  T
   2    -72.2017013 -0.124203E-10  0.331E-05    2.42     466.0  T
   3    -72.2017013 -0.326850E-11  0.224E-05    2.42     689.9  T

   *** convergence criteria satisfied after 3 iterations ***

         #    Occupation            Energy/Eh            Energy/eV
      -------------------------------------------------------------
         1        2.0000           -0.8174638             -22.2443
       ...           ...                  ...                  ...
        57        2.0000           -0.4376374             -11.9087
        58        2.0000           -0.4249813             -11.5643
        59        2.0000           -0.4124233             -11.2226
        60        2.0000           -0.3895171             -10.5993
        61        2.0000           -0.3829283             -10.4200
        62        2.0000           -0.3727752             -10.1437
        63        2.0000           -0.3624867              -9.8638 (HOMO)
        64                         -0.2734433              -7.4408 (LUMO)
        65                         -0.2612147              -7.1080
        66                         -0.2252785              -6.1301
        67                         -0.2034321              -5.5357
        68                         -0.1373925              -3.7386
       ...                                ...                  ...
       114                          0.7139680              19.4281
      -------------------------------------------------------------
                  HL-Gap            0.0890434 Eh            2.4230 eV
             Fermi-level           -0.3179650 Eh           -8.6523 eV

 SCC (total)                   0 d,  0 h,  0 min,  0.049 sec
 SCC setup                      ...        0 min,  0.000 sec (  0.622%)
 Dispersion                     ...        0 min,  0.000 sec (  0.605%)
 classical contributions        ...        0 min,  0.000 sec (  0.290%)
 integral evaluation            ...        0 min,  0.008 sec ( 15.832%)
 iterations                     ...        0 min,  0.007 sec ( 13.447%)
 molecular gradient             ...        0 min,  0.034 sec ( 68.883%)
 printout                       ...        0 min,  0.000 sec (  0.308%)

         :::::::::::::::::::::::::::::::::::::::::::::::::::::
         ::                     SUMMARY                     ::
         :::::::::::::::::::::::::::::::::::::::::::::::::::::
         :: total energy             -71.307392811433 Eh    ::
         :: gradient norm              0.000639206941 Eh/a0 ::
         :: HOMO-LUMO gap              2.422993998503 eV    ::
         ::.................................................::
         :: SCC energy               -72.201609600179 Eh    ::
         :: -> isotropic ES            0.107785300548 Eh    ::
         :: -> anisotropic ES          0.007985250132 Eh    ::
         :: -> anisotropic XC          0.018906218546 Eh    ::
         :: -> dispersion             -0.046089928657 Eh    ::
         :: repulsion energy           0.894216788746 Eh    ::
         :: add. restraining           0.000000000000 Eh    ::
         :: total charge              -0.000000000000 e     ::
         :::::::::::::::::::::::::::::::::::::::::::::::::::::

           -------------------------------------------------
          |                Property Printout                |
           -------------------------------------------------

    * Orbital Energies and Occupations

         #    Occupation            Energy/Eh            Energy/eV
      -------------------------------------------------------------
         1        2.0000           -0.8174638             -22.2443
       ...           ...                  ...                  ...
        51        2.0000           -0.4644721             -12.6389
        52        2.0000           -0.4605939             -12.5334
        53        2.0000           -0.4591928             -12.4953
        54        2.0000           -0.4568136             -12.4305
        55        2.0000           -0.4548894             -12.3782
        56        2.0000           -0.4471331             -12.1671
        57        2.0000           -0.4376374             -11.9087
        58        2.0000           -0.4249813             -11.5643
        59        2.0000           -0.4124233             -11.2226
        60        2.0000           -0.3895171             -10.5993
        61        2.0000           -0.3829283             -10.4200
        62        2.0000           -0.3727752             -10.1437
        63        2.0000           -0.3624867              -9.8638 (HOMO)
        64                         -0.2734433              -7.4408 (LUMO)
        65                         -0.2612147              -7.1080
        66                         -0.2252785              -6.1301
        67                         -0.2034321              -5.5357
        68                         -0.1373925              -3.7386
        69                         -0.0972796              -2.6471
        70                         -0.0773839              -2.1057
        71                         -0.0310072              -0.8437
        72                         -0.0189179              -0.5148
        73                          0.0366966               0.9986
        74                          0.0435077               1.1839
       ...                                ...                  ...
       114                          0.7139680              19.4281
      -------------------------------------------------------------
                  HL-Gap            0.0890434 Eh            2.4230 eV
             Fermi-level           -0.3179650 Eh           -8.6523 eV

     #   Z          covCN         q      C6AA      α(0)
     1   8 O        0.857    -0.454    22.790     6.401
     2   6 C        2.704     0.359    20.901     7.483
     3   8 O        1.660    -0.348    19.872     6.018
     4   6 C        2.956    -0.079    29.968     8.979
     5   6 C        2.883     0.030    27.340     8.572
     6   7 N        2.745    -0.006    21.368     6.866
     7   6 C        2.933     0.051    26.866     8.500
     8   6 C        2.928    -0.091    30.281     9.024
     9   6 C        2.905     0.054    26.791     8.487
    10   7 N        2.739    -0.096    23.125     7.142
    11   6 C        3.754    -0.003    20.683     6.485
    12   6 C        3.757     0.005    20.552     6.464
    13   7 N        2.678    -0.252    26.547     7.652
    14   6 C        3.757     0.003    20.584     6.469
    15   6 C        3.754    -0.001    20.662     6.482
    16   6 C        2.784     0.141    24.913     8.176
    17   9 F        0.787    -0.229    11.543     4.013
    18   6 C        2.922    -0.041    29.024     8.835
    19   6 C        2.983    -0.041    29.010     8.835
    20   6 C        2.830     0.223    23.316     7.912
    21   8 O        0.857    -0.396    21.591     6.230
    22   6 C        3.811     0.028    20.090     6.380
    23   6 C        3.806    -0.070    21.837     6.652
    24   6 C        3.806    -0.068    21.799     6.647
    25   1 H        0.805     0.327     0.645     1.261
    26   1 H        0.925     0.084     1.942     2.179
    27   1 H        0.926     0.046     2.370     2.407
    28   1 H        0.925     0.042     2.416     2.431
    29   1 H        0.923     0.020     2.737     2.587
    30   1 H        0.924     0.040     2.453     2.450
    31   1 H        0.924     0.051     2.313     2.379
    32   1 H        0.860     0.136     1.499     1.918
    33   1 H        0.924     0.042     2.418     2.432
    34   1 H        0.924     0.055     2.259     2.350
    35   1 H        0.923     0.019     2.752     2.594
    36   1 H        0.925     0.065     2.142     2.289
    37   1 H        0.926     0.093     1.852     2.128
    38   1 H        0.925     0.047     2.354     2.399
    39   1 H        0.926     0.054     2.266     2.354
    40   1 H        0.926     0.060     2.195     2.317
    41   1 H        0.926     0.047     2.353     2.399
    42   1 H        0.926     0.054     2.275     2.359

 Mol. C6AA /au·bohr⁶  :      20035.992869
 Mol. C8AA /au·bohr⁸  :     469259.695410
 Mol. α(0) /au        :        215.935259


Wiberg/Mayer (AO) data.
largest (>0.10) Wiberg bond orders for each atom

 ---------------------------------------------------------------------------
     #   Z sym  total        # sym  WBO       # sym  WBO       # sym  WBO
 ---------------------------------------------------------------------------
     1   8 O    1.984 --     2 C    1.683     3 O    0.169
     2   6 C    3.920 --     1 O    1.683     3 O    1.151     4 C    1.029
     3   8 O    2.228 --     2 C    1.151    25 H    0.868     1 O    0.169
     4   6 C    3.971 --     5 C    1.545    20 C    1.080     2 C    1.029
     5   6 C    3.961 --     4 C    1.545     6 N    1.265    26 H    0.950
     6   7 N    3.620 --     5 C    1.265     7 C    1.101    22 C    0.982
     7   6 C    3.962 --     8 C    1.361    19 C    1.304     6 N    1.101
     8   6 C    3.971 --     9 C    1.369     7 C    1.361    27 H    0.959
     9   6 C    3.978 --     8 C    1.369    16 C    1.254    10 N    1.163
    10   7 N    3.376 --     9 C    1.163    11 C    0.998    15 C    0.984
    11   6 C    3.981 --    10 N    0.998    12 C    0.982    28 H    0.970
                            29 H    0.964
    12   6 C    3.986 --    13 N    1.024    11 C    0.982    30 H    0.973
                            31 H    0.972
    13   7 N    3.079 --    12 C    1.024    14 C    1.018    32 H    0.956
    14   6 C    3.985 --    13 N    1.018    15 C    0.990    33 H    0.973
                            34 H    0.971
    15   6 C    3.974 --    14 C    0.990    10 N    0.984    36 H    0.969
                            35 H    0.963
    16   6 C    3.877 --    18 C    1.481     9 C    1.254    17 F    0.947
    17   9 F    1.078 --    16 C    0.947
    18   6 C    3.983 --    16 C    1.481    19 C    1.337    37 H    0.957
    19   6 C    3.978 --    18 C    1.337     7 C    1.304    20 C    1.052
    20   6 C    3.955 --    21 O    1.716     4 C    1.080    19 C    1.052
    21   8 O    2.026 --    20 C    1.716
    22   6 C    3.919 --     6 N    0.982    23 C    0.974    24 C    0.962
                            38 H    0.959
    23   6 C    3.943 --    24 C    0.984    39 H    0.979    40 H    0.975
                            22 C    0.974
    24   6 C    3.940 --    23 C    0.984    41 H    0.979    42 H    0.979
                            22 C    0.962
    25   1 H    0.892 --     3 O    0.868
    26   1 H    0.992 --     5 C    0.950
    27   1 H    0.997 --     8 C    0.959
    28   1 H    0.998 --    11 C    0.970
    29   1 H    0.997 --    11 C    0.964
    30   1 H    0.998 --    12 C    0.973
    31   1 H    0.997 --    12 C    0.972
    32   1 H    0.981 --    13 N    0.956
    33   1 H    0.998 --    14 C    0.973
    34   1 H    0.997 --    14 C    0.971
    35   1 H    0.997 --    15 C    0.963
    36   1 H    0.996 --    15 C    0.969
    37   1 H    0.990 --    18 C    0.957
    38   1 H    0.995 --    22 C    0.959
    39   1 H    0.997 --    23 C    0.979
    40   1 H    0.996 --    23 C    0.975
    41   1 H    0.997 --    24 C    0.979
    42   1 H    0.997 --    24 C    0.979
 ---------------------------------------------------------------------------

Topologies differ in total number of bonds
Writing topology from bond orders to xtbtopo.mol

molecular dipole:
                 x           y           z       tot (Debye)
 q only:        1.296      -1.748       2.505
   full:        0.806      -2.107       2.593       8.736
molecular quadrupole (traceless):
                xx          xy          yy          xz          yz          zz
 q only:       -4.987       3.039       5.960      -8.426       6.876      -0.973
  q+dip:      -10.307      -1.981       9.706      -9.717       7.103       0.601
   full:      -11.493      -1.929      11.398     -10.048       9.550       0.095

           -------------------------------------------------
          |                Geometry Summary                 |
           -------------------------------------------------

      molecular mass/u    :      331.3421713
   center of mass at/Å    :       -0.4592130       0.4035086      -0.5304147
  moments of inertia/u·Å² :        0.1076237E+04   0.3862602E+04   0.4797481E+04
rotational constants/cm⁻¹ :        0.1566350E-01   0.4364321E-02   0.3513851E-02

 * 41 selected distances

     #   Z          #   Z                                           value/Å
     1   8 O        2   6 C                                       1.2134836
     2   6 C        3   8 O                                       1.3290420
     4   6 C        5   6 C                                       1.3624858
     5   6 C        6   7 N                                       1.3435001
     6   7 N        7   6 C                                       1.3874821
     7   6 C        8   6 C                                       1.3940342
     8   6 C        9   6 C                                       1.3955761
     9   6 C       10   7 N                                       1.3752194
    10   7 N       11   6 C                                       1.4467433
    11   6 C       12   6 C                                       1.5397970 (max)
    12   6 C       13   7 N                                       1.4467922
    13   7 N       14   6 C                                       1.4503718
    10   7 N       15   6 C                                       1.4523152
    14   6 C       15   6 C                                       1.5330035
     9   6 C       16   6 C                                       1.4121448
    16   6 C       18   6 C                                       1.3667880
     7   6 C       19   6 C                                       1.4027063
    18   6 C       19   6 C                                       1.3972578
    20   6 C       21   8 O                                       1.2175448
     6   7 N       22   6 C                                       1.4335478
    22   6 C       23   6 C                                       1.4986391
    22   6 C       24   6 C                                       1.5034098
    23   6 C       24   6 C                                       1.4963611
     3   8 O       25   1 H                                       0.9697876 (min)
     5   6 C       26   1 H                                       1.0818085
     8   6 C       27   1 H                                       1.0757150
    11   6 C       28   1 H                                       1.0901924
    11   6 C       29   1 H                                       1.1032500
    12   6 C       30   1 H                                       1.0918353
    12   6 C       31   1 H                                       1.0935469
    13   7 N       32   1 H                                       1.0170451
    14   6 C       33   1 H                                       1.0911462
    14   6 C       34   1 H                                       1.0928860
    15   6 C       35   1 H                                       1.1041973
    15   6 C       36   1 H                                       1.0857764
    18   6 C       37   1 H                                       1.0790446
    22   6 C       38   1 H                                       1.0866069
    23   6 C       39   1 H                                       1.0788291
    23   6 C       40   1 H                                       1.0785137
    24   6 C       41   1 H                                       1.0793207
    24   6 C       42   1 H                                       1.0792244

 * 6 distinct bonds (by element types)

   Z      Z             #   av. dist./Å        max./Å        min./Å
   1 H    6 C          16     1.0869933     1.1041973     1.0757150
   6 C    6 C          12     1.4418503     1.5397970     1.3624858
   1 H    7 N           1     1.0170451     1.0170451     1.0170451
   6 C    7 N           8     1.4169965     1.4523152     1.3435001
   1 H    8 O           1     0.9697876     0.9697876     0.9697876
   6 C    8 O           3     1.2533568     1.3290420     1.2134836


optimized geometry written to: xtbopt.xyz


           -------------------------------------------------
          | TOTAL ENERGY              -71.307392811433 Eh   |
          | GRADIENT NORM               0.000639206941 Eh/α |
          | HOMO-LUMO GAP               2.422993998503 eV   |
           -------------------------------------------------

------------------------------------------------------------------------
 * finished run on 2025/05/15 at 16:05:35.703     
------------------------------------------------------------------------
 total:
 * wall-time:     0 d,  0 h,  0 min,  1.406 sec
 *  cpu-time:     0 d,  0 h,  0 min,  1.155 sec
 * ratio c/w:     0.821 speedup
 SCF:
 * wall-time:     0 d,  0 h,  0 min,  0.092 sec
 *  cpu-time:     0 d,  0 h,  0 min,  0.060 sec
 * ratio c/w:     0.651 speedup
 ANC optimizer:
 * wall-time:     0 d,  0 h,  0 min,  1.300 sec
 *  cpu-time:     0 d,  0 h,  0 min,  1.082 sec
 * ratio c/w:     0.832 speedup



----- Single-point -----
      -----------------------------------------------------------      
     |                   =====================                   |     
     |                           x T B                           |     
     |                   =====================                   |     
     |                         S. Grimme                         |     
     |          Mulliken Center for Theoretical Chemistry        |     
     |                    University of Bonn                     |     
      -----------------------------------------------------------      

   * xtb version 6.7.1 (edcfbbe) compiled by 'conda@3ef47c1a292c' on 2024-11-25

   xtb is free software: you can redistribute it and/or modify it under
   the terms of the GNU Lesser General Public License as published by
   the Free Software Foundation, either version 3 of the License, or
   (at your option) any later version.
   
   xtb is distributed in the hope that it will be useful,
   but WITHOUT ANY WARRANTY; without even the implied warranty of
   MERCHANTABILITY or FITNESS FOR A PARTICULAR PURPOSE.  See the
   GNU Lesser General Public License for more details.
   
   Cite this work as:
   * C. Bannwarth, E. Caldeweyher, S. Ehlert, A. Hansen, P. Pracht,
     J. Seibert, S. Spicher, S. Grimme, WIREs Comput. Mol. Sci., 2020, 11,
     e01493. DOI: 10.1002/wcms.1493
   
   for GFN2-xTB:
   * C. Bannwarth, S. Ehlert and S. Grimme., J. Chem. Theory Comput., 2019,
     15, 1652-1671. DOI: 10.1021/acs.jctc.8b01176
   for GFN1-xTB:
   * S. Grimme, C. Bannwarth, P. Shushkov, J. Chem. Theory Comput., 2017,
     13, 1989-2009. DOI: 10.1021/acs.jctc.7b00118
   for GFN0-xTB:
   * P. Pracht, E. Caldeweyher, S. Ehlert, S. Grimme, ChemRxiv, 2019, preprint.
     DOI: 10.26434/chemrxiv.8326202.v1
   for GFN-FF:
   * S. Spicher and S. Grimme, Angew. Chem. Int. Ed., 2020, 59, 15665-15673.
     DOI: 10.1002/anie.202004239
   
   for ALPB and GBSA implicit solvation:
   * S. Ehlert, M. Stahn, S. Spicher, S. Grimme, J. Chem. Theory Comput.,
     2021, 17, 4250-4261. DOI: 10.1021/acs.jctc.1c00471
   
   for ddCOSMO and CPCM-X implicit solvation:
   * M. Stahn, S. Ehlert, S. Grimme, J. Phys. Chem. A,
     2023, XX, XXXX-XXXX. DOI: 10.1021/acs.jpca.3c04382
   
   for DFT-D4:
   * E. Caldeweyher, C. Bannwarth and S. Grimme, J. Chem. Phys., 2017,
     147, 034112. DOI: 10.1063/1.4993215
   * E. Caldeweyher, S. Ehlert, A. Hansen, H. Neugebauer, S. Spicher,
     C. Bannwarth and S. Grimme, J. Chem. Phys., 2019, 150, 154122.
     DOI: 10.1063/1.5090222
   * E. Caldeweyher, J.-M. Mewes, S. Ehlert and S. Grimme, Phys. Chem. Chem. Phys.
     2020, 22, 8499-8512. DOI: 10.1039/D0CP00502A
   
   for sTDA-xTB:
   * S. Grimme and C. Bannwarth, J. Chem. Phys., 2016, 145, 054103.
     DOI: 10.1063/1.4959605
   
   in the mass-spec context:
   * V. Asgeirsson, C. Bauer and S. Grimme, Chem. Sci., 2017, 8, 4879.
     DOI: 10.1039/c7sc00601b
   * J. Koopman and S. Grimme, ACS Omega 2019, 4, 12, 15120-15133.
     DOI: 10.1021/acsomega.9b02011
   
   for metadynamics refer to:
   * S. Grimme, J. Chem. Theory Comput., 2019, 155, 2847-2862
     DOI: 10.1021/acs.jctc.9b00143
   
   for SPH calculations refer to:
   * S. Spicher and S. Grimme, J. Chem. Theory Comput., 2021, 17, 1701-1714
     DOI: 10.1021/acs.jctc.0c01306
   
   for ONIOM refer to:
   * C. Plett, A. Katbashev, S. Ehlert, S. Grimme, M. Bursch,
     Phys. Chem. Chem. Phys., 2023, 25, 17860-17868. DOI: 10.1039/D3CP02178E
   
   for DIPRO refer to:
   * J. Kohn, N. Gildemeister, S. Grimme, D. Fazzi, A. Hansen,
     J. Chem. Phys., 2023, just accepted.
   
   for PTB refer to:
   * S. Grimme, M. Mueller, A. Hansen, J. Chem. Phys., 2023, 158, 124111.
     DOI: 10.1063/5.0137838
   
   with help from (in alphabetical order)
   P. Atkinson, C. Bannwarth, F. Bohle, G. Brandenburg, E. Caldeweyher
   M. Checinski, S. Dohm, S. Ehlert, S. Ehrlich, I. Gerasimov, C. Hölzer
   A. Katbashev, J. Kohn, J. Koopman, C. Lavigne, S. Lehtola, F. März, M. Müller,
   F. Musil, H. Neugebauer, J. Pisarek, C. Plett, P. Pracht, F. Pultar,
   J. Seibert, P. Shushkov, S. Spicher, M. Stahn, M. Steiner, T. Strunk,
   J. Stückrath, T. Rose, and J. Unsleber
   
 * started run on 2025/05/15 at 16:05:35.719     
   ID    Z sym.   atoms
    1    8 O      1, 3, 21
    2    6 C      2, 4, 5, 7-9, 11, 12, 14-16, 18-20, 22-24
    3    7 N      6, 10, 13
    4    9 F      17
    5    1 H      25-42

           -------------------------------------------------
          |                Calculation Setup                |
           -------------------------------------------------

          program call               : xtb /rds/general/user/hgt20/home/callum/QDESCP/Ciprofloxacin_rdkit_conf_13/Ciprofloxacin_rdkit_conf_13.xyz --acc 1 --gfn 2 --chrg 0 --uhf 0 --etemp 300 --input /rds/general/user/hgt20/home/callum/QDESCP/Ciprofloxacin_rdkit_conf_13/Ciprofloxacin_rdkit_conf_13_xtb.inp -P 1
          hostname                   : login-c
          coordinate file            : /rds/general/user/hgt20/home/callum/QDESCP/Ciprofloxacin_rdkit_conf_13/Ciprofloxacin_rdkit_conf_13.xyz
          omp threads                :                     1


           -------------------------------------------------
          |                 G F N 2 - x T B                 |
           -------------------------------------------------

        Reference                      10.1021/acs.jctc.8b01176
      * Hamiltonian:
        H0-scaling (s, p, d)           1.850000    2.230000    2.230000
        zeta-weighting                 0.500000
      * Dispersion:
        s8                             2.700000
        a1                             0.520000
        a2                             5.000000
        s9                             5.000000
      * Repulsion:
        kExp                           1.500000    1.000000
        rExp                           1.000000
      * Coulomb:
        alpha                          2.000000
        third order                    shell-resolved
        anisotropic                    true
        a3                             3.000000
        a5                             4.000000
        cn-shift                       1.200000
        cn-exp                         4.000000
        max-rad                        5.000000

q/qsh data taken from xtbrestart
CAMM data taken from xtbrestart

          ...................................................
          :                      SETUP                      :
          :.................................................:
          :  # basis functions                 114          :
          :  # atomic orbitals                 114          :
          :  # shells                           66          :
          :  # electrons                       126          :
          :  max. iterations                   250          :
          :  Hamiltonian                  GFN2-xTB          :
          :  restarted?                       true          :
          :  GBSA solvation                  false          :
          :  PC potential                    false          :
          :  electronic temp.          300.0000000     K    :
          :  accuracy                    1.0000000          :
          :  -> integral cutoff          0.2500000E+02      :
          :  -> integral neglect         0.1000000E-07      :
          :  -> SCF convergence          0.1000000E-05 Eh   :
          :  -> wf. convergence          0.1000000E-03 e    :
          :  Broyden damping             0.4000000          :
          :  net charge                          0          :
          :  unpaired electrons                  0          :
          ...................................................

 iter      E             dE          RMSdq      gap      omega  full diag
   1    -72.2017013 -0.722017E+02  0.544E-06    2.42       0.0  T
   2    -72.2017013  0.383693E-12  0.345E-06    2.42    4474.8  T
   3    -72.2017013 -0.682121E-12  0.214E-06    2.42    7222.8  T

   *** convergence criteria satisfied after 3 iterations ***

         #    Occupation            Energy/Eh            Energy/eV
      -------------------------------------------------------------
         1        2.0000           -0.8174637             -22.2443
       ...           ...                  ...                  ...
        57        2.0000           -0.4376374             -11.9087
        58        2.0000           -0.4249813             -11.5643
        59        2.0000           -0.4124233             -11.2226
        60        2.0000           -0.3895171             -10.5993
        61        2.0000           -0.3829282             -10.4200
        62        2.0000           -0.3727751             -10.1437
        63        2.0000           -0.3624867              -9.8638 (HOMO)
        64                         -0.2734433              -7.4408 (LUMO)
        65                         -0.2612146              -7.1080
        66                         -0.2252785              -6.1301
        67                         -0.2034320              -5.5357
        68                         -0.1373924              -3.7386
       ...                                ...                  ...
       114                          0.7139682              19.4281
      -------------------------------------------------------------
                  HL-Gap            0.0890433 Eh            2.4230 eV
             Fermi-level           -0.3179650 Eh           -8.6523 eV

 SCC (total)                   0 d,  0 h,  0 min,  0.041 sec
 SCC setup                      ...        0 min,  0.000 sec (  0.895%)
 Dispersion                     ...        0 min,  0.000 sec (  1.093%)
 classical contributions        ...        0 min,  0.000 sec (  0.359%)
 integral evaluation            ...        0 min,  0.008 sec ( 19.528%)
 iterations                     ...        0 min,  0.008 sec ( 19.660%)
 molecular gradient             ...        0 min,  0.024 sec ( 57.870%)
 printout                       ...        0 min,  0.000 sec (  0.577%)

         :::::::::::::::::::::::::::::::::::::::::::::::::::::
         ::                     SUMMARY                     ::
         :::::::::::::::::::::::::::::::::::::::::::::::::::::
         :: total energy             -71.307392811441 Eh    ::
         :: gradient norm              0.000639334146 Eh/a0 ::
         :: HOMO-LUMO gap              2.422992298548 eV    ::
         ::.................................................::
         :: SCC energy               -72.201609600187 Eh    ::
         :: -> isotropic ES            0.107785086038 Eh    ::
         :: -> anisotropic ES          0.007985294229 Eh    ::
         :: -> anisotropic XC          0.018906214552 Eh    ::
         :: -> dispersion             -0.046089930274 Eh    ::
         :: repulsion energy           0.894216788746 Eh    ::
         :: add. restraining           0.000000000000 Eh    ::
         :: total charge               0.000000000000 e     ::
         :::::::::::::::::::::::::::::::::::::::::::::::::::::

           -------------------------------------------------
          |                Property Printout                |
           -------------------------------------------------

    * Orbital Energies and Occupations

         #    Occupation            Energy/Eh            Energy/eV
      -------------------------------------------------------------
         1        2.0000           -0.8174637             -22.2443
       ...           ...                  ...                  ...
        51        2.0000           -0.4644721             -12.6389
        52        2.0000           -0.4605939             -12.5334
        53        2.0000           -0.4591929             -12.4953
        54        2.0000           -0.4568136             -12.4305
        55        2.0000           -0.4548894             -12.3782
        56        2.0000           -0.4471331             -12.1671
        57        2.0000           -0.4376374             -11.9087
        58        2.0000           -0.4249813             -11.5643
        59        2.0000           -0.4124233             -11.2226
        60        2.0000           -0.3895171             -10.5993
        61        2.0000           -0.3829282             -10.4200
        62        2.0000           -0.3727751             -10.1437
        63        2.0000           -0.3624867              -9.8638 (HOMO)
        64                         -0.2734433              -7.4408 (LUMO)
        65                         -0.2612146              -7.1080
        66                         -0.2252785              -6.1301
        67                         -0.2034320              -5.5357
        68                         -0.1373924              -3.7386
        69                         -0.0972796              -2.6471
        70                         -0.0773838              -2.1057
        71                         -0.0310073              -0.8438
        72                         -0.0189180              -0.5148
        73                          0.0366967               0.9986
        74                          0.0435077               1.1839
       ...                                ...                  ...
       114                          0.7139682              19.4281
      -------------------------------------------------------------
                  HL-Gap            0.0890433 Eh            2.4230 eV
[...]
   * S. Ehlert, M. Stahn, S. Spicher, S. Grimme, J. Chem. Theory Comput.,
     2021, 17, 4250-4261. DOI: 10.1021/acs.jctc.1c00471
   
   for ddCOSMO and CPCM-X implicit solvation:
   * M. Stahn, S. Ehlert, S. Grimme, J. Phys. Chem. A,
     2023, XX, XXXX-XXXX. DOI: 10.1021/acs.jpca.3c04382
   
   for DFT-D4:
   * E. Caldeweyher, C. Bannwarth and S. Grimme, J. Chem. Phys., 2017,
     147, 034112. DOI: 10.1063/1.4993215
   * E. Caldeweyher, S. Ehlert, A. Hansen, H. Neugebauer, S. Spicher,
     C. Bannwarth and S. Grimme, J. Chem. Phys., 2019, 150, 154122.
     DOI: 10.1063/1.5090222
   * E. Caldeweyher, J.-M. Mewes, S. Ehlert and S. Grimme, Phys. Chem. Chem. Phys.
     2020, 22, 8499-8512. DOI: 10.1039/D0CP00502A
   
   for sTDA-xTB:
   * S. Grimme and C. Bannwarth, J. Chem. Phys., 2016, 145, 054103.
     DOI: 10.1063/1.4959605
   
   in the mass-spec context:
   * V. Asgeirsson, C. Bauer and S. Grimme, Chem. Sci., 2017, 8, 4879.
     DOI: 10.1039/c7sc00601b
   * J. Koopman and S. Grimme, ACS Omega 2019, 4, 12, 15120-15133.
     DOI: 10.1021/acsomega.9b02011
   
   for metadynamics refer to:
   * S. Grimme, J. Chem. Theory Comput., 2019, 155, 2847-2862
     DOI: 10.1021/acs.jctc.9b00143
   
   for SPH calculations refer to:
   * S. Spicher and S. Grimme, J. Chem. Theory Comput., 2021, 17, 1701-1714
     DOI: 10.1021/acs.jctc.0c01306
   
   for ONIOM refer to:
   * C. Plett, A. Katbashev, S. Ehlert, S. Grimme, M. Bursch,
     Phys. Chem. Chem. Phys., 2023, 25, 17860-17868. DOI: 10.1039/D3CP02178E
   
   for DIPRO refer to:
   * J. Kohn, N. Gildemeister, S. Grimme, D. Fazzi, A. Hansen,
     J. Chem. Phys., 2023, just accepted.
   
   for PTB refer to:
   * S. Grimme, M. Mueller, A. Hansen, J. Chem. Phys., 2023, 158, 124111.
     DOI: 10.1063/5.0137838
   
   with help from (in alphabetical order)
   P. Atkinson, C. Bannwarth, F. Bohle, G. Brandenburg, E. Caldeweyher
   M. Checinski, S. Dohm, S. Ehlert, S. Ehrlich, I. Gerasimov, C. Hölzer
   A. Katbashev, J. Kohn, J. Koopman, C. Lavigne, S. Lehtola, F. März, M. Müller,
   F. Musil, H. Neugebauer, J. Pisarek, C. Plett, P. Pracht, F. Pultar,
   J. Seibert, P. Shushkov, S. Spicher, M. Stahn, M. Steiner, T. Strunk,
   J. Stückrath, T. Rose, and J. Unsleber
   
 * started run on 2025/05/15 at 16:05:37.201     
   ID    Z sym.   atoms
    1    8 O      1, 3, 21
    2    6 C      2, 4, 5, 7-9, 11, 12, 14-16, 18-20, 22-24
    3    7 N      6, 10, 13
    4    9 F      17
    5    1 H      25-42

           -------------------------------------------------
          |                Calculation Setup                |
           -------------------------------------------------

          program call               : xtb /rds/general/user/hgt20/home/callum/QDESCP/Ciprofloxacin_rdkit_conf_13/Ciprofloxacin_rdkit_conf_13.xyz --acc 1 --gfn 2 --chrg 0 --uhf 2 --etemp 300 --input /rds/general/user/hgt20/home/callum/QDESCP/Ciprofloxacin_rdkit_conf_13/Ciprofloxacin_rdkit_conf_13_xtb.inp -P 1
          hostname                   : login-c
          coordinate file            : /rds/general/user/hgt20/home/callum/QDESCP/Ciprofloxacin_rdkit_conf_13/Ciprofloxacin_rdkit_conf_13.xyz
          omp threads                :                     1


           -------------------------------------------------
          |                 G F N 2 - x T B                 |
           -------------------------------------------------

        Reference                      10.1021/acs.jctc.8b01176
      * Hamiltonian:
        H0-scaling (s, p, d)           1.850000    2.230000    2.230000
        zeta-weighting                 0.500000
      * Dispersion:
        s8                             2.700000
        a1                             0.520000
        a2                             5.000000
        s9                             5.000000
      * Repulsion:
        kExp                           1.500000    1.000000
        rExp                           1.000000
      * Coulomb:
        alpha                          2.000000
        third order                    shell-resolved
        anisotropic                    true
        a3                             3.000000
        a5                             4.000000
        cn-shift                       1.200000
        cn-exp                         4.000000
        max-rad                        5.000000


          ...................................................
          :                      SETUP                      :
          :.................................................:
          :  # basis functions                 114          :
          :  # atomic orbitals                 114          :
          :  # shells                           66          :
          :  # electrons                       126          :
          :  max. iterations                   250          :
          :  Hamiltonian                  GFN2-xTB          :
          :  restarted?                      false          :
          :  GBSA solvation                  false          :
          :  PC potential                    false          :
          :  electronic temp.          300.0000000     K    :
          :  accuracy                    1.0000000          :
          :  -> integral cutoff          0.2500000E+02      :
          :  -> integral neglect         0.1000000E-07      :
          :  -> SCF convergence          0.1000000E-05 Eh   :
          :  -> wf. convergence          0.1000000E-03 e    :
          :  Broyden damping             0.4000000          :
          :  net charge                          0          :
          :  unpaired electrons                  2          :
          ...................................................

 iter      E             dE          RMSdq      gap      omega  full diag
   1    -71.8107860 -0.718108E+02  0.391E+00    0.20       0.0  T
   2    -71.8136583 -0.287233E-02  0.310E+00    0.17       1.0  T
   3    -71.9605643 -0.146906E+00  0.219E+00    0.64       1.0  T
   4    -71.9845077 -0.239434E-01  0.149E+00    0.42       1.0  T
   5    -71.9982015 -0.136938E-01  0.113E+00    0.27       1.0  T
   6    -72.0573443 -0.591428E-01  0.642E-01    0.22       1.0  T
   7    -72.0160936  0.412507E-01  0.989E-01    0.16       1.0  T
   8    -72.0867006 -0.706070E-01  0.343E-01    0.13       1.0  T
   9    -72.0735727  0.131280E-01  0.515E-01    0.12       1.0  T
  10    -72.0944966 -0.209239E-01  0.166E-01    0.14       1.0  T
  11    -72.0834605  0.110361E-01  0.374E-01    0.13       1.0  T
  12    -72.0949489 -0.114884E-01  0.776E-02    0.13       1.0  T
  13    -72.0946730  0.275883E-03  0.909E-02    0.12       1.0  T
  14    -72.0951704 -0.497447E-03  0.448E-02    0.13       1.0  T
  15    -72.0953355 -0.165018E-03  0.644E-03    0.12       2.4  T
  16    -72.0953373 -0.186884E-05  0.191E-03    0.13       8.1  T
  17    -72.0953318  0.548153E-05  0.841E-03    0.13       1.8  T
  18    -72.0953366 -0.477386E-05  0.336E-03    0.13       4.6  T
  19    -72.0953375 -0.885527E-06  0.344E-04    0.13      44.8  T
  20    -72.0953375 -0.113756E-07  0.751E-05    0.13     205.6  T

   *** convergence criteria satisfied after 20 iterations ***

         #    Occupation            Energy/Eh            Energy/eV
      -------------------------------------------------------------
         1        2.0000           -0.8153852             -22.1878
       ...           ...                  ...                  ...
        58        2.0000           -0.4132036             -11.2438
        59        2.0000           -0.4044810             -11.0065
        60        2.0000           -0.3993302             -10.8663
        61        1.9654           -0.3767744             -10.2526
        62        1.6571           -0.3742295             -10.1833
        63        1.3775           -0.3731368             -10.1536
        64        0.9184           -0.2574238              -7.0049 (HOMO)
        65        0.0816           -0.2528235              -6.8797 (LUMO)
        66                         -0.2111888              -5.7467
        67                         -0.1957370              -5.3263
        68                         -0.1259852              -3.4282
        69                         -0.0858417              -2.3359
       ...                                ...                  ...
       114                          0.7221983              19.6520
      -------------------------------------------------------------
                  HL-Gap            0.0046003 Eh            0.1252 eV
             Fermi-level           -0.3143677 Eh           -8.5544 eV

 transition dipole moment (au) for excitation:          63          64
     X       Y       Z   
  -0.9604   0.3980  -0.6467  total (au/Debye):    1.224   3.112
 dE (eV)             :    3.149
 oscillator strength :  0.16352E+00

 SCC (total)                   0 d,  0 h,  0 min,  0.085 sec
 SCC setup                      ...        0 min,  0.000 sec (  0.450%)
 Dispersion                     ...        0 min,  0.001 sec (  0.588%)
 classical contributions        ...        0 min,  0.000 sec (  0.177%)
 integral evaluation            ...        0 min,  0.008 sec (  9.742%)
 iterations                     ...        0 min,  0.045 sec ( 52.367%)
 molecular gradient             ...        0 min,  0.024 sec ( 28.099%)
 printout                       ...        0 min,  0.007 sec (  8.569%)

         :::::::::::::::::::::::::::::::::::::::::::::::::::::
         ::                     SUMMARY                     ::
         :::::::::::::::::::::::::::::::::::::::::::::::::::::
         :: total energy             -71.201029057762 Eh    ::
         :: gradient norm              0.086004290501 Eh/a0 ::
         :: HOMO-LUMO gap              0.125180848496 eV    ::
         ::.................................................::
         :: SCC energy               -72.095245846508 Eh    ::
         :: -> isotropic ES            0.101209342861 Eh    ::
         :: -> anisotropic ES          0.006894866239 Eh    ::
         :: -> anisotropic XC          0.016700768139 Eh    ::
         :: -> dispersion             -0.046072152087 Eh    ::
         :: repulsion energy           0.894216788746 Eh    ::
         :: add. restraining           0.000000000000 Eh    ::
         :: total charge               0.000000000929 e     ::
         :::::::::::::::::::::::::::::::::::::::::::::::::::::

           -------------------------------------------------
          |                Property Printout                |
           -------------------------------------------------

    * Orbital Energies and Occupations

         #    Occupation            Energy/Eh            Energy/eV
      -------------------------------------------------------------
         1        2.0000           -0.8153852             -22.1878
       ...           ...                  ...                  ...
        52        2.0000           -0.4596690             -12.5082
        53        2.0000           -0.4533232             -12.3356
        54        2.0000           -0.4505328             -12.2596
        55        2.0000           -0.4461825             -12.1412
        56        2.0000           -0.4414898             -12.0135
        57        2.0000           -0.4326061             -11.7718
        58        2.0000           -0.4132036             -11.2438
        59        2.0000           -0.4044810             -11.0065
        60        2.0000           -0.3993302             -10.8663
        61        1.9654           -0.3767744             -10.2526
        62        1.6571           -0.3742295             -10.1833
        63        1.3775           -0.3731368             -10.1536
        64        0.9184           -0.2574238              -7.0049 (HOMO)
        65        0.0816           -0.2528235              -6.8797 (LUMO)
        66                         -0.2111888              -5.7467
        67                         -0.1957370              -5.3263
        68                         -0.1259852              -3.4282
        69                         -0.0858417              -2.3359
        70                         -0.0665130              -1.8099
        71                         -0.0320742              -0.8728
        72                         -0.0126455              -0.3441
        73                          0.0268484               0.7306
        74                          0.0411537               1.1198
        75                          0.0513962               1.3986
       ...                                ...                  ...
       114                          0.7221983              19.6520
      -------------------------------------------------------------
                  HL-Gap            0.0046003 Eh            0.1252 eV
             Fermi-level           -0.3143677 Eh           -8.5544 eV

     #   Z          covCN         q      C6AA      α(0)
     1   8 O        0.857    -0.451    22.730     6.392
     2   6 C        2.704     0.356    20.954     7.493
     3   8 O        1.660    -0.359    20.063     6.047
     4   6 C        2.956    -0.070    29.752     8.947
     5   6 C        2.883    -0.008    28.213     8.708
     6   7 N        2.745    -0.020    21.634     6.908
     7   6 C        2.933     0.053    26.809     8.492
     8   6 C        2.928    -0.106    30.664     9.081
     9   6 C        2.905     0.029    27.357     8.576
    10   7 N        2.739    -0.064    22.480     7.042
    11   6 C        3.754    -0.006    20.742     6.494
    12   6 C        3.757     0.001    20.610     6.473
    13   7 N        2.678    -0.229    26.005     7.574
    14   6 C        3.757     0.000    20.630     6.476
    15   6 C        3.754    -0.006    20.741     6.494
    16   6 C        2.784     0.142    24.897     8.173
    17   9 F        0.787    -0.232    11.568     4.018
    18   6 C        2.922    -0.072    29.800     8.952
    19   6 C        2.983    -0.016    28.405     8.742
    20   6 C        2.830     0.196    23.823     7.998
    21   8 O        0.857    -0.350    20.699     6.100
    22   6 C        3.811     0.031    20.042     6.372
    23   6 C        3.806    -0.069    21.825     6.650
    24   6 C        3.806    -0.069    21.810     6.648
    25   1 H        0.805     0.326     0.648     1.264
    26   1 H        0.925     0.072     2.068     2.249
    27   1 H        0.926     0.036     2.507     2.476
    28   1 H        0.925     0.056     2.243     2.342
    29   1 H        0.923     0.034     2.538     2.491
    30   1 H        0.924     0.048     2.345     2.395
    31   1 H        0.924     0.059     2.216     2.328
    32   1 H        0.860     0.146     1.430     1.873
    33   1 H        0.924     0.050     2.314     2.379
    34   1 H        0.924     0.063     2.162     2.299
    35   1 H        0.923     0.032     2.561     2.503
    36   1 H        0.925     0.076     2.022     2.223
    37   1 H        0.926     0.076     2.023     2.224
    38   1 H        0.925     0.041     2.431     2.438
    39   1 H        0.926     0.050     2.317     2.380
    40   1 H        0.926     0.060     2.196     2.317
    41   1 H        0.926     0.042     2.428     2.437
    42   1 H        0.926     0.051     2.306     2.374

 Mol. C6AA /au·bohr⁶  :      20012.638785
 Mol. C8AA /au·bohr⁸  :     469225.992761
 Mol. α(0) /au        :        215.842933


Wiberg/Mayer (AO) data.
largest (>0.10) Wiberg bond orders for each atom

 ---------------------------------------------------------------------------
     #   Z sym  total        # sym  WBO       # sym  WBO       # sym  WBO
 ---------------------------------------------------------------------------
     1   8 O    1.957 --     2 C    1.659     3 O    0.158
     2   6 C    3.889 --     1 O    1.659     3 O    1.137     4 C    1.035
     3   8 O    2.205 --     2 C    1.137    25 H    0.868     1 O    0.158
     4   6 C    3.855 --     5 C    1.451    20 C    1.076     2 C    1.035
     5   6 C    3.858 --     4 C    1.451     6 N    1.190    26 H    0.948
     6   7 N    3.552 --     5 C    1.190     7 C    1.115    22 C    0.988
     7   6 C    3.937 --     8 C    1.373    19 C    1.268     6 N    1.115
     8   6 C    3.881 --     7 C    1.373     9 C    1.263    27 H    0.959
     9   6 C    3.899 --    16 C    1.283     8 C    1.263    10 N    1.130
    10   7 N    3.288 --     9 C    1.130    11 C    1.008    15 C    0.996
    11   6 C    3.969 --    10 N    1.008    12 C    0.970    28 H    0.969
                            29 H    0.958
    12   6 C    3.973 --    13 N    1.027    30 H    0.972    31 H    0.970
                            11 C    0.970
    13   7 N    3.094 --    12 C    1.027    14 C    1.021    32 H    0.953
    14   6 C    3.972 --    13 N    1.021    15 C    0.977    33 H    0.972
                            34 H    0.969
    15   6 C    3.960 --    10 N    0.996    14 C    0.977    36 H    0.967
                            35 H    0.956
    16   6 C    3.799 --    18 C    1.394     9 C    1.283    17 F    0.945
    17   9 F    1.068 --    16 C    0.945
    18   6 C    3.919 --    16 C    1.394    19 C    1.291    37 H    0.960
    19   6 C    3.831 --    18 C    1.291     7 C    1.268    20 C    1.040
    20   6 C    3.875 --    21 O    1.564     4 C    1.076    19 C    1.040
    21   8 O    1.864 --    20 C    1.564
    22   6 C    3.923 --     6 N    0.988    23 C    0.975    24 C    0.960
                            38 H    0.959
    23   6 C    3.943 --    24 C    0.983    39 H    0.980    40 H    0.975
                            22 C    0.975
    24   6 C    3.938 --    23 C    0.983    41 H    0.980    42 H    0.979
                            22 C    0.960
    25   1 H    0.892 --     3 O    0.868
    26   1 H    0.987 --     5 C    0.948
    27   1 H    0.997 --     8 C    0.959
    28   1 H    0.997 --    11 C    0.969
    29   1 H    0.986 --    11 C    0.958
    30   1 H    0.996 --    12 C    0.972
    31   1 H    0.995 --    12 C    0.970
    32   1 H    0.977 --    13 N    0.953
    33   1 H    0.996 --    14 C    0.972
    34   1 H    0.994 --    14 C    0.969
    35   1 H    0.984 --    15 C    0.956
    36   1 H    0.994 --    15 C    0.967
    37   1 H    0.993 --    18 C    0.960
    38   1 H    0.995 --    22 C    0.959
    39   1 H    0.997 --    23 C    0.980
    40   1 H    0.996 --    23 C    0.975
    41   1 H    0.998 --    24 C    0.980
    42   1 H    0.997 --    24 C    0.979
 ---------------------------------------------------------------------------

Topologies differ in total number of bonds
Writing topology from bond orders to xtbtopo.mol

molecular dipole:
                 x           y           z       tot (Debye)
 q only:        2.517      -1.898       2.711
   full:        2.107      -2.222       2.764      10.485
molecular quadrupole (traceless):
                xx          xy          yy          xz          yz          zz
 q only:       -1.753       1.300       3.759      -5.001       6.936      -2.005
  q+dip:       -6.764      -3.883       7.221      -5.483       6.740      -0.457
   full:       -7.446      -3.859       8.435      -5.784       8.759      -0.989


           -------------------------------------------------
          | TOTAL ENERGY              -71.201029057762 Eh   |
          | GRADIENT NORM               0.086004290501 Eh/α |
          | HOMO-LUMO GAP               0.125180848496 eV   |
           -------------------------------------------------

------------------------------------------------------------------------
 * finished run on 2025/05/15 at 16:05:37.301     
------------------------------------------------------------------------
 total:
 * wall-time:     0 d,  0 h,  0 min,  0.099 sec
 *  cpu-time:     0 d,  0 h,  0 min,  0.097 sec
 * ratio c/w:     0.978 speedup
 SCF:
 * wall-time:     0 d,  0 h,  0 min,  0.085 sec
 *  cpu-time:     0 d,  0 h,  0 min,  0.085 sec
 * ratio c/w:     0.995 speedup


