42
 energy: -71.307392811433 gnorm: 0.000639206941 xtb: 6.7.1 (edcfbbe)
O           -5.88429697868451        1.19197996823037       -1.48658554992331
C           -4.86732229641897        1.58328277225377       -2.02061432418403
O           -4.88673077327283        2.39403968541065       -3.07353832008449
C           -3.51809943535126        1.21047236078504       -1.55790591246550
C           -3.45942582198828        0.50278435632808       -0.39510656521599
N           -2.32913091354478        0.06379911488614        0.18344117031891
C           -1.10482157374359        0.37350064833200       -0.39123938453063
C            0.08963398441684       -0.02654118456951        0.20589832776485
C            1.33658191247052        0.26232586079244       -0.35025727842735
N            2.51508899384160       -0.08330237705733        0.26852403488884
C            2.53257632901131       -0.46179301333578        1.66477068155030
C            3.89596034322889       -0.07393938054508        2.26620891965098
N            5.01879512455280       -0.64424766267109        1.55403062451783
C            4.94365337388933       -0.29174993032896        0.14915442890300
C            3.60267674161800       -0.69395624432822       -0.47543424014113
C            1.32371356157986        0.99964353324154       -1.55456186112005
F            2.49414343299743        1.37373425798693       -2.12841914024979
C            0.16259640159989        1.39057949833338       -2.16043729404414
C           -1.08017410400259        1.08883211792581       -1.59758836111150
C           -2.29848474583836        1.54771493986977       -2.29030838558663
O           -2.25066174850620        2.13343794826806       -3.35663693691209
C           -2.39948258558336       -0.66941173273653        1.41328322144371
C           -3.45278403666642       -1.72101470137996        1.58822917923535
C           -2.02049963962642       -2.12417686110974        1.42974278860265
H           -5.80226516890840        2.58575516423975       -3.32952595039562
H           -4.38600532709938        0.27468856407958        0.11453261547144
H            0.04886269430574       -0.59775928586376        1.11650802736722
H            1.75007346282845        0.07792755902297        2.19854055829643
H            2.37030474082917       -1.54617559764024        1.78701048299677
H            3.93988456353424       -0.38852931935412        3.31081789540960
H            4.00153955337865        1.01365709245649        2.22341145304616
H            5.01070016727129       -1.65650704863815        1.65224403121181
H            5.76324356171742       -0.77649778192995       -0.38366004056760
H            5.06603386860259        0.79143731490546        0.07087251332656
H            3.49921076524320       -1.79241889141926       -0.43154822418956
H            3.57346806903598       -0.39349469314237       -1.51840113668060
H            0.18649299440701        1.95931222758006       -3.07712101902321
H           -2.13583958285479       -0.06974660040519        2.28023670339259
H           -3.91592783267855       -1.81237946777753        2.55829223733532
H           -4.12153934199768       -1.91805696810149        0.76534875974444
H           -1.48430957141200       -2.50528818887875        2.28542226997988
H           -1.72763316218236       -2.57191805371521        0.49246900039932
