42
 energy: -71.306278948373 gnorm: 0.000343263465 xtb: 6.7.1 (edcfbbe)
O            6.11230292014665        1.06636728188048       -0.15600190929874
C            5.20886464590548        1.82246672292143        0.13419817020434
O            5.42638074077770        3.09087132119219        0.46708384590932
C            3.79009734582452        1.42228576513792        0.13682159321279
C            3.51858194461253        0.17736746864840       -0.34560247342553
N            2.29233799986480       -0.36566633144189       -0.42594021271961
C            1.18653420932624        0.39157152659374       -0.06860795032328
C           -0.10579287285465       -0.09788833355928       -0.25094493847763
C           -1.24020381602491        0.63449053793314        0.10392022527793
N           -2.51112890870224        0.12838412203472       -0.02119177286156
C           -2.72746996497150       -1.28391728809890       -0.24392100444546
C           -4.07339427581479       -1.68449901049842        0.36748818352957
N           -5.12577357487601       -0.89521709826486       -0.23935025970887
C           -4.91490866250561        0.51258711392114        0.04283860146590
C           -3.58585180477554        0.92517731383577       -0.58366798774604
C           -1.00179252815420        1.90593078889478        0.67178045566749
F           -2.04492868527528        2.65515664980212        1.10938850903269
C            0.25694073338309        2.41442234535584        0.83075781541224
C            1.38354656158860        1.67578315740433        0.45984399101288
C            2.71692264095588        2.27907774083446        0.64010295962768
O            2.86583849374376        3.37166140601723        1.15657376879166
C            2.14265256324571       -1.70575075345123       -0.91217773341215
C            1.64705491979493       -2.77157436851930        0.02422697932097
C            3.07655755598847       -2.76904268410550       -0.41852500357571
H            6.37757746466918        3.27944871215128        0.45706681986426
H            4.34155100741840       -0.43021155744902       -0.69823142591100
H           -0.23408545244637       -1.06400721012629       -0.70594245438186
H           -1.94007422910952       -1.85713673782394        0.24677376551606
H           -2.74065827546693       -1.51945561958973       -1.31826366868437
H           -4.01627567911062       -1.53709305031584        1.46076604771599
H           -4.26128749789389       -2.74131090277775        0.16630531562171
H           -6.03433066754725       -1.19538360846884        0.09854820525854
H           -5.72569738966226        1.08979832051417       -0.40478247131538
H           -4.88054580013707        0.72613353167687        1.12473544798416
H           -3.41189221573504        1.98418839297154       -0.41776796257002
H           -3.64183846870564        0.74264189709733       -1.66760768616565
H            0.40343963608079        3.39144655952833        1.26468450360325
H            1.82362551287372       -1.75347875186797       -1.94957283554606
H            0.97893318023929       -3.52536155432755       -0.36370439121380
H            1.43735960439563       -2.48048066974306        1.04210330333853
H            3.82488556301823       -2.49205922920008        0.30732179928510
H            3.40634552591620       -3.51782391671760       -1.12142616487016
