49
 energy: -69.207996186359 gnorm: 0.000347091766 xtb: 6.7.1 (edcfbbe)
C           -0.15138726634730        3.12433438539134       -0.67027293664832
C           -0.16812663377913        1.68115226864413       -0.15726393366657
N            1.15868485335166        1.26601144107840        0.23265579330404
C            2.07654978065964        0.63423311624195       -0.53249013227273
C            1.82576184649323        0.23268275164004       -1.84011589055916
C            2.81258466050113       -0.43406214906457       -2.55982776614778
N            4.00550471349410       -0.72097555545912       -2.10543510410576
C            4.29540667435001       -0.34973275886648       -0.84420460424468
C            3.37277695184486        0.32631988326667        0.00320918120629
C            3.78560247104183        0.64919084410105        1.30926090857223
C            5.03868791136014        0.33786071357855        1.76340148145625
C            5.93821581914564       -0.31829419972033        0.91309570852318
Cl           7.51807844469724       -0.69488358129413        1.50936652791183
C            5.58431905445479       -0.65990522081611       -0.36087275558414
C           -1.11831382121149        1.53082264002277        1.03401690525219
C           -1.12090357654325        0.12337774408110        1.63452956601632
C           -1.36891749670897       -0.98008549499017        0.60187462641211
N           -2.48031289438260       -0.66478165350090       -0.28016890799063
C           -2.47270225748380       -1.39457844894836       -1.53752902627465
C           -3.09130611089225       -0.56495823283079       -2.66151160551547
C           -3.76941935103251       -0.65992795466254        0.38029134757352
C           -4.18810847697030       -1.95836764114052        1.09632794003566
O           -3.69845706264895       -1.92980577399914        2.42179609071125
H            0.53121993082249        3.21590936234286       -1.51219984794337
H            0.17635255461581        3.80382390189629        0.11419800501651
H           -1.14537998885746        3.42137673179098       -0.99258825398217
H           -0.52385197847696        1.02404533179990       -0.95189600422114
H            1.46510264328491        1.62497999056919        1.12190109792718
H            0.88059415880705        0.43713388371135       -2.31563473203273
H            2.61386336572871       -0.74590297644301       -3.57808912046034
H            3.11214897030600        1.15016236691683        1.99040073626143
H            5.34217250575498        0.59038808168541        2.76713185290585
H            6.26294784192978       -1.16817548056099       -1.02597970290031
H           -2.12143934297603        1.77615343576369        0.68786746677225
H           -0.84363546794059        2.24819760746941        1.81226380439660
H           -0.15887981092431       -0.08326516500023        2.10774132820892
H           -1.88559242064510        0.06938341322677        2.40956811949153
H           -1.51485920926785       -1.92753202648652        1.14192633891676
H           -0.47390367147048       -1.09205433458924       -0.01476355523979
H           -1.43338889325880       -1.60609460722048       -1.80043528780508
H           -2.99503230840442       -2.36270317005709       -1.47075671063560
H           -4.15761432125507       -0.42092422229859       -2.51018340171280
H           -2.94812065069263       -1.06944084676534       -3.61374260854243
H           -2.61686349026345        0.41175994125622       -2.70470273166576
H           -3.77044896570239        0.12928333760480        1.13445780063012
H           -4.52381187636210       -0.41376642273299       -0.36769737148648
H           -3.79621352671641       -2.83404342231207        0.55976248379160
H           -5.28512291136193       -2.02469969086333        1.10244466104987
H           -3.97436137007756       -2.72932214348361        2.88127221926233
