51
 energy: -84.107442341598 gnorm: 0.000504177402 xtb: 6.7.1 (edcfbbe)
F           -7.38554012064036       -3.11090644939242       -0.90252438613083
C           -6.52196234946761       -2.12554612978615       -0.59246365997720
C           -5.71937266657629       -1.59460331276551       -1.58686483369593
C           -4.84396363641398       -0.58020694001829       -1.25405670043839
C           -4.75210115634283       -0.10997007857822        0.05620861825106
C           -5.57842751889420       -0.66107417855507        1.03411038398195
C           -6.46980056538797       -1.66719265233505        0.71297939310701
C           -3.78729318945222        0.99660759609985        0.32007536732893
C           -3.17931630676832        1.04959577690522        1.71140933244296
C           -2.21381566800551        2.22716573138119        1.86939854479333
C           -0.91820420300246        1.99249761909233        1.09519150743603
N           -0.31258213869806        0.75184201609435        1.54169596539665
C           -1.16645097592422       -0.37260683548047        1.22410990271078
C           -2.44831165253962       -0.25783630298281        2.04718928411046
C            1.07242954171380        0.59274701145978        1.18941314707966
C            1.37855393294971        0.49101442877346       -0.32103362562326
N            2.81386046907241        0.40352054978175       -0.53557282658364
C            3.49531923445489        1.59994261164742       -0.65568747795662
N            4.85170254393367        1.49303763141198       -0.83484138861504
C            5.54936500957135        0.31064154825207       -0.87555646948604
C            6.93088672546109        0.28321294640349       -1.05779647090755
C            7.59179021907652       -0.92722935786454       -1.08887067502838
C            6.89396311601264       -2.12153924203957       -0.93909107416408
C            5.52828689571398       -2.10069324410225       -0.75726589530779
C            4.84267093029503       -0.88652116015521       -0.72450699165638
C            3.39047114027840       -0.86095143252793       -0.52684083428260
O            2.71004723504870       -1.85305498256429       -0.37097898530265
O            2.95003241479050        2.67843426696119       -0.61472011196750
O           -3.52057419081491        1.79427578262709       -0.54936337528965
H           -5.79198909677925       -1.97077963219895       -2.59487295139630
H           -4.21176840064149       -0.13456743771236       -2.00715443951807
H           -5.55080095156588       -0.29377952499965        2.04809105931699
H           -7.12232874023138       -2.09668461987497        1.45674281528101
H           -4.01186486966161        1.18240093244469        2.41214132021189
H           -2.68637419039532        3.14148500844783        1.50859640596631
H           -1.97651187541924        2.34571404054057        2.92768858594506
H           -0.22190454019756        2.81029019442862        1.29085082787169
H           -1.14272655995991        1.98025256783773        0.01838482985590
H           -0.64341889243534       -1.29608425856962        1.48235620247822
H           -1.42757192087251       -0.41119931289260        0.15108117114658
H           -2.17872828131613       -0.24539252826666        3.10433797756900
H           -3.08768179484791       -1.12160382545566        1.85910387232715
H            1.44477456225795       -0.31328175712545        1.67773303290311
H            1.61814778255533        1.45284783293179        1.58965148505673
H            0.92796418319102       -0.40989949974704       -0.73996184607950
H            1.01748801734890        1.38013415270620       -0.83910875146816
H            5.34917564505453        2.36805862360137       -0.93248806370680
H            7.47126661941888        1.21108195864795       -1.17331036502873
H            8.66181603789659       -0.94489019305759       -1.23097452798084
H            7.42390123771623       -3.06070742911351       -0.96503677858608
H            4.95707295945243       -3.00809851032682       -0.63639752642309
