42
 energy: -71.303648682112 gnorm: 0.000697799510 xtb: 6.7.1 (edcfbbe)
O            5.61362087023207        2.51003889664614        0.34685156905948
C            5.12599330623203        1.41397317885625        0.32060022614660
O            5.87382642349723        0.30908067555851        0.59062398279035
C            3.72373570280634        1.07540770403124        0.02853912591199
C            3.23704015516289       -0.13410437295111        0.41627145467090
N            1.96790939077359       -0.54555528412594        0.22547091134963
C            1.04191296570862        0.31952852735124       -0.33840800945041
C           -0.29994330866916       -0.03921223499977       -0.44927469596451
C           -1.26040630272170        0.79855427670203       -1.02372463399720
N           -2.56245033686551        0.40663781284316       -1.20996309466671
C           -3.67739798836015        1.30048065483035       -0.96373591861088
C           -4.20573473733585        1.09416088559777        0.46107552108913
N           -4.61601608260349       -0.28993091748291        0.61331416360001
C           -3.49360388541956       -1.18741502560364        0.41615851852496
C           -2.97343140538859       -0.96502950508898       -1.00819986108160
C           -0.78259808642212        2.04608189312218       -1.48770720459681
F           -1.62381118995678        2.90484168447765       -2.11712945601774
C            0.52363748239451        2.42771432680926       -1.35912432994945
C            1.47055098674840        1.57892057509449       -0.78103559706173
C            2.86556403351951        2.03824038334044       -0.66983293477078
O            3.23684620948968        3.10108077407135       -1.12910658595797
C            1.58291757686522       -1.85399435246143        0.66625625231394
C            2.47341320884671       -3.01958276905405        0.35668338679091
C            1.16063098436194       -2.87924795271679       -0.34778956277458
H            6.78317103835765        0.59137825994717        0.77236414043638
H            3.88236661515996       -0.83461614059741        0.92660918400440
H           -0.60684085855834       -0.99474336130748       -0.06334202080425
H           -4.47105122579933        1.05737677426682       -1.67591059959933
H           -3.39203439797562        2.33897281115540       -1.09701913855719
H           -5.07236777335758        1.73643409216428        0.62567619217306
H           -3.41379495504502        1.37913266612692        1.17834161326576
H           -5.04134048778771       -0.43882464228681        1.52210116019554
H           -2.67813493368356       -1.00502166801514        1.13989499826702
H           -3.84034076727318       -2.21644437126871        0.53129204779484
H           -3.80028174949010       -1.15462452546241       -1.70003181963052
H           -2.15904129804812       -1.64657680041774       -1.25121699440767
H            0.85120876045242        3.38850341998829       -1.72498085450895
H            1.07036244743811       -1.85049169189564        1.62474682724789
H            2.58480156328731       -3.78629670957973        1.10741928918915
H            3.36842136794308       -2.83564031234355       -0.21701503378743
H            1.17807702679912       -2.58891881096974       -1.38709851087232
H            0.35451365468096       -3.55036882434442       -0.09214370775250
