----- Optimization -----
      -----------------------------------------------------------      
     |                   =====================                   |     
     |                           x T B                           |     
     |                   =====================                   |     
     |                         S. Grimme                         |     
     |          Mulliken Center for Theoretical Chemistry        |     
     |                    University of Bonn                     |     
      -----------------------------------------------------------      

   * xtb version 6.7.1 (edcfbbe) compiled by 'conda@3ef47c1a292c' on 2024-11-25

   xtb is free software: you can redistribute it and/or modify it under
   the terms of the GNU Lesser General Public License as published by
   the Free Software Foundation, either version 3 of the License, or
   (at your option) any later version.
   
   xtb is distributed in the hope that it will be useful,
   but WITHOUT ANY WARRANTY; without even the implied warranty of
   MERCHANTABILITY or FITNESS FOR A PARTICULAR PURPOSE.  See the
   GNU Lesser General Public License for more details.
   
   Cite this work as:
   * C. Bannwarth, E. Caldeweyher, S. Ehlert, A. Hansen, P. Pracht,
     J. Seibert, S. Spicher, S. Grimme, WIREs Comput. Mol. Sci., 2020, 11,
     e01493. DOI: 10.1002/wcms.1493
   
   for GFN2-xTB:
   * C. Bannwarth, S. Ehlert and S. Grimme., J. Chem. Theory Comput., 2019,
     15, 1652-1671. DOI: 10.1021/acs.jctc.8b01176
   for GFN1-xTB:
   * S. Grimme, C. Bannwarth, P. Shushkov, J. Chem. Theory Comput., 2017,
     13, 1989-2009. DOI: 10.1021/acs.jctc.7b00118
   for GFN0-xTB:
   * P. Pracht, E. Caldeweyher, S. Ehlert, S. Grimme, ChemRxiv, 2019, preprint.
     DOI: 10.26434/chemrxiv.8326202.v1
   for GFN-FF:
   * S. Spicher and S. Grimme, Angew. Chem. Int. Ed., 2020, 59, 15665-15673.
     DOI: 10.1002/anie.202004239
   
   for ALPB and GBSA implicit solvation:
   * S. Ehlert, M. Stahn, S. Spicher, S. Grimme, J. Chem. Theory Comput.,
     2021, 17, 4250-4261. DOI: 10.1021/acs.jctc.1c00471
   
   for ddCOSMO and CPCM-X implicit solvation:
   * M. Stahn, S. Ehlert, S. Grimme, J. Phys. Chem. A,
     2023, XX, XXXX-XXXX. DOI: 10.1021/acs.jpca.3c04382
   
   for DFT-D4:
   * E. Caldeweyher, C. Bannwarth and S. Grimme, J. Chem. Phys., 2017,
     147, 034112. DOI: 10.1063/1.4993215
   * E. Caldeweyher, S. Ehlert, A. Hansen, H. Neugebauer, S. Spicher,
     C. Bannwarth and S. Grimme, J. Chem. Phys., 2019, 150, 154122.
     DOI: 10.1063/1.5090222
   * E. Caldeweyher, J.-M. Mewes, S. Ehlert and S. Grimme, Phys. Chem. Chem. Phys.
     2020, 22, 8499-8512. DOI: 10.1039/D0CP00502A
   
   for sTDA-xTB:
   * S. Grimme and C. Bannwarth, J. Chem. Phys., 2016, 145, 054103.
     DOI: 10.1063/1.4959605
   
   in the mass-spec context:
   * V. Asgeirsson, C. Bauer and S. Grimme, Chem. Sci., 2017, 8, 4879.
     DOI: 10.1039/c7sc00601b
   * J. Koopman and S. Grimme, ACS Omega 2019, 4, 12, 15120-15133.
     DOI: 10.1021/acsomega.9b02011
   
   for metadynamics refer to:
   * S. Grimme, J. Chem. Theory Comput., 2019, 155, 2847-2862
     DOI: 10.1021/acs.jctc.9b00143
   
   for SPH calculations refer to:
   * S. Spicher and S. Grimme, J. Chem. Theory Comput., 2021, 17, 1701-1714
     DOI: 10.1021/acs.jctc.0c01306
   
   for ONIOM refer to:
   * C. Plett, A. Katbashev, S. Ehlert, S. Grimme, M. Bursch,
     Phys. Chem. Chem. Phys., 2023, 25, 17860-17868. DOI: 10.1039/D3CP02178E
   
   for DIPRO refer to:
   * J. Kohn, N. Gildemeister, S. Grimme, D. Fazzi, A. Hansen,
     J. Chem. Phys., 2023, just accepted.
   
   for PTB refer to:
   * S. Grimme, M. Mueller, A. Hansen, J. Chem. Phys., 2023, 158, 124111.
     DOI: 10.1063/5.0137838
   
   with help from (in alphabetical order)
   P. Atkinson, C. Bannwarth, F. Bohle, G. Brandenburg, E. Caldeweyher
   M. Checinski, S. Dohm, S. Ehlert, S. Ehrlich, I. Gerasimov, C. Hölzer
   A. Katbashev, J. Kohn, J. Koopman, C. Lavigne, S. Lehtola, F. März, M. Müller,
   F. Musil, H. Neugebauer, J. Pisarek, C. Plett, P. Pracht, F. Pultar,
   J. Seibert, P. Shushkov, S. Spicher, M. Stahn, M. Steiner, T. Strunk,
   J. Stückrath, T. Rose, and J. Unsleber
   
 * started run on 2025/05/15 at 16:04:42.823     
   ID    Z sym.   atoms
    1    8 O      1, 3, 21
    2    6 C      2, 4, 5, 7-9, 11, 12, 14-16, 18-20, 22-24
    3    7 N      6, 10, 13
    4    9 F      17
    5    1 H      25-42

           -------------------------------------------------
          |                Calculation Setup                |
           -------------------------------------------------

          program call               : xtb /rds/general/user/hgt20/home/callum/QDESCP/Ciprofloxacin_rdkit_conf_3/Ciprofloxacin_rdkit_conf_3.xyz --opt normal --acc 1 --gfn 2 --chrg 0 --uhf 0 -P 1
          hostname                   : login-c
          coordinate file            : /rds/general/user/hgt20/home/callum/QDESCP/Ciprofloxacin_rdkit_conf_3/Ciprofloxacin_rdkit_conf_3.xyz
          omp threads                :                     1


           -------------------------------------------------
          |                 G F N 2 - x T B                 |
           -------------------------------------------------

        Reference                      10.1021/acs.jctc.8b01176
      * Hamiltonian:
        H0-scaling (s, p, d)           1.850000    2.230000    2.230000
        zeta-weighting                 0.500000
      * Dispersion:
        s8                             2.700000
        a1                             0.520000
        a2                             5.000000
        s9                             5.000000
      * Repulsion:
        kExp                           1.500000    1.000000
        rExp                           1.000000
      * Coulomb:
        alpha                          2.000000
        third order                    shell-resolved
        anisotropic                    true
        a3                             3.000000
        a5                             4.000000
        cn-shift                       1.200000
        cn-exp                         4.000000
        max-rad                        5.000000


          ...................................................
          :                      SETUP                      :
          :.................................................:
          :  # basis functions                 114          :
          :  # atomic orbitals                 114          :
          :  # shells                           66          :
          :  # electrons                       126          :
          :  max. iterations                   250          :
          :  Hamiltonian                  GFN2-xTB          :
          :  restarted?                      false          :
          :  GBSA solvation                  false          :
          :  PC potential                    false          :
          :  electronic temp.          300.0000000     K    :
          :  accuracy                    1.0000000          :
          :  -> integral cutoff          0.2500000E+02      :
          :  -> integral neglect         0.1000000E-07      :
          :  -> SCF convergence          0.1000000E-05 Eh   :
          :  -> wf. convergence          0.1000000E-03 e    :
          :  Broyden damping             0.4000000          :
          :  net charge                          0          :
          :  unpaired electrons                  0          :
          ...................................................

 iter      E             dE          RMSdq      gap      omega  full diag
   1    -71.9635177 -0.719635E+02  0.413E+00    2.53       0.0  T
   2    -72.0812780 -0.117760E+00  0.249E+00    2.15       1.0  T
   3    -72.0946377 -0.133598E-01  0.148E+00    2.55       1.0  T
   4    -72.1142252 -0.195874E-01  0.446E-01    2.36       1.0  T
   5    -72.1204803 -0.625514E-02  0.112E-01    2.37       1.0  T
   6    -72.1206951 -0.214840E-03  0.532E-02    2.38       1.0  T
   7    -72.1207300 -0.348439E-04  0.226E-02    2.38       1.0  T
   8    -72.1207319 -0.193091E-05  0.953E-03    2.39       1.6  T
   9    -72.1207337 -0.180449E-05  0.431E-03    2.39       3.6  T
  10    -72.1207339 -0.148175E-06  0.155E-03    2.39       9.9  T
  11    -72.1207339 -0.418121E-07  0.693E-04    2.39      22.3  T
  12    -72.1207339 -0.493806E-08  0.271E-04    2.39      57.0  T

   *** convergence criteria satisfied after 12 iterations ***

         #    Occupation            Energy/Eh            Energy/eV
      -------------------------------------------------------------
         1        2.0000           -0.8224959             -22.3813
       ...           ...                  ...                  ...
        57        2.0000           -0.4309188             -11.7259
        58        2.0000           -0.4249462             -11.5634
        59        2.0000           -0.4141769             -11.2703
        60        2.0000           -0.3893365             -10.5944
        61        2.0000           -0.3763168             -10.2401
        62        2.0000           -0.3741718             -10.1817
        63        2.0000           -0.3669778              -9.9860 (HOMO)
        64                         -0.2792678              -7.5993 (LUMO)
        65                         -0.2668733              -7.2620
        66                         -0.2338039              -6.3621
        67                         -0.2111817              -5.7465
        68                         -0.1466233              -3.9898
       ...                                ...                  ...
       114                          0.6870287              18.6950
      -------------------------------------------------------------
                  HL-Gap            0.0877101 Eh            2.3867 eV
             Fermi-level           -0.3231228 Eh           -8.7926 eV

 SCC (total)                   0 d,  0 h,  0 min,  0.093 sec
 SCC setup                      ...        0 min,  0.000 sec (  0.411%)
 Dispersion                     ...        0 min,  0.000 sec (  0.502%)
 classical contributions        ...        0 min,  0.000 sec (  0.161%)
 integral evaluation            ...        0 min,  0.008 sec (  8.567%)
 iterations                     ...        0 min,  0.060 sec ( 64.811%)
 molecular gradient             ...        0 min,  0.023 sec ( 25.338%)
 printout                       ...        0 min,  0.000 sec (  0.201%)

         :::::::::::::::::::::::::::::::::::::::::::::::::::::
         ::                     SUMMARY                     ::
         :::::::::::::::::::::::::::::::::::::::::::::::::::::
         :: total energy             -71.281945278335 Eh    ::
         :: gradient norm              0.083714356315 Eh/a0 ::
         :: HOMO-LUMO gap              2.386712622130 eV    ::
         ::.................................................::
         :: SCC energy               -72.120685217910 Eh    ::
         :: -> isotropic ES            0.106329362928 Eh    ::
         :: -> anisotropic ES          0.007803020381 Eh    ::
         :: -> anisotropic XC          0.021824721791 Eh    ::
         :: -> dispersion             -0.045085583599 Eh    ::
         :: repulsion energy           0.838739939575 Eh    ::
         :: add. restraining           0.000000000000 Eh    ::
         :: total charge              -0.000000000000 e     ::
         :::::::::::::::::::::::::::::::::::::::::::::::::::::

      ----------------------------------------------------------- 
     |                   =====================                   |
     |                        A N C O P T                        |
     |                   =====================                   |
     |               Approximate Normal Coordinate               |
     |                Rational Function Optimizer                |
      ----------------------------------------------------------- 
      ----------------------------------------------------------- 
     |                   =====================                   |
     |                        A N C O P T                        |
     |                   =====================                   |
     |               Approximate Normal Coordinate               |
     |                Rational Function Optimizer                |
      ----------------------------------------------------------- 

          ...................................................
          :                      SETUP                      :
          :.................................................:
          :   optimization level            normal          :
          :   max. optcycles                   200          :
          :   ANC micro-cycles                  20          :
          :   degrees of freedom               120          :
          :.................................................:
          :   RF solver                   davidson          :
          :   write xtbopt.log                true          :
          :   linear?                        false          :
          :   energy convergence         0.5000000E-05 Eh   :
          :   grad. convergence          0.1000000E-02 Eh/α :
          :   maxmium RF displ.          1.0000000          :
          :   Hlow (freq-cutoff)         0.1000000E-01      :
          :   Hmax (freq-cutoff)         5.0000000          :
          :   S6 in model hess.         20.0000000          :
          ...................................................

generating ANC from exact Hessian ...
Using Lindh-Hessian (1995)
 Shifting diagonal of input Hessian by    9.6258957065266486E-003
 Lowest  eigenvalues of input Hessian
    0.000000    0.000000    0.000000    0.000000    0.000000    0.000000
    0.010000    0.010332    0.010704    0.011501    0.012128    0.012332
    0.012863    0.014941    0.015394    0.017675    0.019039    0.020611
 Highest eigenvalues
    1.877963    1.983566    2.006176    2.089415    2.180236    2.354683


........................................................................
.............................. CYCLE    1 ..............................
........................................................................

 iter      E             dE          RMSdq      gap      omega  full diag
   1    -72.1207339 -0.721207E+02  0.118E-04    2.39       0.0  T
   2    -72.1207339 -0.137689E-09  0.745E-05    2.39     207.0  T
   3    -72.1207339 -0.106937E-09  0.448E-05    2.39     344.3  T
     SCC iter.                  ...        0 min,  0.007 sec
     gradient                   ...        0 min,  0.023 sec
 * total energy  :   -71.2819453 Eh     change       -0.1206047E-08 Eh
   gradient norm :     0.0837157 Eh/α   predicted     0.0000000E+00 (-100.00%)
   displ. norm   :     0.3889237 α      lambda       -0.1669404E-01
   maximum displ.:     0.1126283 α      in ANC's #15, #47, #23, ...

........................................................................
.............................. CYCLE    2 ..............................
........................................................................

 iter      E             dE          RMSdq      gap      omega  full diag
   1    -72.1586123 -0.721586E+02  0.234E-01    2.44       0.0  T
   2    -72.1589522 -0.339886E-03  0.151E-01    2.47       1.0  T
   3    -72.1590018 -0.496107E-04  0.862E-02    2.46       1.0  T
   4    -72.1590938 -0.920483E-04  0.268E-02    2.46       1.0  T
   5    -72.1591172 -0.233720E-04  0.562E-03    2.46       2.7  T
   6    -72.1591178 -0.558705E-06  0.247E-03    2.46       6.2  T
   7    -72.1591178 -0.448581E-07  0.111E-03    2.46      13.9  T
   8    -72.1591178 -0.817666E-08  0.400E-04    2.46      38.5  T
   9    -72.1591178 -0.255584E-08  0.138E-04    2.46     112.0  T
     SCC iter.                  ...        0 min,  0.019 sec
     gradient                   ...        0 min,  0.023 sec
 * total energy  :   -71.2935818 Eh     change       -0.1163651E-01 Eh
   gradient norm :     0.0350818 Eh/α   predicted    -0.9617425E-02 ( -17.35%)
   displ. norm   :     0.3923470 α      lambda       -0.6296192E-02
   maximum displ.:     0.1412417 α      in ANC's #12, #15, #18, ...

........................................................................
.............................. CYCLE    3 ..............................
........................................................................

 iter      E             dE          RMSdq      gap      omega  full diag
   1    -72.1840282 -0.721840E+02  0.165E-01    2.46       0.0  T
   2    -72.1842679 -0.239701E-03  0.110E-01    2.49       1.0  T
   3    -72.1843380 -0.701648E-04  0.621E-02    2.48       1.0  T
   4    -72.1843635 -0.254100E-04  0.221E-02    2.48       1.0  T
   5    -72.1843778 -0.143868E-04  0.443E-03    2.49       3.5  T
   6    -72.1843783 -0.424204E-06  0.188E-03    2.48       8.2  T
   7    -72.1843783 -0.339359E-07  0.813E-04    2.48      19.0  T
   8    -72.1843783 -0.368273E-08  0.330E-04    2.48      46.8  T
     SCC iter.                  ...        0 min,  0.017 sec
     gradient                   ...        0 min,  0.023 sec
 * total energy  :   -71.2974580 Eh     change       -0.3876226E-02 Eh
   gradient norm :     0.0113253 Eh/α   predicted    -0.3637091E-02 (  -6.17%)
   displ. norm   :     0.2802901 α      lambda       -0.1341533E-02
   maximum displ.:     0.1149193 α      in ANC's #3, #4, #14, ...

........................................................................
.............................. CYCLE    4 ..............................
........................................................................

 iter      E             dE          RMSdq      gap      omega  full diag
   1    -72.1899695 -0.721900E+02  0.670E-02    2.47       0.0  T
   2    -72.1899936 -0.241065E-04  0.416E-02    2.49       1.0  T
   3    -72.1899940 -0.462489E-06  0.235E-02    2.48       1.0  T
   4    -72.1900021 -0.805880E-05  0.580E-03    2.49       2.7  T
   5    -72.1900032 -0.107007E-05  0.166E-03    2.49       9.3  T
   6    -72.1900032 -0.503098E-07  0.856E-04    2.49      18.0  T
   7    -72.1900032 -0.619568E-08  0.308E-04    2.49      50.1  T
     SCC iter.                  ...        0 min,  0.015 sec
     gradient                   ...        0 min,  0.023 sec
 * total energy  :   -71.2984517 Eh     change       -0.9936416E-03 Eh
   gradient norm :     0.0099629 Eh/α   predicted    -0.7235118E-03 ( -27.19%)
   displ. norm   :     0.3688992 α      lambda       -0.1063939E-02
   maximum displ.:     0.1908363 α      in ANC's #3, #4, #14, ...

........................................................................
.............................. CYCLE    5 ..............................
........................................................................

 iter      E             dE          RMSdq      gap      omega  full diag
   1    -72.1918119 -0.721918E+02  0.789E-02    2.46       0.0  T
   2    -72.1918300 -0.180502E-04  0.466E-02    2.49       1.0  T
   3    -72.1918222  0.779264E-05  0.241E-02    2.48       1.0  T
   4    -72.1918358 -0.136167E-04  0.400E-03    2.49       3.9  T
   5    -72.1918363 -0.462876E-06  0.150E-03    2.49      10.3  T
   6    -72.1918363 -0.116355E-07  0.824E-04    2.49      18.7  T
   7    -72.1918363 -0.134807E-07  0.264E-04    2.49      58.4  T
     SCC iter.                  ...        0 min,  0.015 sec
     gradient                   ...        0 min,  0.023 sec
 * total energy  :   -71.2991923 Eh     change       -0.7406184E-03 Eh
   gradient norm :     0.0063716 Eh/α   predicted    -0.6043661E-03 ( -18.40%)
   displ. norm   :     0.3169767 α      lambda       -0.5247170E-03
   maximum displ.:     0.1819831 α      in ANC's #4, #3, #2, ...

........................................................................
.............................. CYCLE    6 ..............................
........................................................................

 iter      E             dE          RMSdq      gap      omega  full diag
   1    -72.1918066 -0.721918E+02  0.643E-02    2.46       0.0  T
   2    -72.1918142 -0.758273E-05  0.374E-02    2.48       1.0  T
   3    -72.1918075  0.662936E-05  0.172E-02    2.48       1.0  T
   4    -72.1918166 -0.909712E-05  0.280E-03    2.48       5.5  T
   5    -72.1918168 -0.196283E-06  0.117E-03    2.48      13.1  T
   6    -72.1918168 -0.855734E-08  0.611E-04    2.48      25.3  T
   7    -72.1918168 -0.675227E-08  0.214E-04    2.48      72.1  T
     SCC iter.                  ...        0 min,  0.060 sec
     gradient                   ...        0 min,  0.024 sec
 * total energy  :   -71.2995753 Eh     change       -0.3830389E-03 Eh
   gradient norm :     0.0056600 Eh/α   predicted    -0.2887271E-03 ( -24.62%)
   displ. norm   :     0.2808893 α      lambda       -0.3601998E-03
   maximum displ.:     0.1703081 α      in ANC's #4, #3, #2, ...

........................................................................
.............................. CYCLE    7 ..............................
........................................................................

 iter      E             dE          RMSdq      gap      omega  full diag
   1    -72.1920622 -0.721921E+02  0.559E-02    2.47       0.0  T
   2    -72.1920659 -0.360948E-05  0.325E-02    2.48       1.0  T
   3    -72.1920610  0.480821E-05  0.127E-02    2.48       1.2  T
   4    -72.1920672 -0.612812E-05  0.210E-03    2.48       7.3  T
   5    -72.1920673 -0.857813E-07  0.976E-04    2.48      15.8  T
   6    -72.1920673 -0.586114E-08  0.446E-04    2.48      34.6  T
     SCC iter.                  ...        0 min,  0.059 sec
     gradient                   ...        0 min,  0.024 sec
 * total energy  :   -71.2998539 Eh     change       -0.2785805E-03 Eh
   gradient norm :     0.0057659 Eh/α   predicted    -0.1943101E-03 ( -30.25%)
   displ. norm   :     0.3069728 α      lambda       -0.3312837E-03
   maximum displ.:     0.1869767 α      in ANC's #4, #3, #2, ...

........................................................................
.............................. CYCLE    8 ..............................
........................................................................

 iter      E             dE          RMSdq      gap      omega  full diag
   1    -72.1924403 -0.721924E+02  0.613E-02    2.47       0.0  T
   2    -72.1924439 -0.358543E-05  0.355E-02    2.48       1.0  T
   3    -72.1924390  0.493613E-05  0.126E-02    2.47       1.2  T
   4    -72.1924452 -0.628185E-05  0.218E-03    2.48       7.1  T
   5    -72.1924453 -0.875910E-07  0.106E-03    2.48      14.6  T
   6    -72.1924453 -0.575453E-08  0.429E-04    2.48      36.0  T
   7    -72.1924453 -0.459451E-08  0.148E-04    2.48     104.4  T
     SCC iter.                  ...        0 min,  0.066 sec
     gradient                   ...        0 min,  0.024 sec
 * total energy  :   -71.3001141 Eh     change       -0.2602392E-03 Eh
   gradient norm :     0.0056458 Eh/α   predicted    -0.1812525E-03 ( -30.35%)
   displ. norm   :     0.3737817 α      lambda       -0.3326124E-03
   maximum displ.:     0.2244449 α      in ANC's #4, #3, #2, ...

........................................................................
.............................. CYCLE    9 ..............................
........................................................................

 iter      E             dE          RMSdq      gap      omega  full diag
   1    -72.1924723 -0.721925E+02  0.725E-02    2.47       0.0  T
   2    -72.1924788 -0.641540E-05  0.420E-02    2.48       1.0  T
   3    -72.1924711  0.767773E-05  0.167E-02    2.48       1.0  T
   4    -72.1924811 -0.100689E-04  0.285E-03    2.48       5.4  T
   5    -72.1924813 -0.185030E-06  0.133E-03    2.48      11.6  T
   6    -72.1924813 -0.608311E-08  0.605E-04    2.48      25.5  T
   7    -72.1924813 -0.929531E-08  0.166E-04    2.48      93.1  T
     SCC iter.                  ...        0 min,  0.066 sec
     gradient                   ...        0 min,  0.024 sec
 * total energy  :   -71.3003809 Eh     change       -0.2667361E-03 Eh
   gradient norm :     0.0047496 Eh/α   predicted    -0.1895428E-03 ( -28.94%)
   displ. norm   :     0.4662071 α      lambda       -0.3528495E-03
   maximum displ.:     0.2712547 α      in ANC's #4, #3, #2, ...

........................................................................
.............................. CYCLE   10 ..............................
........................................................................

 iter      E             dE          RMSdq      gap      omega  full diag
   1    -72.1921041 -0.721921E+02  0.899E-02    2.47       0.0  T
   2    -72.1921159 -0.118732E-04  0.523E-02    2.49       1.0  T
   3    -72.1921037  0.122448E-04  0.221E-02    2.48       1.0  T
   4    -72.1921202 -0.165412E-04  0.385E-03    2.49       4.0  T
   5    -72.1921206 -0.375875E-06  0.173E-03    2.49       8.9  T
   6    -72.1921206 -0.118214E-07  0.852E-04    2.49      18.1  T
   7    -72.1921206 -0.162985E-07  0.225E-04    2.49      68.6  T
     SCC iter.                  ...        0 min,  0.015 sec
     gradient                   ...        0 min,  0.075 sec
 * total energy  :   -71.3006499 Eh     change       -0.2689854E-03 Eh
   gradient norm :     0.0037947 Eh/α   predicted    -0.2147732E-03 ( -20.15%)
   displ. norm   :     0.4164438 α      lambda       -0.2644632E-03
   maximum displ.:     0.2276021 α      in ANC's #4, #3, #2, ...

........................................................................
.............................. CYCLE   11 ..............................
........................................................................

 iter      E             dE          RMSdq      gap      omega  full diag
   1    -72.1927462 -0.721927E+02  0.810E-02    2.48       0.0  T
   2    -72.1927576 -0.114421E-04  0.472E-02    2.50       1.0  T
   3    -72.1927480  0.962834E-05  0.207E-02    2.49       1.0  T
   4    -72.1927615 -0.135058E-04  0.373E-03    2.50       4.1  T
   5    -72.1927619 -0.377553E-06  0.163E-03    2.50       9.5  T
   6    -72.1927619 -0.116197E-07  0.819E-04    2.50      18.9  T
   7    -72.1927619 -0.140291E-07  0.219E-04    2.50      70.5  T
     SCC iter.                  ...        0 min,  0.015 sec
     gradient                   ...        0 min,  0.075 sec
 * total energy  :   -71.3008361 Eh     change       -0.1862510E-03 Eh
   gradient norm :     0.0050943 Eh/α   predicted    -0.1551685E-03 ( -16.69%)
   displ. norm   :     0.2658406 α      lambda       -0.1574122E-03
   maximum displ.:     0.1286367 α      in ANC's #4, #3, #2, ...

........................................................................
.............................. CYCLE   12 ..............................
........................................................................

 iter      E             dE          RMSdq      gap      omega  full diag
   1    -72.1946854 -0.721947E+02  0.548E-02    2.49       0.0  T
   2    -72.1946907 -0.536545E-05  0.319E-02    2.50       1.0  T
   3    -72.1946863  0.443186E-05  0.142E-02    2.50       1.1  T
   4    -72.1946926 -0.627627E-05  0.244E-03    2.50       6.3  T
   5    -72.1946927 -0.170034E-06  0.106E-03    2.50      14.5  T
   6    -72.1946927 -0.449647E-08  0.548E-04    2.50      28.2  T
   7    -72.1946928 -0.645569E-08  0.146E-04    2.50     105.5  T
     SCC iter.                  ...        0 min,  0.015 sec
     gradient                   ...        0 min,  0.069 sec
 * total energy  :   -71.3009514 Eh     change       -0.1152859E-03 Eh
   gradient norm :     0.0046591 Eh/α   predicted    -0.8426894E-04 ( -26.90%)
   displ. norm   :     0.2621788 α      lambda       -0.1187346E-03
   maximum displ.:     0.1195937 α      in ANC's #4, #2, #3, ...

........................................................................
.............................. CYCLE   13 ..............................
........................................................................

 iter      E             dE          RMSdq      gap      omega  full diag
   1    -72.1953270 -0.721953E+02  0.551E-02    2.49       0.0  T
   2    -72.1953315 -0.448613E-05  0.319E-02    2.50       1.0  T
   3    -72.1953268  0.470015E-05  0.138E-02    2.50       1.1  T
   4    -72.1953332 -0.641547E-05  0.213E-03    2.50       7.2  T
   5    -72.1953333 -0.114943E-06  0.987E-04    2.50      15.6  T
   6    -72.1953333 -0.326119E-08  0.472E-04    2.50      32.7  T
     SCC iter.                  ...        0 min,  0.013 sec
     gradient                   ...        0 min,  0.075 sec
 * total energy  :   -71.3010371 Eh     change       -0.8567463E-04 Eh
   gradient norm :     0.0033293 Eh/α   predicted    -0.6344981E-04 ( -25.94%)
   displ. norm   :     0.2101837 α      lambda       -0.9194689E-04
   maximum displ.:     0.1063449 α      in ANC's #1, #5, #2, ...

........................................................................
.............................. CYCLE   14 ..............................
........................................................................

 iter      E             dE          RMSdq      gap      omega  full diag
   1    -72.1972525 -0.721973E+02  0.466E-02    2.49       0.0  T
   2    -72.1972556 -0.309804E-05  0.269E-02    2.50       1.0  T
   3    -72.1972523  0.333410E-05  0.115E-02    2.50       1.3  T
   4    -72.1972568 -0.452879E-05  0.189E-03    2.50       8.2  T
   5    -72.1972569 -0.799935E-07  0.880E-04    2.50      17.5  T
   6    -72.1972569 -0.350222E-08  0.433E-04    2.50      35.6  T
     SCC iter.                  ...        0 min,  0.013 sec
     gradient                   ...        0 min,  0.069 sec
 * total energy  :   -71.3011006 Eh     change       -0.6351937E-04 Eh
   gradient norm :     0.0026357 Eh/α   predicted    -0.4800957E-04 ( -24.42%)
   displ. norm   :     0.4142256 α      lambda       -0.1106085E-03
   maximum displ.:     0.2010807 α      in ANC's #1, #4, #2, ...

........................................................................
.............................. CYCLE   15 ..............................
........................................................................

 iter      E             dE          RMSdq      gap      omega  full diag
   1    -72.1942212 -0.721942E+02  0.852E-02    2.49       0.0  T
   2    -72.1942313 -0.100784E-04  0.490E-02    2.51       1.0  T
   3    -72.1942198  0.114841E-04  0.215E-02    2.50       1.0  T
   4    -72.1942355 -0.156916E-04  0.328E-03    2.51       4.7  T
   5    -72.1942358 -0.236133E-06  0.157E-03    2.51       9.8  T
   6    -72.1942358 -0.961754E-08  0.709E-04    2.51      21.8  T
   7    -72.1942358 -0.121875E-07  0.204E-04    2.51      75.7  T
     SCC iter.                  ...        0 min,  0.015 sec
     gradient                   ...        0 min,  0.024 sec
 * total energy  :   -71.3011583 Eh     change       -0.5768271E-04 Eh
   gradient norm :     0.0051856 Eh/α   predicted    -0.6479562E-04 (  12.33%)
   displ. norm   :     0.1510091 α      lambda       -0.1004218E-03
   maximum displ.:     0.1060992 α      in ANC's #1, #5, #2, ...

........................................................................
.............................. CYCLE   16 ..............................
........................................................................

 iter      E             dE          RMSdq      gap      omega  full diag
   1    -72.1959111 -0.721959E+02  0.327E-02    2.50       0.0  T
   2    -72.1959132 -0.218254E-05  0.187E-02    2.51       1.0  T
   3    -72.1959117  0.157835E-05  0.916E-03    2.51       1.7  T
   4    -72.1959141 -0.241179E-05  0.166E-03    2.51       9.3  T
   5    -72.1959141 -0.667996E-07  0.725E-04    2.51      21.3  T
   6    -72.1959141 -0.273788E-08  0.358E-04    2.51      43.1  T
     SCC iter.                  ...        0 min,  0.013 sec
     gradient                   ...        0 min,  0.024 sec
 * total energy  :   -71.3012360 Eh     change       -0.7771542E-04 Eh
   gradient norm :     0.0037379 Eh/α   predicted    -0.5135661E-04 ( -33.92%)
   displ. norm   :     0.3636886 α      lambda       -0.1319972E-03
   maximum displ.:     0.2475204 α      in ANC's #1, #5, #2, ...

........................................................................
.............................. CYCLE   17 ..............................
........................................................................

 iter      E             dE          RMSdq      gap      omega  full diag
   1    -72.1961916 -0.721962E+02  0.741E-02    2.49       0.0  T
   2    -72.1962034 -0.117864E-04  0.421E-02    2.51       1.0  T
   3    -72.1961958  0.759477E-05  0.213E-02    2.51       1.0  T
   4    -72.1962081 -0.122976E-04  0.350E-03    2.51       4.4  T
   5    -72.1962084 -0.309788E-06  0.154E-03    2.51      10.0  T
   6    -72.1962084 -0.987718E-08  0.745E-04    2.51      20.7  T
   7    -72.1962084 -0.122800E-07  0.199E-04    2.51      77.5  T
     SCC iter.                  ...        0 min,  0.016 sec
     gradient                   ...        0 min,  0.024 sec
 * total energy  :   -71.3013347 Eh     change       -0.9867284E-04 Eh
   gradient norm :     0.0028811 Eh/α   predicted    -0.7472881E-04 ( -24.27%)
   displ. norm   :     0.3931229 α      lambda       -0.1117141E-03
   maximum displ.:     0.2837223 α      in ANC's #1, #5, #2, ...

........................................................................
.............................. CYCLE   18 ..............................
........................................................................

 iter      E             dE          RMSdq      gap      omega  full diag
   1    -72.1958987 -0.721959E+02  0.769E-02    2.49       0.0  T
   2    -72.1959136 -0.149362E-04  0.435E-02    2.52       1.0  T
   3    -72.1959067  0.687410E-05  0.232E-02    2.51       1.0  T
   4    -72.1959195 -0.128012E-04  0.379E-03    2.52       4.1  T
   5    -72.1959199 -0.377159E-06  0.163E-03    2.52       9.4  T
   6    -72.1959199 -0.112913E-07  0.793E-04    2.52      19.4  T
   7    -72.1959199 -0.148151E-07  0.196E-04    2.52      78.6  T
     SCC iter.                  ...        0 min,  0.015 sec
     gradient                   ...        0 min,  0.023 sec
 * total energy  :   -71.3014121 Eh     change       -0.7739867E-04 Eh
   gradient norm :     0.0035461 Eh/α   predicted    -0.6449435E-04 ( -16.67%)
   displ. norm   :     0.2887177 α      lambda       -0.9410366E-04
   maximum displ.:     0.2328417 α      in ANC's #1, #5, #2, ...

........................................................................
.............................. CYCLE   19 ..............................
........................................................................

 iter      E             dE          RMSdq      gap      omega  full diag
   1    -72.1976587 -0.721977E+02  0.542E-02    2.50       0.0  T
   2    -72.1976679 -0.919647E-05  0.306E-02    2.52       1.0  T
   3    -72.1976655  0.233454E-05  0.168E-02    2.51       1.0  T
   4    -72.1976711 -0.561546E-05  0.292E-03    2.52       5.3  T
   5    -72.1976714 -0.233690E-06  0.117E-03    2.52      13.2  T
   6    -72.1976714 -0.782582E-08  0.591E-04    2.52      26.1  T
   7    -72.1976714 -0.752625E-08  0.148E-04    2.52     104.3  T
     SCC iter.                  ...        0 min,  0.015 sec
     gradient                   ...        0 min,  0.024 sec
 * total energy  :   -71.3014651 Eh     change       -0.5301419E-04 Eh
   gradient norm :     0.0033441 Eh/α   predicted    -0.5097571E-04 (  -3.85%)
   displ. norm   :     0.4373929 α      lambda       -0.7372050E-04
   maximum displ.:     0.3097875 α      in ANC's #1, #5, #2, ...

........................................................................
.............................. CYCLE   20 ..............................
........................................................................

 iter      E             dE          RMSdq      gap      omega  full diag
   1    -72.1940217 -0.721940E+02  0.810E-02    2.50       0.0  T
   2    -72.1940333 -0.115859E-04  0.461E-02    2.52       1.0  T
   3    -72.1940246  0.872033E-05  0.220E-02    2.52       1.0  T
   4    -72.1940379 -0.133150E-04  0.341E-03    2.52       4.5  T
   5    -72.1940382 -0.262816E-06  0.162E-03    2.52       9.5  T
   6    -72.1940382 -0.108055E-07  0.736E-04    2.52      21.0  T
   7    -72.1940382 -0.151296E-07  0.193E-04    2.52      80.1  T
     SCC iter.                  ...        0 min,  0.015 sec
     gradient                   ...        0 min,  0.024 sec
 * total energy  :   -71.3014765 Eh     change       -0.1140910E-04 Eh
   gradient norm :     0.0060604 Eh/α   predicted    -0.4391242E-04 ( 284.89%)
   displ. norm   :     0.0972826 α      lambda       -0.1056153E-03
   maximum displ.:     0.0509381 α      in ANC's #5, #4, #2, ...
 * RMSD in coord.:     0.7710684 α      energy gain  -0.1953120E-01 Eh

generating ANC from exact Hessian ...
Using Lindh-Hessian (1995)
 Shifting diagonal of input Hessian by    9.5936405839960031E-003
 Lowest  eigenvalues of input Hessian
    0.000000    0.000000    0.000000    0.000000    0.000000    0.000000
    0.010000    0.010283    0.010817    0.011700    0.012223    0.012543
    0.013402    0.014834    0.016079    0.018272    0.019918    0.020900
 Highest eigenvalues
    1.975537    2.082732    2.105652    2.208861    2.281458    2.418438


........................................................................
.............................. CYCLE   21 ..............................
........................................................................

 iter      E             dE          RMSdq      gap      omega  full diag
   1    -72.1972863 -0.721973E+02  0.286E-02    2.52       0.0  T
   2    -72.1972871 -0.770605E-06  0.166E-02    2.52       1.0  T
   3    -72.1972862  0.910189E-06  0.536E-03    2.52       2.9  T
   4    -72.1972873 -0.111279E-05  0.109E-03    2.52      14.2  T
   5    -72.1972874 -0.394228E-07  0.428E-04    2.52      36.1  T
   6    -72.1972874 -0.958394E-09  0.218E-04    2.52      70.6  T
     SCC iter.                  ...        0 min,  0.013 sec
     gradient                   ...        0 min,  0.075 sec
 * total energy  :   -71.3015325 Eh     change       -0.5598965E-04 Eh
   gradient norm :     0.0028559 Eh/α   predicted     0.0000000E+00 (-100.00%)
   displ. norm   :     0.0360634 α      lambda       -0.3284906E-04
   maximum displ.:     0.0168025 α      in ANC's #1, #6, #3, ...

........................................................................
.............................. CYCLE   22 ..............................
........................................................................

 iter      E             dE          RMSdq      gap      omega  full diag
   1    -72.1976119 -0.721976E+02  0.106E-02    2.52       0.0  T
   2    -72.1976121 -0.178760E-06  0.614E-03    2.52       2.5  T
   3    -72.1976120  0.879980E-07  0.250E-03    2.52       6.2  T
   4    -72.1976121 -0.131716E-06  0.426E-04    2.52      36.2  T
   5    -72.1976121 -0.365522E-08  0.174E-04    2.52      88.7  T
     SCC iter.                  ...        0 min,  0.011 sec
     gradient                   ...        0 min,  0.024 sec
 * total energy  :   -71.3015585 Eh     change       -0.2599306E-04 Eh
   gradient norm :     0.0012325 Eh/α   predicted    -0.1645851E-04 ( -36.68%)
   displ. norm   :     0.1424701 α      lambda       -0.4621511E-04
   maximum displ.:     0.0678924 α      in ANC's #1, #6, #3, ...

........................................................................
.............................. CYCLE   23 ..............................
........................................................................

 iter      E             dE          RMSdq      gap      omega  full diag
   1    -72.1980158 -0.721980E+02  0.369E-02    2.52       0.0  T
   2    -72.1980172 -0.138229E-05  0.215E-02    2.52       1.0  T
   3    -72.1980160  0.114049E-05  0.784E-03    2.52       2.0  T
   4    -72.1980176 -0.154033E-05  0.114E-03    2.52      13.5  T
   5    -72.1980176 -0.257947E-07  0.504E-04    2.52      30.6  T
   6    -72.1980176 -0.924032E-09  0.239E-04    2.52      64.7  T
     SCC iter.                  ...        0 min,  0.058 sec
     gradient                   ...        0 min,  0.024 sec
 * total energy  :   -71.3015959 Eh     change       -0.3745851E-04 Eh
   gradient norm :     0.0026988 Eh/α   predicted    -0.2331630E-04 ( -37.75%)
   displ. norm   :     0.0590912 α      lambda       -0.2012935E-04
   maximum displ.:     0.0317648 α      in ANC's #1, #6, #3, ...

........................................................................
.............................. CYCLE   24 ..............................
........................................................................

 iter      E             dE          RMSdq      gap      omega  full diag
   1    -72.1979229 -0.721979E+02  0.145E-02    2.52       0.0  T
   2    -72.1979229 -0.461555E-07  0.853E-03    2.51       1.8  T
   3    -72.1979229  0.381340E-07  0.130E-03    2.52      11.8  T
   4    -72.1979230 -0.558935E-07  0.314E-04    2.51      49.1  T
   5    -72.1979230 -0.799176E-09  0.171E-04    2.51      90.3  T
     SCC iter.                  ...        0 min,  0.062 sec
     gradient                   ...        0 min,  0.024 sec
 * total energy  :   -71.3016145 Eh     change       -0.1857061E-04 Eh
   gradient norm :     0.0022413 Eh/α   predicted    -0.1025834E-04 ( -44.76%)
   displ. norm   :     0.1740394 α      lambda       -0.5571968E-04
   maximum displ.:     0.0954298 α      in ANC's #1, #6, #3, ...

........................................................................
.............................. CYCLE   25 ..............................
........................................................................

 iter      E             dE          RMSdq      gap      omega  full diag
   1    -72.1975841 -0.721976E+02  0.431E-02    2.51       0.0  T
   2    -72.1975844 -0.303866E-06  0.253E-02    2.51       1.0  T
   3    -72.1975843  0.868854E-07  0.254E-03    2.51       6.1  T
   4    -72.1975845 -0.203011E-06  0.909E-04    2.51      17.0  T
   5    -72.1975845 -0.667481E-08  0.508E-04    2.51      30.3  T
     SCC iter.                  ...        0 min,  0.011 sec
     gradient                   ...        0 min,  0.075 sec
 * total energy  :   -71.3016544 Eh     change       -0.3992504E-04 Eh
   gradient norm :     0.0010578 Eh/α   predicted    -0.2871134E-04 ( -28.09%)
   displ. norm   :     0.2093440 α      lambda       -0.2493103E-04
   maximum displ.:     0.1250351 α      in ANC's #1, #3, #6, ...

........................................................................
.............................. CYCLE   26 ..............................
........................................................................

 iter      E             dE          RMSdq      gap      omega  full diag
   1    -72.1973448 -0.721973E+02  0.497E-02    2.51       0.0  T
   2    -72.1973452 -0.422796E-06  0.292E-02    2.51       1.0  T
   3    -72.1973452  0.215532E-07  0.239E-03    2.51       6.4  T
   4    -72.1973453 -0.173895E-06  0.967E-04    2.51      16.0  T
   5    -72.1973453 -0.504218E-08  0.559E-04    2.51      27.6  T
     SCC iter.                  ...        0 min,  0.011 sec
     gradient                   ...        0 min,  0.069 sec
 * total energy  :   -71.3016781 Eh     change       -0.2363910E-04 Eh
   gradient norm :     0.0017908 Eh/α   predicted    -0.1270869E-04 ( -46.24%)
   displ. norm   :     0.0874652 α      lambda       -0.1431222E-04
   maximum displ.:     0.0618064 α      in ANC's #1, #3, #2, ...

........................................................................
.............................. CYCLE   27 ..............................
........................................................................

 iter      E             dE          RMSdq      gap      omega  full diag
   1    -72.1979511 -0.721980E+02  0.190E-02    2.51       0.0  T
   2    -72.1979513 -0.131117E-06  0.111E-02    2.51       1.4  T
   3    -72.1979510  0.253532E-06  0.277E-03    2.51       5.6  T
   4    -72.1979513 -0.314088E-06  0.541E-04    2.51      28.5  T
   5    -72.1979513 -0.380489E-08  0.295E-04    2.51      52.3  T
     SCC iter.                  ...        0 min,  0.011 sec
     gradient                   ...        0 min,  0.024 sec
 * total energy  :   -71.3016967 Eh     change       -0.1863836E-04 Eh
   gradient norm :     0.0012909 Eh/α   predicted    -0.7182018E-05 ( -61.47%)
   displ. norm   :     0.1345116 α      lambda       -0.2728912E-04
   maximum displ.:     0.0986422 α      in ANC's #1, #3, #2, ...

........................................................................
.............................. CYCLE   28 ..............................
........................................................................

 iter      E             dE          RMSdq      gap      omega  full diag
   1    -72.1987305 -0.721987E+02  0.263E-02    2.50       0.0  T
   2    -72.1987311 -0.575491E-06  0.151E-02    2.50       1.0  T
   3    -72.1987303  0.733116E-06  0.542E-03    2.50       2.8  T
   4    -72.1987313 -0.974928E-06  0.952E-04    2.50      16.2  T
   5    -72.1987313 -0.113807E-07  0.503E-04    2.50      30.7  T
     SCC iter.                  ...        0 min,  0.011 sec
     gradient                   ...        0 min,  0.024 sec
 * total energy  :   -71.3017255 Eh     change       -0.2877324E-04 Eh
   gradient norm :     0.0013056 Eh/α   predicted    -0.1375842E-04 ( -52.18%)
   displ. norm   :     0.1556603 α      lambda       -0.2304226E-04
   maximum displ.:     0.1153770 α      in ANC's #1, #3, #2, ...

........................................................................
.............................. CYCLE   29 ..............................
........................................................................

 iter      E             dE          RMSdq      gap      omega  full diag
   1    -72.1983841 -0.721984E+02  0.307E-02    2.50       0.0  T
   2    -72.1983848 -0.750100E-06  0.177E-02    2.50       1.0  T
   3    -72.1983839  0.969171E-06  0.603E-03    2.50       2.6  T
   4    -72.1983851 -0.127321E-05  0.108E-03    2.50      14.2  T
   5    -72.1983852 -0.159385E-07  0.565E-04    2.50      27.3  T
   6    -72.1983852 -0.188932E-08  0.218E-04    2.50      70.7  T
     SCC iter.                  ...        0 min,  0.013 sec
     gradient                   ...        0 min,  0.024 sec
 * total energy  :   -71.3017512 Eh     change       -0.2576668E-04 Eh
   gradient norm :     0.0014199 Eh/α   predicted    -0.1164735E-04 ( -54.80%)
   displ. norm   :     0.1482366 α      lambda       -0.1938454E-04
   maximum displ.:     0.1092985 α      in ANC's #1, #3, #2, ...

........................................................................
.............................. CYCLE   30 ..............................
........................................................................

 iter      E             dE          RMSdq      gap      omega  full diag
   1    -72.1983733 -0.721984E+02  0.276E-02    2.49       0.0  T
   2    -72.1983741 -0.752383E-06  0.159E-02    2.50       1.0  T
   3    -72.1983732  0.885426E-06  0.576E-03    2.50       2.7  T
   4    -72.1983744 -0.118103E-05  0.104E-03    2.50      14.9  T
   5    -72.1983744 -0.185073E-07  0.520E-04    2.50      29.7  T
   6    -72.1983744 -0.132849E-08  0.195E-04    2.50      79.3  T
     SCC iter.                  ...        0 min,  0.064 sec
     gradient                   ...        0 min,  0.024 sec
 * total energy  :   -71.3017787 Eh     change       -0.2742129E-04 Eh
   gradient norm :     0.0013607 Eh/α   predicted    -0.9789643E-05 ( -64.30%)
   displ. norm   :     0.2489668 α      lambda       -0.3800065E-04
   maximum displ.:     0.1780787 α      in ANC's #1, #3, #2, ...

........................................................................
.............................. CYCLE   31 ..............................
........................................................................

 iter      E             dE          RMSdq      gap      omega  full diag
   1    -72.1980878 -0.721981E+02  0.458E-02    2.49       0.0  T
   2    -72.1980900 -0.221092E-05  0.265E-02    2.50       1.0  T
   3    -72.1980874  0.262456E-05  0.964E-03    2.50       1.6  T
   4    -72.1980909 -0.347817E-05  0.179E-03    2.50       8.6  T
   5    -72.1980909 -0.628169E-07  0.869E-04    2.50      17.7  T
   6    -72.1980909 -0.308277E-08  0.349E-04    2.50      44.2  T
     SCC iter.                  ...        0 min,  0.064 sec
     gradient                   ...        0 min,  0.024 sec
 * total energy  :   -71.3018319 Eh     change       -0.5320459E-04 Eh
   gradient norm :     0.0011244 Eh/α   predicted    -0.1952479E-04 ( -63.30%)
   displ. norm   :     0.5168630 α      lambda       -0.7566743E-04
   maximum displ.:     0.3646174 α      in ANC's #1, #3, #5, ...

........................................................................
.............................. CYCLE   32 ..............................
........................................................................

 iter      E             dE          RMSdq      gap      omega  full diag
   1    -72.1963386 -0.721963E+02  0.946E-02    2.48       0.0  T
   2    -72.1963464 -0.780228E-05  0.547E-02    2.50       1.0  T
   3    -72.1963370  0.935758E-05  0.176E-02    2.49       1.0  T
   4    -72.1963493 -0.123240E-04  0.353E-03    2.50       4.4  T
   5    -72.1963495 -0.219368E-06  0.172E-03    2.50       9.0  T
   6    -72.1963496 -0.129188E-07  0.649E-04    2.50      23.8  T
   7    -72.1963496 -0.133955E-07  0.152E-04    2.50     101.7  T
     SCC iter.                  ...        0 min,  0.066 sec
     gradient                   ...        0 min,  0.024 sec
 * total energy  :   -71.3019237 Eh     change       -0.9183540E-04 Eh
   gradient norm :     0.0034593 Eh/α   predicted    -0.4232866E-04 ( -53.91%)
   displ. norm   :     0.4575854 α      lambda       -0.8735311E-04
   maximum displ.:     0.3267790 α      in ANC's #1, #3, #5, ...

........................................................................
.............................. CYCLE   33 ..............................
........................................................................

 iter      E             dE          RMSdq      gap      omega  full diag
   1    -72.1947237 -0.721947E+02  0.819E-02    2.49       0.0  T
   2    -72.1947285 -0.483065E-05  0.473E-02    2.50       1.0  T
   3    -72.1947234  0.509048E-05  0.130E-02    2.49       1.2  T
   4    -72.1947303 -0.687581E-05  0.296E-03    2.50       5.2  T
   5    -72.1947305 -0.135321E-06  0.142E-03    2.50      10.8  T
   6    -72.1947305 -0.102267E-07  0.486E-04    2.50      31.8  T
   7    -72.1947305 -0.758996E-08  0.121E-04    2.50     127.5  T
     SCC iter.                  ...        0 min,  0.015 sec
     gradient                   ...        0 min,  0.069 sec
 * total energy  :   -71.3019835 Eh     change       -0.5984794E-04 Eh
   gradient norm :     0.0059902 Eh/α   predicted    -0.5282507E-04 ( -11.73%)
   displ. norm   :     0.2749920 α      lambda       -0.9016682E-04
   maximum displ.:     0.1999516 α      in ANC's #1, #3, #5, ...

........................................................................
.............................. CYCLE   34 ..............................
........................................................................

 iter      E             dE          RMSdq      gap      omega  full diag
   1    -72.1953617 -0.721954E+02  0.484E-02    2.49       0.0  T
   2    -72.1953638 -0.210112E-05  0.279E-02    2.50       1.0  T
   3    -72.1953621  0.168603E-05  0.772E-03    2.50       2.0  T
   4    -72.1953644 -0.232003E-05  0.197E-03    2.50       7.8  T
   5    -72.1953645 -0.825875E-07  0.901E-04    2.50      17.1  T
   6    -72.1953645 -0.233020E-08  0.359E-04    2.50      43.0  T
     SCC iter.                  ...        0 min,  0.013 sec
     gradient                   ...        0 min,  0.070 sec
 * total energy  :   -71.3020607 Eh     change       -0.7712267E-04 Eh
   gradient norm :     0.0058352 Eh/α   predicted    -0.4849312E-04 ( -37.12%)
   displ. norm   :     0.4032336 α      lambda       -0.2111808E-03
   maximum displ.:     0.2899984 α      in ANC's #1, #3, #4, ...

........................................................................
.............................. CYCLE   35 ..............................
........................................................................

 iter      E             dE          RMSdq      gap      omega  full diag
   1    -72.1984420 -0.721984E+02  0.720E-02    2.49       0.0  T
   2    -72.1984465 -0.457769E-05  0.414E-02    2.50       1.0  T
   3    -72.1984437  0.282060E-05  0.103E-02    2.50       1.5  T
   4    -72.1984477 -0.398906E-05  0.299E-03    2.50       5.2  T
   5    -72.1984479 -0.221662E-06  0.132E-03    2.50      11.7  T
   6    -72.1984479 -0.448068E-08  0.529E-04    2.50      29.2  T
   7    -72.1984479 -0.851705E-08  0.127E-04    2.50     121.1  T
     SCC iter.                  ...        0 min,  0.015 sec
     gradient                   ...        0 min,  0.076 sec
 * total energy  :   -71.3022257 Eh     change       -0.1650532E-03 Eh
   gradient norm :     0.0038271 Eh/α   predicted    -0.1227609E-03 ( -25.62%)
   displ. norm   :     0.8008422 α      lambda       -0.2794734E-03
   maximum displ.:     0.5692942 α      in ANC's #1, #3, #4, ...

........................................................................
.............................. CYCLE   36 ..............................
........................................................................

 iter      E             dE          RMSdq      gap      omega  full diag
   1    -72.1949525 -0.721950E+02  0.140E-01    2.50       0.0  T
   2    -72.1949607 -0.827012E-05  0.808E-02    2.50       1.0  T
   3    -72.1949614 -0.708103E-06  0.874E-03    2.50       1.8  T
   4    -72.1949632 -0.180867E-05  0.428E-03    2.50       3.6  T
   5    -72.1949635 -0.241106E-06  0.178E-03    2.50       8.7  T
   6    -72.1949635 -0.451416E-07  0.421E-04    2.50      36.7  T
   7    -72.1949635 -0.524712E-08  0.171E-04    2.50      90.0  T
     SCC iter.                  ...        0 min,  0.015 sec
     gradient                   ...        0 min,  0.075 sec
 * total energy  :   -71.3024414 Eh     change       -0.2156784E-03 Eh
   gradient norm :     0.0072905 Eh/α   predicted    -0.2293597E-03 (   6.34%)
   displ. norm   :     0.4478550 α      lambda       -0.3559398E-03
   maximum displ.:     0.2739247 α      in ANC's #1, #4, #3, ...

........................................................................
.............................. CYCLE   37 ..............................
........................................................................

 iter      E             dE          RMSdq      gap      omega  full diag
   1    -72.1963350 -0.721963E+02  0.842E-02    2.50       0.0  T
   2    -72.1963381 -0.319004E-05  0.488E-02    2.50       1.0  T
   3    -72.1963373  0.867028E-06  0.800E-03    2.50       1.9  T
   4    -72.1963392 -0.188064E-05  0.239E-03    2.50       6.5  T
   5    -72.1963392 -0.359845E-07  0.112E-03    2.50      13.7  T
   6    -72.1963392 -0.833538E-08  0.372E-04    2.50      41.4  T
   7    -72.1963392 -0.491696E-08  0.124E-04    2.50     124.0  T
     SCC iter.                  ...        0 min,  0.015 sec
     gradient                   ...        0 min,  0.070 sec
 * total energy  :   -71.3027208 Eh     change       -0.2793864E-03 Eh
   gradient norm :     0.0058112 Eh/α   predicted    -0.2136780E-03 ( -23.52%)
   displ. norm   :     0.4391431 α      lambda       -0.3558737E-03
   maximum displ.:     0.2626239 α      in ANC's #4, #1, #3, ...

........................................................................
.............................. CYCLE   38 ..............................
........................................................................

 iter      E             dE          RMSdq      gap      omega  full diag
   1    -72.1982685 -0.721983E+02  0.833E-02    2.50       0.0  T
   2    -72.1982718 -0.328387E-05  0.483E-02    2.50       1.0  T
   3    -72.1982709  0.922791E-06  0.818E-03    2.50       1.9  T
   4    -72.1982728 -0.194678E-05  0.243E-03    2.50       6.4  T
   5    -72.1982729 -0.385366E-07  0.115E-03    2.50      13.4  T
   6    -72.1982729 -0.990546E-08  0.330E-04    2.50      46.8  T
   7    -72.1982729 -0.368686E-08  0.125E-04    2.50     123.0  T
     SCC iter.                  ...        0 min,  0.015 sec
     gradient                   ...        0 min,  0.024 sec
 * total energy  :   -71.3029788 Eh     change       -0.2580528E-03 Eh
   gradient norm :     0.0040826 Eh/α   predicted    -0.2122537E-03 ( -17.75%)
   displ. norm   :     0.8396971 α      lambda       -0.3622105E-03
   maximum displ.:     0.5343133 α      in ANC's #1, #4, #3, ...

........................................................................
.............................. CYCLE   39 ..............................
........................................................................

 iter      E             dE          RMSdq      gap      omega  full diag
   1    -72.1894480 -0.721894E+02  0.143E-01    2.52       0.0  T
   2    -72.1894602 -0.122360E-04  0.835E-02    2.51       1.0  T
   3    -72.1894513  0.890829E-05  0.198E-02    2.51       1.0  T
   4    -72.1894643 -0.129860E-04  0.458E-03    2.51       3.4  T
   5    -72.1894645 -0.198945E-06  0.232E-03    2.51       6.7  T
   6    -72.1894645 -0.420203E-07  0.670E-04    2.51      23.0  T
   7    -72.1894645 -0.155450E-07  0.230E-04    2.51      67.1  T
     SCC iter.                  ...        0 min,  0.015 sec
     gradient                   ...        0 min,  0.024 sec
 * total energy  :   -71.3030580 Eh     change       -0.7913576E-04 Eh
   gradient norm :     0.0116342 Eh/α   predicted    -0.3088050E-03 ( 290.22%)
   displ. norm   :     0.1519941 α      lambda       -0.4670963E-03
   maximum displ.:     0.0802863 α      in ANC's #1, #4, #5, ...

........................................................................
.............................. CYCLE   40 ..............................
........................................................................

 iter      E             dE          RMSdq      gap      omega  full diag
   1    -72.1975160 -0.721975E+02  0.464E-02    2.50       0.0  T
   2    -72.1975181 -0.209246E-05  0.275E-02    2.50       1.0  T
   3    -72.1975151  0.303491E-05  0.992E-03    2.50       1.6  T
   4    -72.1975187 -0.366374E-05  0.216E-03    2.50       7.2  T
   5    -72.1975189 -0.129234E-06  0.841E-04    2.50      18.3  T
   6    -72.1975189 -0.316183E-08  0.419E-04    2.50      36.8  T
     SCC iter.                  ...        0 min,  0.013 sec
     gradient                   ...        0 min,  0.024 sec
 * total energy  :   -71.3033026 Eh     change       -0.2446433E-03 Eh
   gradient norm :     0.0049174 Eh/α   predicted    -0.2389435E-03 (  -2.33%)
   displ. norm   :     0.2931522 α      lambda       -0.1348843E-03
   maximum displ.:     0.1871386 α      in ANC's #4, #1, #3, ...

........................................................................
.............................. CYCLE   41 ..............................
........................................................................

 iter      E             dE          RMSdq      gap      omega  full diag
   1    -72.1983274 -0.721983E+02  0.538E-02    2.51       0.0  T
   2    -72.1983290 -0.161126E-05  0.312E-02    2.51       1.0  T
   3    -72.1983271  0.192776E-05  0.834E-03    2.51       1.9  T
   4    -72.1983296 -0.250864E-05  0.189E-03    2.51       8.2  T
   5    -72.1983296 -0.501017E-07  0.921E-04    2.51      16.8  T
   6    -72.1983296 -0.520347E-08  0.373E-04    2.51      41.3  T
     SCC iter.                  ...        0 min,  0.013 sec
     gradient                   ...        0 min,  0.024 sec
 * total energy  :   -71.3034008 Eh     change       -0.9814381E-04 Eh
   gradient norm :     0.0031899 Eh/α   predicted    -0.7323808E-04 ( -25.38%)
   displ. norm   :     0.4620998 α      lambda       -0.1421100E-03
   maximum displ.:     0.2808799 α      in ANC's #4, #1, #3, ...

........................................................................
.............................. CYCLE   42 ..............................
........................................................................

 iter      E             dE          RMSdq      gap      omega  full diag
   1    -72.1974697 -0.721975E+02  0.798E-02    2.52       0.0  T
   2    -72.1974739 -0.416260E-05  0.464E-02    2.51       1.0  T
   3    -72.1974697  0.413527E-05  0.128E-02    2.51       1.2  T
   4    -72.1974753 -0.552640E-05  0.271E-03    2.51       5.7  T
   5    -72.1974753 -0.943818E-07  0.140E-03    2.51      11.0  T
   6    -72.1974754 -0.192340E-07  0.559E-04    2.51      27.6  T
   7    -72.1974754 -0.693645E-08  0.157E-04    2.51      98.2  T
     SCC iter.                  ...        0 min,  0.060 sec
     gradient                   ...        0 min,  0.024 sec
 * total energy  :   -71.3034746 Eh     change       -0.7381642E-04 Eh
   gradient norm :     0.0047230 Eh/α   predicted    -0.8622672E-04 (  16.81%)
   displ. norm   :     0.0770487 α      lambda       -0.7347747E-04
   maximum displ.:     0.0429691 α      in ANC's #5, #4, #6, ...
 * RMSD in coord.:     0.8902311 α      energy gain  -0.1998096E-02 Eh

generating ANC from exact Hessian ...
Using Lindh-Hessian (1995)
 Shifting diagonal of input Hessian by    9.6271743405400723E-003
 Lowest  eigenvalues of input Hessian
    0.000000    0.000000    0.000000    0.000000    0.000000    0.000000
    0.010000    0.010275    0.011036    0.011616    0.012205    0.012533
    0.013493    0.014770    0.016138    0.018489    0.019980    0.020864
 Highest eigenvalues
    1.975090    2.071379    2.106786    2.210045    2.279983    2.419139


........................................................................
.............................. CYCLE   43 ..............................
........................................................................

 iter      E             dE          RMSdq      gap      omega  full diag
   1    -72.2001945 -0.722002E+02  0.223E-02    2.51       0.0  T
   2    -72.2001950 -0.483289E-06  0.130E-02    2.51       1.2  T
   3    -72.2001947  0.230846E-06  0.313E-03    2.51       4.9  T
   4    -72.2001951 -0.315060E-06  0.870E-04    2.51      17.7  T
   5    -72.2001951 -0.231827E-07  0.402E-04    2.51      38.4  T
     SCC iter.                  ...        0 min,  0.011 sec
     gradient                   ...        0 min,  0.024 sec
 * total energy  :   -71.3035196 Eh     change       -0.4499596E-04 Eh
   gradient norm :     0.0031408 Eh/α   predicted     0.0000000E+00 (-100.00%)
   displ. norm   :     0.0350176 α      lambda       -0.3907998E-04
   maximum displ.:     0.0209760 α      in ANC's #5, #7, #12, ...

........................................................................
.............................. CYCLE   44 ..............................
........................................................................

 iter      E             dE          RMSdq      gap      omega  full diag
   1    -72.1996726 -0.721997E+02  0.129E-02    2.51       0.0  T
   2    -72.1996728 -0.201943E-06  0.765E-03    2.51       2.0  T
   3    -72.1996725  0.347044E-06  0.317E-03    2.51       4.9  T
   4    -72.1996729 -0.420065E-06  0.652E-04    2.51      23.7  T
   5    -72.1996729 -0.119636E-07  0.234E-04    2.51      66.0  T
     SCC iter.                  ...        0 min,  0.056 sec
     gradient                   ...        0 min,  0.024 sec
 * total energy  :   -71.3035484 Eh     change       -0.2882837E-04 Eh
   gradient norm :     0.0011838 Eh/α   predicted    -0.1965370E-04 ( -31.83%)
   displ. norm   :     0.1037092 α      lambda       -0.3331482E-04
   maximum displ.:     0.0684097 α      in ANC's #5, #6, #7, ...

........................................................................
.............................. CYCLE   45 ..............................
........................................................................

 iter      E             dE          RMSdq      gap      omega  full diag
   1    -72.1988442 -0.721988E+02  0.286E-02    2.51       0.0  T
   2    -72.1988450 -0.798946E-06  0.169E-02    2.51       1.0  T
   3    -72.1988435  0.145857E-05  0.651E-03    2.51       2.4  T
   4    -72.1988453 -0.174788E-05  0.132E-03    2.51      11.7  T
   5    -72.1988453 -0.469966E-07  0.509E-04    2.51      30.3  T
   6    -72.1988453 -0.127574E-08  0.253E-04    2.51      60.9  T
     SCC iter.                  ...        0 min,  0.013 sec
     gradient                   ...        0 min,  0.069 sec
 * total energy  :   -71.3035757 Eh     change       -0.2728386E-04 Eh
   gradient norm :     0.0022606 Eh/α   predicted    -0.1673920E-04 ( -38.65%)
   displ. norm   :     0.0451857 α      lambda       -0.1568829E-04
   maximum displ.:     0.0292028 α      in ANC's #5, #2, #6, ...

........................................................................
.............................. CYCLE   46 ..............................
........................................................................

 iter      E             dE          RMSdq      gap      omega  full diag
   1    -72.1989574 -0.721990E+02  0.114E-02    2.51       0.0  T
   2    -72.1989575 -0.582358E-07  0.670E-03    2.51       2.3  T
   3    -72.1989574  0.774884E-07  0.162E-03    2.51       9.5  T
   4    -72.1989575 -0.984846E-07  0.376E-04    2.51      41.1  T
   5    -72.1989575 -0.269011E-08  0.191E-04    2.51      80.8  T
     SCC iter.                  ...        0 min,  0.011 sec
     gradient                   ...        0 min,  0.069 sec
 * total energy  :   -71.3035899 Eh     change       -0.1421245E-04 Eh
   gradient norm :     0.0018588 Eh/α   predicted    -0.7862111E-05 ( -44.68%)
   displ. norm   :     0.2077800 α      lambda       -0.4293456E-04
   maximum displ.:     0.1253181 α      in ANC's #5, #2, #3, ...

........................................................................
.............................. CYCLE   47 ..............................
........................................................................

 iter      E             dE          RMSdq      gap      omega  full diag
   1    -72.1992315 -0.721992E+02  0.514E-02    2.52       0.0  T
   2    -72.1992326 -0.108626E-05  0.302E-02    2.52       1.0  T
   3    -72.1992319  0.736748E-06  0.570E-03    2.52       2.7  T
   4    -72.1992330 -0.107771E-05  0.158E-03    2.52       9.7  T
   5    -72.1992330 -0.397494E-07  0.851E-04    2.52      18.1  T
   6    -72.1992330 -0.569852E-08  0.364E-04    2.52      42.4  T
     SCC iter.                  ...        0 min,  0.013 sec
     gradient                   ...        0 min,  0.075 sec
 * total energy  :   -71.3036257 Eh     change       -0.3582835E-04 Eh
   gradient norm :     0.0014374 Eh/α   predicted    -0.2188044E-04 ( -38.93%)
   displ. norm   :     0.0709804 α      lambda       -0.8182478E-05
   maximum displ.:     0.0415145 α      in ANC's #5, #3, #2, ...

........................................................................
.............................. CYCLE   48 ..............................
........................................................................

 iter      E             dE          RMSdq      gap      omega  full diag
   1    -72.1994262 -0.721994E+02  0.164E-02    2.52       0.0  T
   2    -72.1994263 -0.132384E-06  0.960E-03    2.52       1.6  T
   3    -72.1994262  0.142375E-06  0.219E-03    2.52       7.1  T
   4    -72.1994264 -0.191491E-06  0.550E-04    2.52      28.0  T
   5    -72.1994264 -0.430545E-08  0.298E-04    2.52      51.8  T
     SCC iter.                  ...        0 min,  0.011 sec
     gradient                   ...        0 min,  0.024 sec
 * total energy  :   -71.3036352 Eh     change       -0.9434093E-05 Eh
   gradient norm :     0.0009284 Eh/α   predicted    -0.4103442E-05 ( -56.50%)
   displ. norm   :     0.1121779 α      lambda       -0.1102534E-04
   maximum displ.:     0.0602735 α      in ANC's #5, #3, #2, ...

........................................................................
.............................. CYCLE   49 ..............................
........................................................................

 iter      E             dE          RMSdq      gap      omega  full diag
   1    -72.1994153 -0.721994E+02  0.260E-02    2.52       0.0  T
   2    -72.1994157 -0.399036E-06  0.153E-02    2.52       1.0  T
   3    -72.1994153  0.406035E-06  0.387E-03    2.52       4.0  T
   4    -72.1994158 -0.550826E-06  0.836E-04    2.52      18.5  T
   5    -72.1994158 -0.906017E-08  0.466E-04    2.52      33.1  T
     SCC iter.                  ...        0 min,  0.056 sec
     gradient                   ...        0 min,  0.024 sec
 * total energy  :   -71.3036437 Eh     change       -0.8539760E-05 Eh
   gradient norm :     0.0008734 Eh/α   predicted    -0.5544394E-05 ( -35.08%)
   displ. norm   :     0.0533593 α      lambda       -0.5386016E-05
   maximum displ.:     0.0268838 α      in ANC's #3, #4, #2, ...

........................................................................
.............................. CYCLE   50 ..............................
........................................................................

 iter      E             dE          RMSdq      gap      omega  full diag
   1    -72.1994696 -0.721995E+02  0.104E-02    2.52       0.0  T
   2    -72.1994697 -0.121059E-06  0.609E-03    2.52       2.5  T
   3    -72.1994696  0.132574E-06  0.234E-03    2.52       6.6  T
   4    -72.1994698 -0.175868E-06  0.449E-04    2.52      34.4  T
   5    -72.1994698 -0.378336E-08  0.233E-04    2.52      66.1  T
     SCC iter.                  ...        0 min,  0.011 sec
     gradient                   ...        0 min,  0.069 sec
 * total energy  :   -71.3036487 Eh     change       -0.4982826E-05 Eh
   gradient norm :     0.0006988 Eh/α   predicted    -0.2714090E-05 ( -45.53%)
   displ. norm   :     0.0505505 α      lambda       -0.3918049E-05
   maximum displ.:     0.0230513 α      in ANC's #4, #3, #6, ...

   *** GEOMETRY OPTIMIZATION CONVERGED AFTER 50 ITERATIONS ***

------------------------------------------------------------------------
 total energy gain   :        -0.0217034 Eh      -13.6191 kcal/mol
 total RMSD          :         1.6337481 a0        0.8645 Å
 total power (kW/mol):        -1.1396455 (step)  -12.4416 (real)
------------------------------------------------------------------------

 ANCopt (total)                0 d,  0 h,  0 min,  4.580 sec
 optimizer setup                ...        0 min,  0.000 sec (  0.002%)
 model hessian                  ...        0 min,  0.147 sec (  3.203%)
 ANC generation                 ...        0 min,  0.004 sec (  0.098%)
 coordinate transformation      ...        0 min,  0.000 sec (  0.008%)
 single point calculation       ...        0 min,  4.416 sec ( 96.415%)
 optimization log               ...        0 min,  0.007 sec (  0.145%)
 hessian update                 ...        0 min,  0.001 sec (  0.014%)
 rational function              ...        0 min,  0.004 sec (  0.082%)

================
 final structure:
================
42
 xtb: 6.7.1 (edcfbbe)
O            5.61362087023207        2.51003889664614        0.34685156905948
C            5.12599330623203        1.41397317885625        0.32060022614660
O            5.87382642349723        0.30908067555851        0.59062398279035
C            3.72373570280634        1.07540770403124        0.02853912591199
C            3.23704015516289       -0.13410437295111        0.41627145467090
N            1.96790939077359       -0.54555528412594        0.22547091134963
C            1.04191296570862        0.31952852735124       -0.33840800945041
C           -0.29994330866916       -0.03921223499977       -0.44927469596451
C           -1.26040630272170        0.79855427670203       -1.02372463399720
N           -2.56245033686551        0.40663781284316       -1.20996309466671
C           -3.67739798836015        1.30048065483035       -0.96373591861088
C           -4.20573473733585        1.09416088559777        0.46107552108913
N           -4.61601608260349       -0.28993091748291        0.61331416360001
C           -3.49360388541956       -1.18741502560364        0.41615851852496
C           -2.97343140538859       -0.96502950508898       -1.00819986108160
C           -0.78259808642212        2.04608189312218       -1.48770720459681
F           -1.62381118995678        2.90484168447765       -2.11712945601774
C            0.52363748239451        2.42771432680926       -1.35912432994945
C            1.47055098674840        1.57892057509449       -0.78103559706173
C            2.86556403351951        2.03824038334044       -0.66983293477078
O            3.23684620948968        3.10108077407135       -1.12910658595797
C            1.58291757686522       -1.85399435246143        0.66625625231394
C            2.47341320884671       -3.01958276905405        0.35668338679091
C            1.16063098436194       -2.87924795271679       -0.34778956277458
H            6.78317103835765        0.59137825994717        0.77236414043638
H            3.88236661515996       -0.83461614059741        0.92660918400440
H           -0.60684085855834       -0.99474336130748       -0.06334202080425
H           -4.47105122579933        1.05737677426682       -1.67591059959933
H           -3.39203439797562        2.33897281115540       -1.09701913855719
H           -5.07236777335758        1.73643409216428        0.62567619217306
H           -3.41379495504502        1.37913266612692        1.17834161326576
H           -5.04134048778771       -0.43882464228681        1.52210116019554
H           -2.67813493368356       -1.00502166801514        1.13989499826702
H           -3.84034076727318       -2.21644437126871        0.53129204779484
H           -3.80028174949010       -1.15462452546241       -1.70003181963052
H           -2.15904129804812       -1.64657680041774       -1.25121699440767
H            0.85120876045242        3.38850341998829       -1.72498085450895
H            1.07036244743811       -1.85049169189564        1.62474682724789
H            2.58480156328731       -3.78629670957973        1.10741928918915
H            3.36842136794308       -2.83564031234355       -0.21701503378743
H            1.17807702679912       -2.58891881096974       -1.38709851087232
H            0.35451365468096       -3.55036882434442       -0.09214370775250

 Bond Distances (Angstroems)
 ---------------------------
O1-C2=1.1999         C2-O1=1.1999         C2-O3=1.3612         C2-C4=1.4718         O3-C2=1.3612         O3-H25=0.9693        
C4-C2=1.4718         C4-C5=1.3602         C4-C20=1.4667        C5-C4=1.3602         C5-N6=1.3477         C5-H26=1.0806        
N6-C5=1.3477         N6-C7=1.3870         N6-C22=1.4334        C7-N6=1.3870         C7-C8=1.3934         C7-C19=1.4020        
C8-C7=1.3934         C8-C9=1.3980         C8-H27=1.0753        C9-C8=1.3980         C9-N10=1.3724        C9-C16=1.4142        
N10-C9=1.3724        N10-C11=1.4501       N10-C15=1.4461       C11-N10=1.4501       C11-C12=1.5336       C11-H28=1.0937       
C11-H29=1.0852       C12-C11=1.5336       C12-N13=1.4516       C12-H30=1.0912       C12-H31=1.1058       N13-C12=1.4516       
N13-C14=1.4506       N13-H32=1.0144       C14-N13=1.4506       C14-C15=1.5326       C14-H33=1.1055       C14-H34=1.0920       
C15-N10=1.4461       C15-C14=1.5326       C15-H35=1.0947       C15-H36=1.0894       C16-C9=1.4142        C16-F17=1.3569       
C16-C18=1.3669       F17-C16=1.3569       C18-C16=1.3669       C18-C19=1.3969       C18-H37=1.0790       C19-C7=1.4020        
C19-C18=1.3969       C19-C20=1.4729       C20-C4=1.4667        C20-C19=1.4729       C20-O21=1.2159       O21-C20=1.2159       
C22-N6=1.4334        C22-C23=1.4991       C22-C24=1.5026       C22-H38=1.0869       C23-C22=1.4991       C23-C24=1.4965       
C23-H39=1.0788       C23-H40=1.0789       C24-C22=1.5026       C24-C23=1.4965       C24-H41=1.0792       C24-H42=1.0796       
H25-O3=0.9693        H26-C5=1.0806        H27-C8=1.0753        H28-C11=1.0937       H29-C11=1.0852       H30-C12=1.0912       
H31-C12=1.1058       H32-N13=1.0144       H33-C14=1.1055       H34-C14=1.0920       H35-C15=1.0947       H36-C15=1.0894       
H37-C18=1.0790       H38-C22=1.0869       H39-C23=1.0788       H40-C23=1.0789       H41-C24=1.0792       H42-C24=1.0796       
 C  H  Rav=1.0872 sigma=0.0091  Rmin=1.0753  Rmax=1.1058    16
 C  C  Rav=1.4472 sigma=0.0575  Rmin=1.3602  Rmax=1.5336    15
 N  H  Rav=1.0144 sigma=0.0000  Rmin=1.0144  Rmax=1.0144     1
 N  C  Rav=1.4174 sigma=0.0391  Rmin=1.3477  Rmax=1.4516     8
 O  H  Rav=0.9693 sigma=0.0000  Rmin=0.9693  Rmax=0.9693     1
 O  C  Rav=1.2590 sigma=0.0726  Rmin=1.1999  Rmax=1.3612     3
 F  C  Rav=1.3569 sigma=0.0000  Rmin=1.3569  Rmax=1.3569     1

 selected bond angles (degree)
 --------------------
O3-C2-O1=120.92                C4-C2-O1=126.99                C4-C2-O3=112.09                H25-O3-C2=108.43               
C5-C4-C2=119.27                C20-C4-C2=120.06               C20-C4-C5=120.67               N6-C5-C4=124.62                
H26-C5-C4=119.83               H26-C5-N6=115.55               C7-N6-C5=119.72                C22-N6-C5=119.21               
C22-N6-C7=121.00               C8-C7-N6=120.98                C19-C7-N6=118.98               C19-C7-C8=120.04               
C9-C8-C7=122.69                H27-C8-C7=118.37               H27-C8-C9=118.94               N10-C9-C8=122.44               
C16-C9-C8=115.55               C16-C9-N10=121.87              C11-N10-C9=122.03              C15-N10-C9=121.44              
C15-N10-C11=110.03             

 selected dihedral angles (degree)
 ---------------------------------
H25-O3-C2-O1=359.24           H25-O3-C2-C4=179.87           C5-C4-C2-O1=199.39            C5-C4-C2-O3= 18.71            
C20-C4-C2-O1= 19.21           C20-C4-C2-O3=198.54           N6-C5-C4-C2=178.80            N6-C5-C4-C20=358.98           
H26-C5-C4-C2=359.59           H26-C5-C4-C20=179.77          C7-N6-C5-C4=356.38            C7-N6-C5-H26=175.62           
C22-N6-C5-C4=179.19           C22-N6-C5-H26=358.43          C8-C7-N6-C5=185.19            C8-C7-N6-C22=  2.33           
C19-C7-N6-C5=  4.21           C19-C7-N6-C22=181.35          C9-C8-C7-N6=180.69            C9-C8-C7-C19=  1.68           
H27-C8-C7-N6=  1.56           H27-C8-C7-C19=182.56          N10-C9-C8-C7=175.63           N10-C9-C8-H27=354.75          
C16-C9-C8-C7=359.88           C16-C9-C8-H27=178.99          C11-N10-C9-C8=139.42          C11-N10-C9-C16=314.91         
C15-N10-C9-C8=350.55          C15-N10-C9-C16=166.04         
           -------------------------------------------------
          |                Final Singlepoint                |
           -------------------------------------------------

          ...................................................
          :                      SETUP                      :
          :.................................................:
          :  # basis functions                 114          :
          :  # atomic orbitals                 114          :
          :  # shells                           66          :
          :  # electrons                       126          :
          :  max. iterations                   250          :
[...]
     DOI: 10.1002/anie.202004239
   
   for ALPB and GBSA implicit solvation:
   * S. Ehlert, M. Stahn, S. Spicher, S. Grimme, J. Chem. Theory Comput.,
     2021, 17, 4250-4261. DOI: 10.1021/acs.jctc.1c00471
   
   for ddCOSMO and CPCM-X implicit solvation:
   * M. Stahn, S. Ehlert, S. Grimme, J. Phys. Chem. A,
     2023, XX, XXXX-XXXX. DOI: 10.1021/acs.jpca.3c04382
   
   for DFT-D4:
   * E. Caldeweyher, C. Bannwarth and S. Grimme, J. Chem. Phys., 2017,
     147, 034112. DOI: 10.1063/1.4993215
   * E. Caldeweyher, S. Ehlert, A. Hansen, H. Neugebauer, S. Spicher,
     C. Bannwarth and S. Grimme, J. Chem. Phys., 2019, 150, 154122.
     DOI: 10.1063/1.5090222
   * E. Caldeweyher, J.-M. Mewes, S. Ehlert and S. Grimme, Phys. Chem. Chem. Phys.
     2020, 22, 8499-8512. DOI: 10.1039/D0CP00502A
   
   for sTDA-xTB:
   * S. Grimme and C. Bannwarth, J. Chem. Phys., 2016, 145, 054103.
     DOI: 10.1063/1.4959605
   
   in the mass-spec context:
   * V. Asgeirsson, C. Bauer and S. Grimme, Chem. Sci., 2017, 8, 4879.
     DOI: 10.1039/c7sc00601b
   * J. Koopman and S. Grimme, ACS Omega 2019, 4, 12, 15120-15133.
     DOI: 10.1021/acsomega.9b02011
   
   for metadynamics refer to:
   * S. Grimme, J. Chem. Theory Comput., 2019, 155, 2847-2862
     DOI: 10.1021/acs.jctc.9b00143
   
   for SPH calculations refer to:
   * S. Spicher and S. Grimme, J. Chem. Theory Comput., 2021, 17, 1701-1714
     DOI: 10.1021/acs.jctc.0c01306
   
   for ONIOM refer to:
   * C. Plett, A. Katbashev, S. Ehlert, S. Grimme, M. Bursch,
     Phys. Chem. Chem. Phys., 2023, 25, 17860-17868. DOI: 10.1039/D3CP02178E
   
   for DIPRO refer to:
   * J. Kohn, N. Gildemeister, S. Grimme, D. Fazzi, A. Hansen,
     J. Chem. Phys., 2023, just accepted.
   
   for PTB refer to:
   * S. Grimme, M. Mueller, A. Hansen, J. Chem. Phys., 2023, 158, 124111.
     DOI: 10.1063/5.0137838
   
   with help from (in alphabetical order)
   P. Atkinson, C. Bannwarth, F. Bohle, G. Brandenburg, E. Caldeweyher
   M. Checinski, S. Dohm, S. Ehlert, S. Ehrlich, I. Gerasimov, C. Hölzer
   A. Katbashev, J. Kohn, J. Koopman, C. Lavigne, S. Lehtola, F. März, M. Müller,
   F. Musil, H. Neugebauer, J. Pisarek, C. Plett, P. Pracht, F. Pultar,
   J. Seibert, P. Shushkov, S. Spicher, M. Stahn, M. Steiner, T. Strunk,
   J. Stückrath, T. Rose, and J. Unsleber
   
 * started run on 2025/05/15 at 16:04:50.000     
   ID    Z sym.   atoms
    1    8 O      1, 3, 21
    2    6 C      2, 4, 5, 7-9, 11, 12, 14-16, 18-20, 22-24
    3    7 N      6, 10, 13
    4    9 F      17
    5    1 H      25-42

           -------------------------------------------------
          |                Calculation Setup                |
           -------------------------------------------------

          program call               : xtb /rds/general/user/hgt20/home/callum/QDESCP/Ciprofloxacin_rdkit_conf_3/Ciprofloxacin_rdkit_conf_3.xyz --acc 1 --gfn 2 --chrg 0 --uhf 2 --etemp 300 --input /rds/general/user/hgt20/home/callum/QDESCP/Ciprofloxacin_rdkit_conf_3/Ciprofloxacin_rdkit_conf_3_xtb.inp -P 1
          hostname                   : login-c
          coordinate file            : /rds/general/user/hgt20/home/callum/QDESCP/Ciprofloxacin_rdkit_conf_3/Ciprofloxacin_rdkit_conf_3.xyz
          omp threads                :                     1


           -------------------------------------------------
          |                 G F N 2 - x T B                 |
           -------------------------------------------------

        Reference                      10.1021/acs.jctc.8b01176
      * Hamiltonian:
        H0-scaling (s, p, d)           1.850000    2.230000    2.230000
        zeta-weighting                 0.500000
      * Dispersion:
        s8                             2.700000
        a1                             0.520000
        a2                             5.000000
        s9                             5.000000
      * Repulsion:
        kExp                           1.500000    1.000000
        rExp                           1.000000
      * Coulomb:
        alpha                          2.000000
        third order                    shell-resolved
        anisotropic                    true
        a3                             3.000000
        a5                             4.000000
        cn-shift                       1.200000
        cn-exp                         4.000000
        max-rad                        5.000000


          ...................................................
          :                      SETUP                      :
          :.................................................:
          :  # basis functions                 114          :
          :  # atomic orbitals                 114          :
          :  # shells                           66          :
          :  # electrons                       126          :
          :  max. iterations                   250          :
          :  Hamiltonian                  GFN2-xTB          :
          :  restarted?                      false          :
          :  GBSA solvation                  false          :
          :  PC potential                    false          :
          :  electronic temp.          300.0000000     K    :
          :  accuracy                    1.0000000          :
          :  -> integral cutoff          0.2500000E+02      :
          :  -> integral neglect         0.1000000E-07      :
          :  -> SCF convergence          0.1000000E-05 Eh   :
          :  -> wf. convergence          0.1000000E-03 e    :
          :  Broyden damping             0.4000000          :
          :  net charge                          0          :
          :  unpaired electrons                  2          :
          ...................................................

 iter      E             dE          RMSdq      gap      omega  full diag
   1    -71.8137840 -0.718138E+02  0.392E+00    0.19       0.0  T
   2    -71.8193090 -0.552499E-02  0.301E+00    0.10       1.0  T
   3    -71.9319669 -0.112658E+00  0.219E+00    0.47       1.0  T
   4    -71.9626013 -0.306344E-01  0.141E+00    0.28       1.0  T
   5    -71.9574546  0.514672E-02  0.137E+00    0.38       1.0  T
   6    -72.0623714 -0.104917E+00  0.578E-01    0.22       1.0  T
   7    -72.0383509  0.240205E-01  0.806E-01    0.16       1.0  T
   8    -72.0899753 -0.516244E-01  0.274E-01    0.12       1.0  T
   9    -72.0928742 -0.289890E-02  0.109E-01    0.13       1.0  T
  10    -72.0906193  0.225487E-02  0.182E-01    0.14       1.0  T
  11    -72.0933218 -0.270248E-02  0.419E-02    0.13       1.0  T
  12    -72.0933208  0.102074E-05  0.384E-02    0.13       1.0  T
  13    -72.0934330 -0.112204E-03  0.904E-03    0.13       1.7  T
  14    -72.0934390 -0.600100E-05  0.364E-03    0.13       4.2  T
  15    -72.0934353  0.365235E-05  0.707E-03    0.13       2.2  T
  16    -72.0934394 -0.412883E-05  0.534E-04    0.13      28.9  T
  17    -72.0934394  0.417737E-07  0.821E-04    0.13      18.8  T
  18    -72.0934394 -0.482612E-07  0.115E-04    0.13     134.0  T

   *** convergence criteria satisfied after 18 iterations ***

         #    Occupation            Energy/Eh            Energy/eV
      -------------------------------------------------------------
         1        2.0000           -0.8145862             -22.1660
       ...           ...                  ...                  ...
        58        2.0000           -0.4137663             -11.2592
        59        2.0000           -0.4064006             -11.0587
        60        2.0000           -0.3967033             -10.7948
        61        1.9849           -0.3770737             -10.2607
        62        1.5766           -0.3733963             -10.1606
        63        1.4385           -0.3728680             -10.1463
        64        0.9282           -0.2576155              -7.0101 (HOMO)
        65        0.0718           -0.2527514              -6.8777 (LUMO)
        66                         -0.2120189              -5.7693
        67                         -0.1964801              -5.3465
        68                         -0.1286502              -3.5007
        69                         -0.0880232              -2.3952
       ...                                ...                  ...
       114                          0.7258928              19.7525
      -------------------------------------------------------------
                  HL-Gap            0.0048641 Eh            0.1324 eV
             Fermi-level           -0.3141432 Eh           -8.5483 eV

 transition dipole moment (au) for excitation:          63          64
     X       Y       Z   
   0.6524  -0.1536   0.2090  total (au/Debye):    0.702   1.784
 dE (eV)             :    3.136
 oscillator strength :  0.53556E-01

 SCC (total)                   0 d,  0 h,  0 min,  0.117 sec
 SCC setup                      ...        0 min,  0.000 sec (  0.310%)
 Dispersion                     ...        0 min,  0.000 sec (  0.407%)
 classical contributions        ...        0 min,  0.000 sec (  0.125%)
 integral evaluation            ...        0 min,  0.008 sec (  7.054%)
 iterations                     ...        0 min,  0.074 sec ( 63.603%)
 molecular gradient             ...        0 min,  0.026 sec ( 22.189%)
 printout                       ...        0 min,  0.007 sec (  6.305%)

         :::::::::::::::::::::::::::::::::::::::::::::::::::::
         ::                     SUMMARY                     ::
         :::::::::::::::::::::::::::::::::::::::::::::::::::::
         :: total energy             -71.197618358039 Eh    ::
         :: gradient norm              0.086777883075 Eh/a0 ::
         :: HOMO-LUMO gap              0.132358880823 eV    ::
         ::.................................................::
         :: SCC energy               -72.093113053131 Eh    ::
         :: -> isotropic ES            0.099386329177 Eh    ::
         :: -> anisotropic ES          0.005497262055 Eh    ::
         :: -> anisotropic XC          0.017252957959 Eh    ::
         :: -> dispersion             -0.046901068135 Eh    ::
         :: repulsion energy           0.895494695092 Eh    ::
         :: add. restraining           0.000000000000 Eh    ::
         :: total charge               0.000000000003 e     ::
         :::::::::::::::::::::::::::::::::::::::::::::::::::::

           -------------------------------------------------
          |                Property Printout                |
           -------------------------------------------------

    * Orbital Energies and Occupations

         #    Occupation            Energy/Eh            Energy/eV
      -------------------------------------------------------------
         1        2.0000           -0.8145862             -22.1660
       ...           ...                  ...                  ...
        52        2.0000           -0.4598088             -12.5120
        53        2.0000           -0.4556929             -12.4000
        54        2.0000           -0.4531206             -12.3300
        55        2.0000           -0.4489820             -12.2174
        56        2.0000           -0.4384894             -11.9319
        57        2.0000           -0.4331419             -11.7864
        58        2.0000           -0.4137663             -11.2592
        59        2.0000           -0.4064006             -11.0587
        60        2.0000           -0.3967033             -10.7948
        61        1.9849           -0.3770737             -10.2607
        62        1.5766           -0.3733963             -10.1606
        63        1.4385           -0.3728680             -10.1463
        64        0.9282           -0.2576155              -7.0101 (HOMO)
        65        0.0718           -0.2527514              -6.8777 (LUMO)
        66                         -0.2120189              -5.7693
        67                         -0.1964801              -5.3465
        68                         -0.1286502              -3.5007
        69                         -0.0880232              -2.3952
        70                         -0.0683664              -1.8603
        71                         -0.0251881              -0.6854
        72                         -0.0123811              -0.3369
        73                          0.0162668               0.4426
        74                          0.0404436               1.1005
        75                          0.0469044               1.2763
       ...                                ...                  ...
       114                          0.7258928              19.7525
      -------------------------------------------------------------
                  HL-Gap            0.0048641 Eh            0.1324 eV
             Fermi-level           -0.3141432 Eh           -8.5483 eV

     #   Z          covCN         q      C6AA      α(0)
     1   8 O        0.856    -0.395    21.578     6.228
     2   6 C        2.698     0.354    20.990     7.498
     3   8 O        1.659    -0.407    20.980     6.183
     4   6 C        2.955    -0.069    29.709     8.940
     5   6 C        2.875    -0.012    28.316     8.723
     6   7 N        2.746    -0.026    21.748     6.926
     7   6 C        2.931     0.054    26.790     8.488
     8   6 C        2.929    -0.106    30.670     9.082
     9   6 C        2.902     0.035    27.227     8.556
    10   7 N        2.738    -0.051    22.234     7.003
    11   6 C        3.765    -0.013    20.850     6.508
    12   6 C        3.750     0.012    20.437     6.447
    13   7 N        2.684    -0.241    26.286     7.615
    14   6 C        3.750     0.013    20.417     6.444
    15   6 C        3.767    -0.012    20.821     6.503
    16   6 C        2.784     0.141    24.920     8.177
    17   9 F        0.787    -0.232    11.571     4.018
    18   6 C        2.922    -0.071    29.770     8.947
    19   6 C        2.982    -0.015    28.368     8.737
    20   6 C        2.830     0.198    23.790     7.993
    21   8 O        0.857    -0.340    20.522     6.074
    22   6 C        3.811     0.032    20.025     6.370
    23   6 C        3.806    -0.070    21.828     6.651
    24   6 C        3.806    -0.069    21.808     6.648
    25   1 H        0.805     0.325     0.651     1.268
    26   1 H        0.926     0.064     2.148     2.292
    27   1 H        0.926     0.037     2.487     2.466
    28   1 H        0.924     0.064     2.150     2.293
    29   1 H        0.925     0.081     1.969     2.195
    30   1 H        0.924     0.048     2.348     2.396
    31   1 H        0.922     0.021     2.723     2.581
    32   1 H        0.860     0.144     1.444     1.883
    33   1 H        0.922     0.021     2.725     2.582
    34   1 H        0.924     0.044     2.399     2.422
    35   1 H        0.924     0.067     2.117     2.276
    36   1 H        0.925     0.058     2.224     2.332
    37   1 H        0.926     0.077     2.009     2.217
    38   1 H        0.925     0.039     2.468     2.456
    39   1 H        0.926     0.049     2.338     2.391
    40   1 H        0.926     0.059     2.216     2.328
    41   1 H        0.926     0.052     2.297     2.370
    42   1 H        0.926     0.041     2.436     2.441

 Mol. C6AA /au·bohr⁶  :      20030.056181
 Mol. C8AA /au·bohr⁸  :     469393.655737
 Mol. α(0) /au        :        215.946893


Wiberg/Mayer (AO) data.
largest (>0.10) Wiberg bond orders for each atom

 ---------------------------------------------------------------------------
     #   Z sym  total        # sym  WBO       # sym  WBO       # sym  WBO
 ---------------------------------------------------------------------------
     1   8 O    2.023 --     2 C    1.722     3 O    0.147
     2   6 C    3.888 --     1 O    1.722     3 O    1.067     4 C    1.036
     3   8 O    2.129 --     2 C    1.067    25 H    0.872     1 O    0.147
     4   6 C    3.859 --     5 C    1.454    20 C    1.074     2 C    1.036
     5   6 C    3.853 --     4 C    1.454     6 N    1.175    26 H    0.948
     6   7 N    3.546 --     5 C    1.175     7 C    1.119    22 C    0.989
     7   6 C    3.940 --     8 C    1.372    19 C    1.268     6 N    1.119
     8   6 C    3.885 --     7 C    1.372     9 C    1.258    27 H    0.957
     9   6 C    3.905 --    16 C    1.278     8 C    1.258    10 N    1.151
    10   7 N    3.307 --     9 C    1.151    15 C    1.006    11 C    0.996
    11   6 C    3.960 --    10 N    0.996    12 C    0.977    29 H    0.966
                            28 H    0.964
    12   6 C    3.967 --    13 N    1.020    11 C    0.977    30 H    0.972
                            31 H    0.963
    13   7 N    3.074 --    14 C    1.021    12 C    1.020    32 H    0.951
    14   6 C    3.971 --    13 N    1.021    15 C    0.979    34 H    0.973
                            33 H    0.961
    15   6 C    3.971 --    10 N    1.006    14 C    0.979    36 H    0.967
                            35 H    0.962
    16   6 C    3.787 --    18 C    1.393     9 C    1.278    17 F    0.945
    17   9 F    1.065 --    16 C    0.945
    18   6 C    3.922 --    16 C    1.393    19 C    1.296    37 H    0.960
    19   6 C    3.824 --    18 C    1.296     7 C    1.268    20 C    1.035
    20   6 C    3.879 --    21 O    1.572     4 C    1.074    19 C    1.035
    21   8 O    1.877 --    20 C    1.572
    22   6 C    3.924 --     6 N    0.989    23 C    0.973    24 C    0.962
                            38 H    0.959
    23   6 C    3.943 --    24 C    0.984    39 H    0.980    40 H    0.976
                            22 C    0.973
    24   6 C    3.939 --    23 C    0.984    42 H    0.980    41 H    0.979
                            22 C    0.962
    25   1 H    0.893 --     3 O    0.872
    26   1 H    0.987 --     5 C    0.948
    27   1 H    0.997 --     8 C    0.957
    28   1 H    0.989 --    11 C    0.964
    29   1 H    0.993 --    11 C    0.966
    30   1 H    0.997 --    12 C    0.972
    31   1 H    0.996 --    12 C    0.963
    32   1 H    0.974 --    13 N    0.951
    33   1 H    0.996 --    14 C    0.961
    34   1 H    0.997 --    14 C    0.973
    35   1 H    0.988 --    15 C    0.962
    36   1 H    0.996 --    15 C    0.967
    37   1 H    0.992 --    18 C    0.960
    38   1 H    0.995 --    22 C    0.959
    39   1 H    0.997 --    23 C    0.980
    40   1 H    0.996 --    23 C    0.976
    41   1 H    0.997 --    24 C    0.979
    42   1 H    0.998 --    24 C    0.980
 ---------------------------------------------------------------------------

Topologies differ in total number of bonds
Writing topology from bond orders to xtbtopo.mol

molecular dipole:
                 x           y           z       tot (Debye)
 q only:       -3.132      -3.387       0.885
   full:       -2.913      -3.616       1.436      12.355
molecular quadrupole (traceless):
                xx          xy          yy          xz          yz          zz
 q only:        4.268     -28.359     -10.196       4.582       7.121       5.928
  q+dip:        5.704     -29.308     -13.760       2.239       6.839       8.056
   full:        4.350     -30.634     -14.169       1.252       8.369       9.819


           -------------------------------------------------
          | TOTAL ENERGY              -71.197618358039 Eh   |
          | GRADIENT NORM               0.086777883075 Eh/α |
          | HOMO-LUMO GAP               0.132358880823 eV   |
           -------------------------------------------------

------------------------------------------------------------------------
 * finished run on 2025/05/15 at 16:04:50.131     
------------------------------------------------------------------------
 total:
 * wall-time:     0 d,  0 h,  0 min,  0.130 sec
 *  cpu-time:     0 d,  0 h,  0 min,  0.094 sec
 * ratio c/w:     0.725 speedup
 SCF:
 * wall-time:     0 d,  0 h,  0 min,  0.117 sec
 *  cpu-time:     0 d,  0 h,  0 min,  0.083 sec
 * ratio c/w:     0.705 speedup


