48
 energy: -69.043920091415 gnorm: 0.000368518290 xtb: 6.7.1 (edcfbbe)
O            0.11441540700822       -1.42043307630587        2.85940023291428
C           -0.13608426522868       -0.85974532972210        1.59078108199926
C            1.05070876622591       -1.17828799926088        0.65452179207694
N            2.30630168387668       -0.81618899148682        1.31727705521303
C            3.39581851172522       -1.51543192099615        0.64850225946870
C            3.34702223363678       -1.26084964125417       -0.87268634039156
C            2.54688228061490        0.61635609981092        1.24404160219113
C            2.82876554147467        1.07080017890468       -0.21363873221071
C            2.19387170312268        2.40127225398475       -0.48490927546128
C            1.41934062786329        2.73596476892445       -1.50073436112666
C            2.38954081695196       -0.08795616802494       -1.11910025101029
C            0.96960011941289       -0.51849428202146       -0.73088567517417
C           -1.39615517344377       -1.45734278283477        1.01475584263076
C           -1.61882227406976       -2.80251266769086        1.19314335577690
C           -2.74548365721501       -3.40330899212535        0.61832429578563
N           -3.61419547805058       -2.75742699172756       -0.10869589117585
C           -3.43800939587580       -1.43691343430040       -0.29083817661169
C           -2.34242415188556       -0.71256406808899        0.26287847349253
C           -2.27120353079493        0.67877200096314        0.03550077994148
C           -3.21793997466353        1.31966923305299       -0.72497776036757
O           -3.22905180012735        2.65155967593866       -1.00252789446058
C           -2.21170275938767        3.46109135277374       -0.46548845978914
C           -4.28798417606572        0.58761405298303       -1.28984725750655
C           -4.39572811089185       -0.75014205816127       -1.07124940023084
H            1.06770949804471       -1.34152010876500        3.01063460102339
H           -0.24413727852823        0.22890406257178        1.70008053103206
H            1.06734713702163       -2.26938086010979        0.54923231015475
H            4.33316590191165       -1.15699833740118        1.07929401869423
H            3.30926135176310       -2.58110889121383        0.87415255422935
H            4.34024566376767       -1.02570173747944       -1.25743568090089
H            2.98240057898626       -2.14230562753153       -1.40245435231932
H            1.67245037797153        1.13520852791846        1.64027268917352
H            3.39262779554660        0.84816814622444        1.89692611060315
H            3.91105526439310        1.20765514584296       -0.33791825464813
H            2.43988340612999        3.14986426651989        0.26032560157541
H            1.14301355246379        2.04800436566279       -2.28137690495114
H            1.03880650516048        3.73908836640243       -1.60319227841681
H            2.42884309091467        0.20861097169815       -2.16942808254762
H            0.31727236312937        0.35364603948487       -0.70674663007685
H            0.56347368586217       -1.21768024703487       -1.46295667641681
H           -0.93000339615123       -3.38674547303163        1.78231148028379
H           -2.93076754226389       -4.46180052406611        0.75065629555780
H           -1.46948217898770        1.24325652154265        0.48255520163307
H           -1.22074453069081        3.13922753933430       -0.80193516279712
H           -2.23910574546004        3.46613695250741        0.62911215672219
H           -2.40935746119400        4.46610348996012       -0.83431456203993
H           -5.00953799189058        1.12871176263462       -1.88143793574492
H           -5.21160299210800       -1.32484556500805       -1.47990432579907
