----- Optimization -----
      -----------------------------------------------------------      
     |                   =====================                   |     
     |                           x T B                           |     
     |                   =====================                   |     
     |                         S. Grimme                         |     
     |          Mulliken Center for Theoretical Chemistry        |     
     |                    University of Bonn                     |     
      -----------------------------------------------------------      

   * xtb version 6.7.1 (edcfbbe) compiled by 'conda@3ef47c1a292c' on 2024-11-25

   xtb is free software: you can redistribute it and/or modify it under
   the terms of the GNU Lesser General Public License as published by
   the Free Software Foundation, either version 3 of the License, or
   (at your option) any later version.
   
   xtb is distributed in the hope that it will be useful,
   but WITHOUT ANY WARRANTY; without even the implied warranty of
   MERCHANTABILITY or FITNESS FOR A PARTICULAR PURPOSE.  See the
   GNU Lesser General Public License for more details.
   
   Cite this work as:
   * C. Bannwarth, E. Caldeweyher, S. Ehlert, A. Hansen, P. Pracht,
     J. Seibert, S. Spicher, S. Grimme, WIREs Comput. Mol. Sci., 2020, 11,
     e01493. DOI: 10.1002/wcms.1493
   
   for GFN2-xTB:
   * C. Bannwarth, S. Ehlert and S. Grimme., J. Chem. Theory Comput., 2019,
     15, 1652-1671. DOI: 10.1021/acs.jctc.8b01176
   for GFN1-xTB:
   * S. Grimme, C. Bannwarth, P. Shushkov, J. Chem. Theory Comput., 2017,
     13, 1989-2009. DOI: 10.1021/acs.jctc.7b00118
   for GFN0-xTB:
   * P. Pracht, E. Caldeweyher, S. Ehlert, S. Grimme, ChemRxiv, 2019, preprint.
     DOI: 10.26434/chemrxiv.8326202.v1
   for GFN-FF:
   * S. Spicher and S. Grimme, Angew. Chem. Int. Ed., 2020, 59, 15665-15673.
     DOI: 10.1002/anie.202004239
   
   for ALPB and GBSA implicit solvation:
   * S. Ehlert, M. Stahn, S. Spicher, S. Grimme, J. Chem. Theory Comput.,
     2021, 17, 4250-4261. DOI: 10.1021/acs.jctc.1c00471
   
   for ddCOSMO and CPCM-X implicit solvation:
   * M. Stahn, S. Ehlert, S. Grimme, J. Phys. Chem. A,
     2023, XX, XXXX-XXXX. DOI: 10.1021/acs.jpca.3c04382
   
   for DFT-D4:
   * E. Caldeweyher, C. Bannwarth and S. Grimme, J. Chem. Phys., 2017,
     147, 034112. DOI: 10.1063/1.4993215
   * E. Caldeweyher, S. Ehlert, A. Hansen, H. Neugebauer, S. Spicher,
     C. Bannwarth and S. Grimme, J. Chem. Phys., 2019, 150, 154122.
     DOI: 10.1063/1.5090222
   * E. Caldeweyher, J.-M. Mewes, S. Ehlert and S. Grimme, Phys. Chem. Chem. Phys.
     2020, 22, 8499-8512. DOI: 10.1039/D0CP00502A
   
   for sTDA-xTB:
   * S. Grimme and C. Bannwarth, J. Chem. Phys., 2016, 145, 054103.
     DOI: 10.1063/1.4959605
   
   in the mass-spec context:
   * V. Asgeirsson, C. Bauer and S. Grimme, Chem. Sci., 2017, 8, 4879.
     DOI: 10.1039/c7sc00601b
   * J. Koopman and S. Grimme, ACS Omega 2019, 4, 12, 15120-15133.
     DOI: 10.1021/acsomega.9b02011
   
   for metadynamics refer to:
   * S. Grimme, J. Chem. Theory Comput., 2019, 155, 2847-2862
     DOI: 10.1021/acs.jctc.9b00143
   
   for SPH calculations refer to:
   * S. Spicher and S. Grimme, J. Chem. Theory Comput., 2021, 17, 1701-1714
     DOI: 10.1021/acs.jctc.0c01306
   
   for ONIOM refer to:
   * C. Plett, A. Katbashev, S. Ehlert, S. Grimme, M. Bursch,
     Phys. Chem. Chem. Phys., 2023, 25, 17860-17868. DOI: 10.1039/D3CP02178E
   
   for DIPRO refer to:
   * J. Kohn, N. Gildemeister, S. Grimme, D. Fazzi, A. Hansen,
     J. Chem. Phys., 2023, just accepted.
   
   for PTB refer to:
   * S. Grimme, M. Mueller, A. Hansen, J. Chem. Phys., 2023, 158, 124111.
     DOI: 10.1063/5.0137838
   
   with help from (in alphabetical order)
   P. Atkinson, C. Bannwarth, F. Bohle, G. Brandenburg, E. Caldeweyher
   M. Checinski, S. Dohm, S. Ehlert, S. Ehrlich, I. Gerasimov, C. Hölzer
   A. Katbashev, J. Kohn, J. Koopman, C. Lavigne, S. Lehtola, F. März, M. Müller,
   F. Musil, H. Neugebauer, J. Pisarek, C. Plett, P. Pracht, F. Pultar,
   J. Seibert, P. Shushkov, S. Spicher, M. Stahn, M. Steiner, T. Strunk,
   J. Stückrath, T. Rose, and J. Unsleber
   
 * started run on 2025/05/15 at 16:36:28.926     
   ID    Z sym.   atoms
    1    8 O      1, 21
    2    6 C      2, 3, 5-15, 17-20, 22-24
    3    7 N      4, 16
    4    1 H      25-48

           -------------------------------------------------
          |                Calculation Setup                |
           -------------------------------------------------

          program call               : xtb /rds/general/user/hgt20/home/callum/QDESCP/Quinine_rdkit_conf_3/Quinine_rdkit_conf_3.xyz --opt normal --acc 1 --gfn 2 --chrg 0 --uhf 0 -P 1
          hostname                   : login-c
          coordinate file            : /rds/general/user/hgt20/home/callum/QDESCP/Quinine_rdkit_conf_3/Quinine_rdkit_conf_3.xyz
          omp threads                :                     1


           -------------------------------------------------
          |                 G F N 2 - x T B                 |
           -------------------------------------------------

        Reference                      10.1021/acs.jctc.8b01176
      * Hamiltonian:
        H0-scaling (s, p, d)           1.850000    2.230000    2.230000
        zeta-weighting                 0.500000
      * Dispersion:
        s8                             2.700000
        a1                             0.520000
        a2                             5.000000
        s9                             5.000000
      * Repulsion:
        kExp                           1.500000    1.000000
        rExp                           1.000000
      * Coulomb:
        alpha                          2.000000
        third order                    shell-resolved
        anisotropic                    true
        a3                             3.000000
        a5                             4.000000
        cn-shift                       1.200000
        cn-exp                         4.000000
        max-rad                        5.000000


          ...................................................
          :                      SETUP                      :
          :.................................................:
          :  # basis functions                 120          :
          :  # atomic orbitals                 120          :
          :  # shells                           72          :
          :  # electrons                       126          :
          :  max. iterations                   250          :
          :  Hamiltonian                  GFN2-xTB          :
          :  restarted?                      false          :
          :  GBSA solvation                  false          :
          :  PC potential                    false          :
          :  electronic temp.          300.0000000     K    :
          :  accuracy                    1.0000000          :
          :  -> integral cutoff          0.2500000E+02      :
          :  -> integral neglect         0.1000000E-07      :
          :  -> SCF convergence          0.1000000E-05 Eh   :
          :  -> wf. convergence          0.1000000E-03 e    :
          :  Broyden damping             0.4000000          :
          :  net charge                          0          :
          :  unpaired electrons                  0          :
          ...................................................

 iter      E             dE          RMSdq      gap      omega  full diag
   1    -69.8890301 -0.698890E+02  0.373E+00    2.52       0.0  T
   2    -69.9554451 -0.664150E-01  0.221E+00    2.48       1.0  T
   3    -69.9453105  0.101346E-01  0.874E-01    2.34       1.0  T
   4    -69.9574447 -0.121342E-01  0.392E-01    2.28       1.0  T
   5    -69.9625499 -0.510517E-02  0.107E-01    2.24       1.0  T
   6    -69.9628722 -0.322297E-03  0.523E-02    2.26       1.0  T
   7    -69.9629129 -0.407697E-04  0.254E-02    2.25       1.0  T
   8    -69.9629241 -0.111549E-04  0.939E-03    2.26       1.5  T
   9    -69.9629254 -0.128665E-05  0.277E-03    2.26       5.2  T
  10    -69.9629254 -0.687819E-07  0.128E-03    2.26      11.3  T
  11    -69.9629255 -0.323764E-07  0.617E-04    2.26      23.4  T
  12    -69.9629255 -0.418162E-08  0.237E-04    2.26      61.0  T

   *** convergence criteria satisfied after 12 iterations ***

         #    Occupation            Energy/Eh            Energy/eV
      -------------------------------------------------------------
         1        2.0000           -0.7186653             -19.5559
       ...           ...                  ...                  ...
        57        2.0000           -0.4236611             -11.5284
        58        2.0000           -0.4110628             -11.1856
        59        2.0000           -0.4045121             -11.0073
        60        2.0000           -0.3966618             -10.7937
        61        2.0000           -0.3777508             -10.2791
        62        2.0000           -0.3717245             -10.1151
        63        2.0000           -0.3601739              -9.8008 (HOMO)
        64                         -0.2772129              -7.5433 (LUMO)
        65                         -0.2274284              -6.1886
        66                         -0.2191870              -5.9644
        67                         -0.2014950              -5.4830
        68                         -0.1526991              -4.1552
       ...                                ...                  ...
       120                          0.6731990              18.3187
      -------------------------------------------------------------
                  HL-Gap            0.0829610 Eh            2.2575 eV
             Fermi-level           -0.3186934 Eh           -8.6721 eV

 SCC (total)                   0 d,  0 h,  0 min,  0.108 sec
 SCC setup                      ...        0 min,  0.000 sec (  0.399%)
 Dispersion                     ...        0 min,  0.001 sec (  0.582%)
 classical contributions        ...        0 min,  0.000 sec (  0.171%)
 integral evaluation            ...        0 min,  0.047 sec ( 43.961%)
 iterations                     ...        0 min,  0.030 sec ( 27.722%)
 molecular gradient             ...        0 min,  0.029 sec ( 26.986%)
 printout                       ...        0 min,  0.000 sec (  0.173%)

         :::::::::::::::::::::::::::::::::::::::::::::::::::::
         ::                     SUMMARY                     ::
         :::::::::::::::::::::::::::::::::::::::::::::::::::::
         :: total energy             -69.029720806841 Eh    ::
         :: gradient norm              0.105798343733 Eh/a0 ::
         :: HOMO-LUMO gap              2.257483898224 eV    ::
         ::.................................................::
         :: SCC energy               -69.961631157585 Eh    ::
         :: -> isotropic ES            0.056747734548 Eh    ::
         :: -> anisotropic ES          0.008520921162 Eh    ::
         :: -> anisotropic XC          0.037742601031 Eh    ::
         :: -> dispersion             -0.054371460852 Eh    ::
         :: repulsion energy           0.931910350744 Eh    ::
         :: add. restraining           0.000000000000 Eh    ::
         :: total charge              -0.000000000000 e     ::
         :::::::::::::::::::::::::::::::::::::::::::::::::::::

      ----------------------------------------------------------- 
     |                   =====================                   |
     |                        A N C O P T                        |
     |                   =====================                   |
     |               Approximate Normal Coordinate               |
     |                Rational Function Optimizer                |
      ----------------------------------------------------------- 
      ----------------------------------------------------------- 
     |                   =====================                   |
     |                        A N C O P T                        |
     |                   =====================                   |
     |               Approximate Normal Coordinate               |
     |                Rational Function Optimizer                |
      ----------------------------------------------------------- 

          ...................................................
          :                      SETUP                      :
          :.................................................:
          :   optimization level            normal          :
          :   max. optcycles                   200          :
          :   ANC micro-cycles                  20          :
          :   degrees of freedom               138          :
          :.................................................:
          :   RF solver                   davidson          :
          :   write xtbopt.log                true          :
          :   linear?                        false          :
          :   energy convergence         0.5000000E-05 Eh   :
          :   grad. convergence          0.1000000E-02 Eh/α :
          :   maxmium RF displ.          1.0000000          :
          :   Hlow (freq-cutoff)         0.1000000E-01      :
          :   Hmax (freq-cutoff)         5.0000000          :
          :   S6 in model hess.         20.0000000          :
          ...................................................

generating ANC from exact Hessian ...
Using Lindh-Hessian (1995)
 Shifting diagonal of input Hessian by    9.7808540918512109E-003
 Lowest  eigenvalues of input Hessian
    0.000000    0.000000    0.000000    0.000000    0.000000    0.000000
    0.010000    0.010261    0.010433    0.010961    0.011492    0.012909
    0.013592    0.013954    0.014237    0.014607    0.015873    0.016580
 Highest eigenvalues
    1.857297    1.859141    1.921582    2.000708    2.052775    2.167982


........................................................................
.............................. CYCLE    1 ..............................
........................................................................

 iter      E             dE          RMSdq      gap      omega  full diag
   1    -69.9629255 -0.699629E+02  0.931E-05    2.26       0.0  T
   2    -69.9629255 -0.605951E-10  0.650E-05    2.26     222.2  T
   3    -69.9629255 -0.726885E-10  0.435E-05    2.26     331.7  T
     SCC iter.                  ...        0 min,  0.008 sec
     gradient                   ...        0 min,  0.074 sec
 * total energy  :   -69.0297208 Eh     change       -0.1086505E-08 Eh
   gradient norm :     0.1057999 Eh/α   predicted     0.0000000E+00 (-100.00%)
   displ. norm   :     0.3324269 α      lambda       -0.1594604E-01
   maximum displ.:     0.1152492 α      in ANC's #44, #12, #31, ...

........................................................................
.............................. CYCLE    2 ..............................
........................................................................

 iter      E             dE          RMSdq      gap      omega  full diag
   1    -70.0046094 -0.700046E+02  0.186E-01    2.37       0.0  T
   2    -70.0046906 -0.811646E-04  0.114E-01    2.39       1.0  T
   3    -70.0046386  0.519290E-04  0.445E-02    2.39       1.0  T
   4    -70.0047065 -0.679049E-04  0.118E-02    2.39       1.2  T
   5    -70.0047126 -0.602191E-05  0.396E-03    2.39       3.6  T
   6    -70.0047128 -0.245349E-06  0.172E-03    2.39       8.4  T
   7    -70.0047128 -0.170473E-07  0.790E-04    2.39      18.3  T
   8    -70.0047128 -0.135246E-07  0.267E-04    2.39      54.0  T
     SCC iter.                  ...        0 min,  0.019 sec
     gradient                   ...        0 min,  0.071 sec
 * total energy  :   -69.0405793 Eh     change       -0.1085852E-01 Eh
   gradient norm :     0.0427620 Eh/α   predicted    -0.8862915E-02 ( -18.38%)
   displ. norm   :     0.2758656 α      lambda       -0.4316007E-02
   maximum displ.:     0.1266323 α      in ANC's #12, #7, #44, ...

........................................................................
.............................. CYCLE    3 ..............................
........................................................................

 iter      E             dE          RMSdq      gap      omega  full diag
   1    -70.0272763 -0.700273E+02  0.113E-01    2.47       0.0  T
   2    -70.0273222 -0.458502E-04  0.707E-02    2.47       1.0  T
   3    -70.0273078  0.144310E-04  0.289E-02    2.48       1.0  T
   4    -70.0273284 -0.206547E-04  0.819E-03    2.47       1.8  T
   5    -70.0273311 -0.269570E-05  0.264E-03    2.48       5.5  T
   6    -70.0273313 -0.160829E-06  0.108E-03    2.48      13.4  T
   7    -70.0273313 -0.687913E-08  0.499E-04    2.48      28.9  T
   8    -70.0273313 -0.513249E-08  0.174E-04    2.48      83.0  T
     SCC iter.                  ...        0 min,  0.019 sec
     gradient                   ...        0 min,  0.065 sec
 * total energy  :   -69.0429909 Eh     change       -0.2411620E-02 Eh
   gradient norm :     0.0089974 Eh/α   predicted    -0.2323373E-02 (  -3.66%)
   displ. norm   :     0.1573892 α      lambda       -0.4802107E-03
   maximum displ.:     0.0853762 α      in ANC's #12, #7, #2, ...

........................................................................
.............................. CYCLE    4 ..............................
........................................................................

 iter      E             dE          RMSdq      gap      omega  full diag
   1    -70.0281075 -0.700281E+02  0.447E-02    2.48       0.0  T
   2    -70.0281099 -0.233405E-05  0.271E-02    2.48       1.0  T
   3    -70.0281069  0.295902E-05  0.818E-03    2.48       1.8  T
   4    -70.0281103 -0.338109E-05  0.218E-03    2.48       6.6  T
   5    -70.0281105 -0.187549E-06  0.699E-04    2.48      20.6  T
   6    -70.0281105 -0.541755E-08  0.350E-04    2.48      41.2  T
     SCC iter.                  ...        0 min,  0.015 sec
     gradient                   ...        0 min,  0.079 sec
 * total energy  :   -69.0433290 Eh     change       -0.3380750E-03 Eh
   gradient norm :     0.0047943 Eh/α   predicted    -0.2460650E-03 ( -27.22%)
   displ. norm   :     0.1970253 α      lambda       -0.3088558E-03
   maximum displ.:     0.0909760 α      in ANC's #7, #12, #2, ...

........................................................................
.............................. CYCLE    5 ..............................
........................................................................

 iter      E             dE          RMSdq      gap      omega  full diag
   1    -70.0276799 -0.700277E+02  0.528E-02    2.48       0.0  T
   2    -70.0276818 -0.194936E-05  0.318E-02    2.48       1.0  T
   3    -70.0276778  0.399363E-05  0.920E-03    2.48       1.6  T
   4    -70.0276824 -0.455889E-05  0.206E-03    2.48       7.0  T
   5    -70.0276826 -0.144963E-06  0.815E-04    2.48      17.7  T
   6    -70.0276826 -0.482410E-08  0.388E-04    2.48      37.2  T
     SCC iter.                  ...        0 min,  0.015 sec
     gradient                   ...        0 min,  0.062 sec
 * total energy  :   -69.0435022 Eh     change       -0.1732022E-03 Eh
   gradient norm :     0.0033399 Eh/α   predicted    -0.1604231E-03 (  -7.38%)
   displ. norm   :     0.1132745 α      lambda       -0.9994466E-04
   maximum displ.:     0.0578011 α      in ANC's #2, #5, #7, ...

........................................................................
.............................. CYCLE    6 ..............................
........................................................................

 iter      E             dE          RMSdq      gap      omega  full diag
   1    -70.0277468 -0.700277E+02  0.294E-02    2.48       0.0  T
   2    -70.0277470 -0.282380E-06  0.174E-02    2.47       1.0  T
   3    -70.0277466  0.444198E-06  0.336E-03    2.48       4.3  T
   4    -70.0277472 -0.554657E-06  0.827E-04    2.47      17.4  T
   5    -70.0277472 -0.992362E-08  0.406E-04    2.47      35.5  T
     SCC iter.                  ...        0 min,  0.012 sec
     gradient                   ...        0 min,  0.075 sec
 * total energy  :   -69.0435597 Eh     change       -0.5748157E-04 Eh
   gradient norm :     0.0030111 Eh/α   predicted    -0.5061574E-04 ( -11.94%)
   displ. norm   :     0.1055636 α      lambda       -0.6790386E-04
   maximum displ.:     0.0596650 α      in ANC's #2, #5, #3, ...

........................................................................
.............................. CYCLE    7 ..............................
........................................................................

 iter      E             dE          RMSdq      gap      omega  full diag
   1    -70.0279843 -0.700280E+02  0.258E-02    2.47       0.0  T
   2    -70.0279846 -0.306979E-06  0.152E-02    2.47       1.0  T
   3    -70.0279845  0.885387E-07  0.205E-03    2.47       7.0  T
   4    -70.0279846 -0.159784E-06  0.878E-04    2.47      16.4  T
   5    -70.0279847 -0.128729E-07  0.396E-04    2.47      36.4  T
     SCC iter.                  ...        0 min,  0.012 sec
     gradient                   ...        0 min,  0.029 sec
 * total energy  :   -69.0436143 Eh     change       -0.5454980E-04 Eh
   gradient norm :     0.0020397 Eh/α   predicted    -0.3434008E-04 ( -37.05%)
   displ. norm   :     0.1617421 α      lambda       -0.8431396E-04
   maximum displ.:     0.0939064 α      in ANC's #2, #3, #5, ...

........................................................................
.............................. CYCLE    8 ..............................
........................................................................

 iter      E             dE          RMSdq      gap      omega  full diag
   1    -70.0283265 -0.700283E+02  0.382E-02    2.47       0.0  T
   2    -70.0283271 -0.640372E-06  0.224E-02    2.48       1.0  T
   3    -70.0283271  0.533467E-07  0.247E-03    2.47       5.8  T
   4    -70.0283273 -0.202568E-06  0.112E-03    2.48      12.9  T
   5    -70.0283273 -0.189616E-07  0.542E-04    2.48      26.6  T
   6    -70.0283273 -0.725446E-08  0.154E-04    2.48      93.5  T
     SCC iter.                  ...        0 min,  0.015 sec
     gradient                   ...        0 min,  0.029 sec
 * total energy  :   -69.0436761 Eh     change       -0.6187938E-04 Eh
   gradient norm :     0.0017841 Eh/α   predicted    -0.4326019E-04 ( -30.09%)
   displ. norm   :     0.2390515 α      lambda       -0.5323694E-04
   maximum displ.:     0.1437410 α      in ANC's #2, #3, #5, ...

........................................................................
.............................. CYCLE    9 ..............................
........................................................................

 iter      E             dE          RMSdq      gap      omega  full diag
   1    -70.0283149 -0.700283E+02  0.514E-02    2.48       0.0  T
   2    -70.0283157 -0.817748E-06  0.300E-02    2.48       1.0  T
   3    -70.0283156  0.693717E-07  0.326E-03    2.48       4.4  T
   4    -70.0283159 -0.304106E-06  0.158E-03    2.48       9.1  T
   5    -70.0283160 -0.369875E-07  0.587E-04    2.48      24.6  T
   6    -70.0283160 -0.834996E-08  0.161E-04    2.48      89.7  T
     SCC iter.                  ...        0 min,  0.055 sec
     gradient                   ...        0 min,  0.029 sec
 * total energy  :   -69.0437301 Eh     change       -0.5399142E-04 Eh
   gradient norm :     0.0024672 Eh/α   predicted    -0.2729824E-04 ( -49.44%)
   displ. norm   :     0.0980463 α      lambda       -0.3332050E-04
   maximum displ.:     0.0624514 α      in ANC's #2, #3, #4, ...

........................................................................
.............................. CYCLE   10 ..............................
........................................................................

 iter      E             dE          RMSdq      gap      omega  full diag
   1    -70.0285070 -0.700285E+02  0.186E-02    2.48       0.0  T
   2    -70.0285071 -0.112146E-06  0.109E-02    2.48       1.3  T
   3    -70.0285070  0.121441E-06  0.175E-03    2.48       8.3  T
   4    -70.0285072 -0.156063E-06  0.589E-04    2.48      24.5  T
   5    -70.0285072 -0.632828E-08  0.252E-04    2.48      57.4  T
     SCC iter.                  ...        0 min,  0.012 sec
     gradient                   ...        0 min,  0.029 sec
 * total energy  :   -69.0437593 Eh     change       -0.2912930E-04 Eh
   gradient norm :     0.0017497 Eh/α   predicted    -0.1682465E-04 ( -42.24%)
   displ. norm   :     0.2406608 α      lambda       -0.5409204E-04
   maximum displ.:     0.1533143 α      in ANC's #2, #3, #4, ...

........................................................................
.............................. CYCLE   11 ..............................
........................................................................

 iter      E             dE          RMSdq      gap      omega  full diag
   1    -70.0286126 -0.700286E+02  0.440E-02    2.48       0.0  T
   2    -70.0286133 -0.695307E-06  0.259E-02    2.47       1.0  T
   3    -70.0286126  0.694342E-06  0.404E-03    2.48       3.6  T
   4    -70.0286134 -0.879722E-06  0.141E-03    2.48      10.3  T
   5    -70.0286135 -0.459487E-07  0.635E-04    2.48      22.7  T
   6    -70.0286135 -0.486982E-08  0.216E-04    2.48      66.7  T
     SCC iter.                  ...        0 min,  0.054 sec
     gradient                   ...        0 min,  0.029 sec
 * total energy  :   -69.0438113 Eh     change       -0.5204668E-04 Eh
   gradient norm :     0.0013910 Eh/α   predicted    -0.2774487E-04 ( -46.69%)
   displ. norm   :     0.1340057 α      lambda       -0.1884881E-04
   maximum displ.:     0.0908949 α      in ANC's #2, #3, #4, ...

........................................................................
.............................. CYCLE   12 ..............................
........................................................................

 iter      E             dE          RMSdq      gap      omega  full diag
   1    -70.0284363 -0.700284E+02  0.244E-02    2.48       0.0  T
   2    -70.0284364 -0.139493E-06  0.143E-02    2.48       1.0  T
   3    -70.0284364  0.462826E-07  0.150E-03    2.48       9.6  T
   4    -70.0284365 -0.858620E-07  0.654E-04    2.48      22.1  T
   5    -70.0284365 -0.711279E-08  0.269E-04    2.48      53.7  T
     SCC iter.                  ...        0 min,  0.051 sec
     gradient                   ...        0 min,  0.029 sec
 * total energy  :   -69.0438344 Eh     change       -0.2310428E-04 Eh
   gradient norm :     0.0013419 Eh/α   predicted    -0.9502248E-05 ( -58.87%)
   displ. norm   :     0.1494715 α      lambda       -0.2371353E-04
   maximum displ.:     0.0988320 α      in ANC's #2, #3, #4, ...

........................................................................
.............................. CYCLE   13 ..............................
........................................................................

 iter      E             dE          RMSdq      gap      omega  full diag
   1    -70.0285708 -0.700286E+02  0.289E-02    2.48       0.0  T
   2    -70.0285710 -0.171754E-06  0.170E-02    2.48       1.0  T
   3    -70.0285709  0.871018E-07  0.184E-03    2.48       7.9  T
   4    -70.0285711 -0.152548E-06  0.653E-04    2.48      22.1  T
   5    -70.0285711 -0.234827E-08  0.283E-04    2.48      50.9  T
     SCC iter.                  ...        0 min,  0.064 sec
     gradient                   ...        0 min,  0.029 sec
 * total energy  :   -69.0438621 Eh     change       -0.2771219E-04 Eh
   gradient norm :     0.0009759 Eh/α   predicted    -0.1197847E-04 ( -56.78%)
   displ. norm   :     0.1672533 α      lambda       -0.2104984E-04
   maximum displ.:     0.1099094 α      in ANC's #2, #3, #4, ...

........................................................................
.............................. CYCLE   14 ..............................
........................................................................

 iter      E             dE          RMSdq      gap      omega  full diag
   1    -70.0284638 -0.700285E+02  0.346E-02    2.48       0.0  T
   2    -70.0284641 -0.271722E-06  0.204E-02    2.48       1.0  T
   3    -70.0284640  0.917309E-07  0.209E-03    2.48       6.9  T
   4    -70.0284642 -0.179258E-06  0.838E-04    2.48      17.2  T
   5    -70.0284642 -0.819418E-08  0.370E-04    2.48      39.0  T
     SCC iter.                  ...        0 min,  0.013 sec
     gradient                   ...        0 min,  0.056 sec
 * total energy  :   -69.0438844 Eh     change       -0.2227865E-04 Eh
   gradient norm :     0.0009360 Eh/α   predicted    -0.1066026E-04 ( -52.15%)
   displ. norm   :     0.1283142 α      lambda       -0.1189888E-04
   maximum displ.:     0.0845745 α      in ANC's #2, #3, #5, ...

........................................................................
.............................. CYCLE   15 ..............................
........................................................................

 iter      E             dE          RMSdq      gap      omega  full diag
   1    -70.0285562 -0.700286E+02  0.281E-02    2.48       0.0  T
   2    -70.0285563 -0.129515E-06  0.165E-02    2.48       1.0  T
   3    -70.0285563  0.345244E-07  0.150E-03    2.48       9.6  T
   4    -70.0285564 -0.829433E-07  0.673E-04    2.48      21.5  T
   5    -70.0285564 -0.443713E-08  0.298E-04    2.48      48.4  T
     SCC iter.                  ...        0 min,  0.013 sec
     gradient                   ...        0 min,  0.080 sec
 * total energy  :   -69.0438980 Eh     change       -0.1362666E-04 Eh
   gradient norm :     0.0007249 Eh/α   predicted    -0.5994121E-05 ( -56.01%)
   displ. norm   :     0.1239023 α      lambda       -0.1023368E-04
   maximum displ.:     0.0798947 α      in ANC's #2, #3, #5, ...

........................................................................
.............................. CYCLE   16 ..............................
........................................................................

 iter      E             dE          RMSdq      gap      omega  full diag
   1    -70.0288209 -0.700288E+02  0.283E-02    2.48       0.0  T
   2    -70.0288211 -0.138015E-06  0.167E-02    2.48       1.0  T
   3    -70.0288210  0.633022E-07  0.163E-03    2.48       8.8  T
   4    -70.0288211 -0.119221E-06  0.664E-04    2.48      21.7  T
   5    -70.0288211 -0.355260E-08  0.271E-04    2.48      53.2  T
     SCC iter.                  ...        0 min,  0.012 sec
     gradient                   ...        0 min,  0.062 sec
 * total energy  :   -69.0439095 Eh     change       -0.1149565E-04 Eh
   gradient norm :     0.0005888 Eh/α   predicted    -0.5152576E-05 ( -55.18%)
   displ. norm   :     0.1259780 α      lambda       -0.8206094E-05
   maximum displ.:     0.0781650 α      in ANC's #2, #3, #5, ...

........................................................................
.............................. CYCLE   17 ..............................
........................................................................

 iter      E             dE          RMSdq      gap      omega  full diag
   1    -70.0288360 -0.700288E+02  0.295E-02    2.48       0.0  T
   2    -70.0288361 -0.114719E-06  0.174E-02    2.48       1.0  T
   3    -70.0288361  0.341209E-07  0.144E-03    2.48      10.0  T
   4    -70.0288361 -0.798846E-07  0.632E-04    2.48      22.8  T
   5    -70.0288361 -0.331767E-08  0.275E-04    2.48      52.5  T
     SCC iter.                  ...        0 min,  0.013 sec
     gradient                   ...        0 min,  0.029 sec
 * total energy  :   -69.0439171 Eh     change       -0.7616891E-05 Eh
   gradient norm :     0.0005117 Eh/α   predicted    -0.4134199E-05 ( -45.72%)
   displ. norm   :     0.0587273 α      lambda       -0.3049391E-05
   maximum displ.:     0.0315259 α      in ANC's #2, #3, #5, ...

........................................................................
.............................. CYCLE   18 ..............................
........................................................................

 iter      E             dE          RMSdq      gap      omega  full diag
   1    -70.0288590 -0.700289E+02  0.134E-02    2.48       0.0  T
   2    -70.0288591 -0.357941E-07  0.788E-03    2.48       1.8  T
   3    -70.0288591  0.205264E-07  0.850E-04    2.48      17.0  T
   4    -70.0288591 -0.339381E-07  0.304E-04    2.48      47.5  T
     SCC iter.                  ...        0 min,  0.010 sec
     gradient                   ...        0 min,  0.029 sec
 * total energy  :   -69.0439201 Eh     change       -0.2956822E-05 Eh
   gradient norm :     0.0003687 Eh/α   predicted    -0.1528055E-05 ( -48.32%)
   displ. norm   :     0.0583214 α      lambda        0.7303113E-06
   maximum displ.:     0.0313215 α      in ANC's #2, #3, #5, ...

   *** GEOMETRY OPTIMIZATION CONVERGED AFTER 18 ITERATIONS ***

------------------------------------------------------------------------
 total energy gain   :        -0.0141993 Eh       -8.9102 kcal/mol
 total RMSD          :         0.2877215 a0        0.1523 Å
 total power (kW/mol):        -2.0711230 (step)  -22.1198 (real)
------------------------------------------------------------------------

 ANCopt (total)                0 d,  0 h,  0 min,  1.685 sec
 optimizer setup                ...        0 min,  0.000 sec (  0.005%)
 model hessian                  ...        0 min,  0.065 sec (  3.856%)
 ANC generation                 ...        0 min,  0.002 sec (  0.113%)
 coordinate transformation      ...        0 min,  0.000 sec (  0.010%)
 single point calculation       ...        0 min,  1.611 sec ( 95.561%)
 optimization log               ...        0 min,  0.004 sec (  0.215%)
 hessian update                 ...        0 min,  0.000 sec (  0.017%)
 rational function              ...        0 min,  0.003 sec (  0.176%)

================
 final structure:
================
48
 xtb: 6.7.1 (edcfbbe)
O            0.11441540700822       -1.42043307630587        2.85940023291428
C           -0.13608426522868       -0.85974532972210        1.59078108199926
C            1.05070876622591       -1.17828799926088        0.65452179207694
N            2.30630168387668       -0.81618899148682        1.31727705521303
C            3.39581851172522       -1.51543192099615        0.64850225946870
C            3.34702223363678       -1.26084964125417       -0.87268634039156
C            2.54688228061490        0.61635609981092        1.24404160219113
C            2.82876554147467        1.07080017890468       -0.21363873221071
C            2.19387170312268        2.40127225398475       -0.48490927546128
C            1.41934062786329        2.73596476892445       -1.50073436112666
C            2.38954081695196       -0.08795616802494       -1.11910025101029
C            0.96960011941289       -0.51849428202146       -0.73088567517417
C           -1.39615517344377       -1.45734278283477        1.01475584263076
C           -1.61882227406976       -2.80251266769086        1.19314335577690
C           -2.74548365721501       -3.40330899212535        0.61832429578563
N           -3.61419547805058       -2.75742699172756       -0.10869589117585
C           -3.43800939587580       -1.43691343430040       -0.29083817661169
C           -2.34242415188556       -0.71256406808899        0.26287847349253
C           -2.27120353079493        0.67877200096314        0.03550077994148
C           -3.21793997466353        1.31966923305299       -0.72497776036757
O           -3.22905180012735        2.65155967593866       -1.00252789446058
C           -2.21170275938767        3.46109135277374       -0.46548845978914
C           -4.28798417606572        0.58761405298303       -1.28984725750655
C           -4.39572811089185       -0.75014205816127       -1.07124940023084
H            1.06770949804471       -1.34152010876500        3.01063460102339
H           -0.24413727852823        0.22890406257178        1.70008053103206
H            1.06734713702163       -2.26938086010979        0.54923231015475
H            4.33316590191165       -1.15699833740118        1.07929401869423
H            3.30926135176310       -2.58110889121383        0.87415255422935
H            4.34024566376767       -1.02570173747944       -1.25743568090089
H            2.98240057898626       -2.14230562753153       -1.40245435231932
H            1.67245037797153        1.13520852791846        1.64027268917352
H            3.39262779554660        0.84816814622444        1.89692611060315
H            3.91105526439310        1.20765514584296       -0.33791825464813
H            2.43988340612999        3.14986426651989        0.26032560157541
H            1.14301355246379        2.04800436566279       -2.28137690495114
H            1.03880650516048        3.73908836640243       -1.60319227841681
H            2.42884309091467        0.20861097169815       -2.16942808254762
H            0.31727236312937        0.35364603948487       -0.70674663007685
H            0.56347368586217       -1.21768024703487       -1.46295667641681
H           -0.93000339615123       -3.38674547303163        1.78231148028379
H           -2.93076754226389       -4.46180052406611        0.75065629555780
H           -1.46948217898770        1.24325652154265        0.48255520163307
H           -1.22074453069081        3.13922753933430       -0.80193516279712
H           -2.23910574546004        3.46613695250741        0.62911215672219
H           -2.40935746119400        4.46610348996012       -0.83431456203993
H           -5.00953799189058        1.12871176263462       -1.88143793574492
H           -5.21160299210800       -1.32484556500805       -1.47990432579907

 Bond Distances (Angstroems)
 ---------------------------
O1-C2=1.4094         O1-H25=0.9684        C2-O1=1.4094         C2-C3=1.5448         C2-C13=1.5089        C2-H26=1.0994        
C3-C2=1.5448         C3-N4=1.4652         C3-C12=1.5366        C3-H27=1.0963        N4-C3=1.4652         N4-C5=1.4571         
N4-C7=1.4545         C5-N4=1.4571         C5-C6=1.5431         C5-H28=1.0921        C5-H29=1.0927        C6-C5=1.5431         
C6-C11=1.5340        C6-H30=1.0908        C6-H31=1.0911        C7-N4=1.4545         C7-C8=1.5527         C7-H32=1.0913        
C7-H33=1.0933        C8-C7=1.5527         C8-C9=1.4989         C8-C11=1.5348        C8-H34=1.0980        C9-C8=1.4989         
C9-C10=1.3205        C9-H35=1.0846        C10-C9=1.3205        C10-H36=1.0766       C10-H37=1.0778       C11-C6=1.5340        
C11-C8=1.5348        C11-C12=1.5337       C11-H38=1.0921       C12-C3=1.5366        C12-C11=1.5337       C12-H39=1.0894       
C12-H40=1.0907       C13-C2=1.5089        C13-C14=1.3751       C13-C18=1.4197       C14-C13=1.3751       C14-C15=1.4003       
C14-H41=1.0784       C15-C14=1.4003       C15-N16=1.3040       C15-H42=1.0827       N16-C15=1.3040       N16-C17=1.3446       
C17-N16=1.3446       C17-C18=1.4253       C17-C24=1.4135       C18-C13=1.4197       C18-C17=1.4253       C18-C19=1.4116       
C19-C18=1.4116       C19-C20=1.3731       C19-H43=1.0776       C20-C19=1.3731       C20-O21=1.3605       C20-C23=1.4142       
O21-C20=1.3605       O21-C22=1.4067       C22-O21=1.4067       C22-H44=1.0949       C22-H45=1.0950       C22-H46=1.0886       
C23-C20=1.4142       C23-C24=1.3598       C23-H47=1.0786       C24-C17=1.4135       C24-C23=1.3598       C24-H48=1.0784       
H25-O1=0.9684        H26-C2=1.0994        H27-C3=1.0963        H28-C5=1.0921        H29-C5=1.0927        H30-C6=1.0908        
H31-C6=1.0911        H32-C7=1.0913        H33-C7=1.0933        H34-C8=1.0980        H35-C9=1.0846        H36-C10=1.0766       
H37-C10=1.0778       H38-C11=1.0921       H39-C12=1.0894       H40-C12=1.0907       H41-C14=1.0784       H42-C15=1.0827       
H43-C19=1.0776       H44-C22=1.0949       H45-C22=1.0950       H46-C22=1.0886       H47-C23=1.0786       H48-C24=1.0784       
 C  H  Rav=1.0883 sigma=0.0071  Rmin=1.0766  Rmax=1.0994    23
 C  C  Rav=1.4579 sigma=0.0747  Rmin=1.3205  Rmax=1.5527    19
 N  C  Rav=1.4051 sigma=0.0673  Rmin=1.3040  Rmax=1.4652     5
 O  H  Rav=0.9684 sigma=0.0000  Rmin=0.9684  Rmax=0.9684     1
 O  C  Rav=1.3922 sigma=0.0224  Rmin=1.3605  Rmax=1.4094     3

 selected bond angles (degree)
 --------------------
H25-O1-C2=106.45               C3-C2-O1=109.08                C13-C2-O1=109.54               C13-C2-C3=109.18               
H26-C2-O1=108.78               H26-C2-C3=109.87               H26-C2-C13=110.37              N4-C3-C2=109.46                
C12-C3-C2=114.67               C12-C3-N4=110.30               H27-C3-C2=105.97               H27-C3-N4=106.05               
H27-C3-C12=109.97              C5-N4-C3=108.33                C7-N4-C3=111.25                C7-N4-C5=109.02                
C6-C5-N4=110.46                H28-C5-N4=107.65               H28-C5-C6=111.21               H29-C5-N4=108.30               
H29-C5-C6=111.22               H29-C5-H28=107.86              C11-C6-C5=107.71               H30-C6-C5=110.76               
H30-C6-C11=110.30              H31-C6-C5=110.85               H31-C6-C11=109.34              H31-C6-H30=107.89              
C8-C7-N4=111.44                H32-C7-N4=108.51               H32-C7-C8=110.32               H33-C7-N4=107.86               
H33-C7-C8=110.99               H33-C7-H32=107.59              C9-C8-C7=110.66                C11-C8-C7=106.32               
C11-C8-C9=116.24               H34-C8-C7=108.77               H34-C8-C9=106.64               H34-C8-C11=108.02              
C10-C9-C8=127.78               H35-C9-C8=113.09               H35-C9-C10=119.12              H36-C10-C9=123.12              
H37-C10-C9=121.07              H37-C10-H36=115.80             

 selected dihedral angles (degree)
 ---------------------------------
C3-C2-O1-H25= 35.56           C13-C2-O1-H25=155.01          H26-C2-O1-H25=275.73          N4-C3-C2-O1=309.78            
N4-C3-C2-C13=190.10           N4-C3-C2-H26= 68.93           C12-C3-C2-O1=185.22           C12-C3-C2-C13= 65.55          
C12-C3-C2-H26=304.38          H27-C3-C2-O1= 63.73           H27-C3-C2-C13=304.06          H27-C3-C2-H26=182.89          
C5-N4-C3-C2=161.09            C5-N4-C3-C12=288.16           C5-N4-C3-H27= 47.19           C7-N4-C3-C2=280.91            
C7-N4-C3-C12= 47.97           C7-N4-C3-H27=167.00           C6-C5-N4-C3= 52.43            C6-C5-N4-C7=291.24            
H28-C5-N4-C3=174.04           H28-C5-N4-C7= 52.84           H29-C5-N4-C3=290.41           H29-C5-N4-C7=169.21           
C11-C6-C5-N4= 13.92           C11-C6-C5-H28=254.45          C11-C6-C5-H29=134.22          H30-C6-C5-N4=134.62           
H30-C6-C5-H28= 15.15          H30-C6-C5-H29=254.91          H31-C6-C5-N4=254.35           H31-C6-C5-H28=134.88          
H31-C6-C5-H29= 14.64          C8-C7-N4-C3=292.30            C8-C7-N4-C5= 51.71            H32-C7-N4-C3= 53.96           
H32-C7-N4-C5=173.37           H33-C7-N4-C3=170.24           H33-C7-N4-C5=289.65           C9-C8-C7-N4=141.79            
C9-C8-C7-H32= 21.18           C9-C8-C7-H33=262.03           C11-C8-C7-N4= 14.72           C11-C8-C7-H32=254.12          
C11-C8-C7-H33=134.96          H34-C8-C7-N4=258.62           H34-C8-C7-H32=138.01          H34-C8-C7-H33= 18.86          
C10-C9-C8-C7=230.16           C10-C9-C8-C11=351.54          C10-C9-C8-H34=112.03          H35-C9-C8-C7= 51.12           
H35-C9-C8-C11=172.49          H35-C9-C8-H34=292.99          H36-C10-C9-C8=  0.36          H36-C10-C9-H35=179.36         
H37-C10-C9-C8=181.60          H37-C10-C9-H35=  0.59         
           -------------------------------------------------
          |                Final Singlepoint                |
           -------------------------------------------------

          ...................................................
          :                      SETUP                      :
          :.................................................:
          :  # basis functions                 120          :
          :  # atomic orbitals                 120          :
          :  # shells                           72          :
          :  # electrons                       126          :
          :  max. iterations                   250          :
          :  Hamiltonian                  GFN2-xTB          :
          :  restarted?                      false          :
          :  GBSA solvation                  false          :
          :  PC potential                    false          :
          :  electronic temp.          300.0000000     K    :
          :  accuracy                    1.0000000          :
          :  -> integral cutoff          0.2500000E+02      :
          :  -> integral neglect         0.1000000E-07      :
          :  -> SCF convergence          0.1000000E-05 Eh   :
          :  -> wf. convergence          0.1000000E-03 e    :
          :  Broyden damping             0.4000000          :
          :  net charge                          0          :
          :  unpaired electrons                  0          :
          ...................................................

 iter      E             dE          RMSdq      gap      omega  full diag
   1    -70.0288591 -0.700289E+02  0.145E-04    2.48       0.0  T
   2    -70.0288591 -0.164903E-09  0.912E-05    2.48     158.2  T
   3    -70.0288591 -0.904521E-10  0.565E-05    2.48     255.4  T

   *** convergence criteria satisfied after 3 iterations ***

         #    Occupation            Energy/Eh            Energy/eV
      -------------------------------------------------------------
         1        2.0000           -0.7206135             -19.6089
       ...           ...                  ...                  ...
        57        2.0000           -0.4223941             -11.4939
        58        2.0000           -0.4133098             -11.2467
        59        2.0000           -0.4063359             -11.0570
        60        2.0000           -0.3954647             -10.7611
        61        2.0000           -0.3778886             -10.2829
        62        2.0000           -0.3661865              -9.9644
        63        2.0000           -0.3585534              -9.7567 (HOMO)
        64                         -0.2674911              -7.2788 (LUMO)
        65                         -0.2291829              -6.2364
        66                         -0.2143760              -5.8335
        67                         -0.1974175              -5.3720
        68                         -0.1478037              -4.0219
       ...                                ...                  ...
       120                          0.7024298              19.1141
      -------------------------------------------------------------
                  HL-Gap            0.0910623 Eh            2.4779 eV
             Fermi-level           -0.3130223 Eh           -8.5178 eV

 SCC (total)                   0 d,  0 h,  0 min,  0.096 sec
 SCC setup                      ...        0 min,  0.000 sec (  0.366%)
 Dispersion                     ...        0 min,  0.000 sec (  0.397%)
 classical contributions        ...        0 min,  0.000 sec (  0.183%)
 integral evaluation            ...        0 min,  0.058 sec ( 60.399%)
 iterations                     ...        0 min,  0.008 sec (  7.998%)
 molecular gradient             ...        0 min,  0.029 sec ( 30.455%)
 printout                       ...        0 min,  0.000 sec (  0.195%)

         :::::::::::::::::::::::::::::::::::::::::::::::::::::
         ::                     SUMMARY                     ::
         :::::::::::::::::::::::::::::::::::::::::::::::::::::
         :: total energy             -69.043920091415 Eh    ::
         :: gradient norm              0.000368518290 Eh/a0 ::
         :: HOMO-LUMO gap              2.477931688056 eV    ::
         ::.................................................::
         :: SCC energy               -70.027429185488 Eh    ::
         :: -> isotropic ES            0.054933667381 Eh    ::
         :: -> anisotropic ES          0.007438972672 Eh    ::
         :: -> anisotropic XC          0.036087679561 Eh    ::
         :: -> dispersion             -0.056055588880 Eh    ::
         :: repulsion energy           0.983509094073 Eh    ::
         :: add. restraining           0.000000000000 Eh    ::
         :: total charge               0.000000000000 e     ::
         :::::::::::::::::::::::::::::::::::::::::::::::::::::

           -------------------------------------------------
          |                Property Printout                |
           -------------------------------------------------

    * Orbital Energies and Occupations

         #    Occupation            Energy/Eh            Energy/eV
      -------------------------------------------------------------
         1        2.0000           -0.7206135             -19.6089
       ...           ...                  ...                  ...
        51        2.0000           -0.4431362             -12.0584
        52        2.0000           -0.4409436             -11.9987
        53        2.0000           -0.4397721             -11.9668
        54        2.0000           -0.4374934             -11.9048
        55        2.0000           -0.4285023             -11.6601
        56        2.0000           -0.4238889             -11.5346
        57        2.0000           -0.4223941             -11.4939
        58        2.0000           -0.4133098             -11.2467
        59        2.0000           -0.4063359             -11.0570
        60        2.0000           -0.3954647             -10.7611
        61        2.0000           -0.3778886             -10.2829
        62        2.0000           -0.3661865              -9.9644
        63        2.0000           -0.3585534              -9.7567 (HOMO)
        64                         -0.2674911              -7.2788 (LUMO)
        65                         -0.2291829              -6.2364
        66                         -0.2143760              -5.8335
        67                         -0.1974175              -5.3720
        68                         -0.1478037              -4.0219
        69                         -0.0658100              -1.7908
        70                          0.0094330               0.2567
        71                          0.0224409               0.6106
        72                          0.0288411               0.7848
        73                          0.0344892               0.9385
        74                          0.0503952               1.3713
       ...                                ...                  ...
       120                          0.7024298              19.1141
      -------------------------------------------------------------
                  HL-Gap            0.0910623 Eh            2.4779 eV
             Fermi-level           -0.3130223 Eh           -8.5178 eV

     #   Z          covCN         q      C6AA      α(0)
     1   8 O        1.656    -0.448    21.795     6.302
     2   6 C        3.733     0.111    18.848     6.197
     3   6 C        3.828     0.034    19.987     6.361
     4   7 N        2.730    -0.198    25.294     7.470
     5   6 C        3.783     0.009    20.439     6.440
     6   6 C        3.808    -0.065    21.741     6.637
     7   6 C        3.776     0.011    20.424     6.439
     8   6 C        3.860    -0.027    21.012     6.519
     9   6 C        2.887    -0.032    28.798     8.798
    10   6 C        2.835    -0.096    30.416     9.038
    11   6 C        3.865    -0.009    20.688     6.468
    12   6 C        3.809    -0.065    21.737     6.637
    13   6 C        2.974     0.011    27.757     8.642
    14   6 C        2.917    -0.043    29.076     8.842
    15   6 C        2.904     0.059    26.666     8.467
    16   7 N        1.843    -0.232    26.936     7.692
    17   6 C        2.977     0.082    26.160     8.390
    18   6 C        2.981    -0.006    28.163     8.705
    19   6 C        2.914    -0.079    29.975     8.978
    20   6 C        2.862     0.143    24.874     8.175
    21   8 O        1.706    -0.265    18.399     5.791
    22   6 C        3.644     0.037    20.286     6.474
    23   6 C        2.916    -0.049    29.206     8.862
    24   6 C        2.921    -0.038    28.942     8.822
    25   1 H        0.805     0.303     0.712     1.325
    26   1 H        0.923     0.016     2.801     2.617
    27   1 H        0.924     0.037     2.487     2.466
    28   1 H        0.924     0.034     2.532     2.488
    29   1 H        0.924     0.033     2.548     2.496
    30   1 H        0.924     0.029     2.605     2.524
    31   1 H        0.924     0.031     2.573     2.508
    32   1 H        0.924     0.034     2.529     2.487
    33   1 H        0.924     0.031     2.571     2.507
    34   1 H        0.923     0.037     2.488     2.467
    35   1 H        0.925     0.029     2.597     2.520
    36   1 H        0.926     0.038     2.471     2.458
    37   1 H        0.926     0.033     2.545     2.495
    38   1 H        0.924     0.028     2.619     2.531
    39   1 H        0.925     0.036     2.508     2.476
    40   1 H        0.924     0.026     2.639     2.540
    41   1 H        0.926     0.050     2.321     2.383
    42   1 H        0.925     0.037     2.488     2.467
    43   1 H        0.926     0.031     2.578     2.511
    44   1 H        0.924     0.042     2.420     2.433
    45   1 H        0.924     0.040     2.453     2.449
    46   1 H        0.925     0.062     2.172     2.305
    47   1 H        0.926     0.055     2.255     2.348
    48   1 H        0.926     0.062     2.177     2.307

 Mol. C6AA /au·bohr⁶  :      24096.262689
 Mol. C8AA /au·bohr⁸  :     561737.897962
 Mol. α(0) /au        :        239.255117


Wiberg/Mayer (AO) data.
largest (>0.10) Wiberg bond orders for each atom

 ---------------------------------------------------------------------------
     #   Z sym  total        # sym  WBO       # sym  WBO       # sym  WBO
 ---------------------------------------------------------------------------
     1   8 O    1.954 --     2 C    0.994    25 H    0.877
     2   6 C    3.961 --     1 O    0.994    13 C    0.991     3 C    0.953
                            26 H    0.945
     3   6 C    3.982 --     4 N    0.986    12 C    0.985    27 H    0.964
                             2 C    0.953
     4   7 N    3.135 --     7 C    1.006     5 C    0.999     3 C    0.986
     5   6 C    3.985 --     4 N    0.999     6 C    0.990    28 H    0.976
                            29 H    0.975
     6   6 C    3.997 --    11 C    0.997     5 C    0.990    31 H    0.980
                            30 H    0.980
     7   6 C    3.986 --     4 N    1.006    33 H    0.975    32 H    0.970
                             8 C    0.961
     8   6 C    3.995 --     9 C    1.018    11 C    0.986     7 C    0.961
                            34 H    0.951
     9   6 C    3.991 --    10 C    1.970     8 C    1.018    35 H    0.965
    10   6 C    3.992 --     9 C    1.970    37 H    0.975    36 H    0.973
    11   6 C    3.996 --     6 C    0.997    12 C    0.996     8 C    0.986
                            38 H    0.966
    12   6 C    3.997 --    11 C    0.996     3 C    0.985    40 H    0.979
                            39 H    0.969
    13   6 C    3.986 --    14 C    1.513    18 C    1.263     2 C    0.991
                            16 N    0.102
    14   6 C    3.990 --    13 C    1.513    15 C    1.322    41 H    0.966
    15   6 C    3.973 --    16 N    1.535    14 C    1.322    42 H    0.963
    16   7 N    3.062 --    15 C    1.535    17 C    1.299    13 C    0.102
    17   6 C    3.983 --    16 N    1.299    24 C    1.250    18 C    1.236
    18   6 C    3.989 --    19 C    1.281    13 C    1.263    17 C    1.236
    19   6 C    3.984 --    20 C    1.473    18 C    1.281    43 H    0.954
                            24 C    0.104
    20   6 C    3.935 --    19 C    1.473    23 C    1.244    21 O    1.066
    21   8 O    2.231 --    20 C    1.066    22 C    0.985
    22   6 C    3.946 --    21 O    0.985    46 H    0.980    45 H    0.976
                            44 H    0.972
    23   6 C    3.988 --    24 C    1.592    20 C    1.244    47 H    0.967
    24   6 C    3.988 --    23 C    1.592    17 C    1.250    48 H    0.966
                            19 C    0.104
    25   1 H    0.908 --     1 O    0.877
    26   1 H    0.999 --     2 C    0.945
    27   1 H    0.998 --     3 C    0.964
    28   1 H    0.998 --     5 C    0.976
    29   1 H    0.999 --     5 C    0.975
    30   1 H    0.999 --     6 C    0.980
    31   1 H    0.999 --     6 C    0.980
    32   1 H    0.999 --     7 C    0.970
    33   1 H    0.999 --     7 C    0.975
    34   1 H    0.999 --     8 C    0.951
    35   1 H    0.999 --     9 C    0.965
    36   1 H    0.999 --    10 C    0.973
    37   1 H    0.999 --    10 C    0.975
    38   1 H    0.999 --    11 C    0.966
    39   1 H    0.999 --    12 C    0.969
    40   1 H    0.999 --    12 C    0.979
    41   1 H    0.997 --    14 C    0.966
    42   1 H    0.998 --    15 C    0.963
    43   1 H    0.999 --    19 C    0.954
    44   1 H    0.998 --    22 C    0.972
    45   1 H    0.998 --    22 C    0.976
    46   1 H    0.996 --    22 C    0.980
    47   1 H    0.996 --    23 C    0.967
    48   1 H    0.995 --    24 C    0.966
 ---------------------------------------------------------------------------

Topologies differ in total number of bonds
Writing topology from bond orders to xtbtopo.mol

molecular dipole:
                 x           y           z       tot (Debye)
 q only:        1.149       0.579      -0.256
   full:        1.854       0.962      -0.336       5.378
molecular quadrupole (traceless):
                xx          xy          yy          xz          yz          zz
 q only:       -0.229      -5.010       4.328       3.572       2.908      -4.099
  q+dip:       -2.774      -9.002       8.203       4.130       4.107      -5.428
   full:       -2.709      -9.075       6.298       0.993       4.556      -3.589

           -------------------------------------------------
          |                Geometry Summary                 |
           -------------------------------------------------

      molecular mass/u    :      324.4175123
   center of mass at/Å    :       -0.4649430      -0.1918423       0.0832943
  moments of inertia/u·Å² :        0.1503152E+04   0.2501476E+04   0.3463977E+04
rotational constants/cm⁻¹ :        0.1121485E-01   0.6739073E-02   0.4866555E-02

 * 47 selected distances

     #   Z          #   Z                                           value/Å
     1   8 O        2   6 C                                       1.4094381
     3   6 C        4   7 N                                       1.4652216
     4   7 N        5   6 C                                       1.4571368
     5   6 C        6   6 C                                       1.5431165 (max)
     4   7 N        7   6 C                                       1.4544512
     9   6 C       10   6 C                                       1.3205372
     6   6 C       11   6 C                                       1.5340046
     8   6 C       11   6 C                                       1.5347624
     3   6 C       12   6 C                                       1.5366394
    11   6 C       12   6 C                                       1.5337228
    13   6 C       14   6 C                                       1.3750946
    14   6 C       15   6 C                                       1.4002641
    15   6 C       16   7 N                                       1.3039871
    16   7 N       17   6 C                                       1.3446091
    13   6 C       18   6 C                                       1.4196620
    17   6 C       18   6 C                                       1.4253391
    18   6 C       19   6 C                                       1.4115911
    19   6 C       20   6 C                                       1.3730940
    20   6 C       21   8 O                                       1.3605477
    21   8 O       22   6 C                                       1.4066813
    20   6 C       23   6 C                                       1.4142055
    17   6 C       24   6 C                                       1.4134787
    23   6 C       24   6 C                                       1.3597741
     1   8 O       25   1 H                                       0.9684363 (min)
     2   6 C       26   1 H                                       1.0994451
     3   6 C       27   1 H                                       1.0962876
     5   6 C       28   1 H                                       1.0920973
     5   6 C       29   1 H                                       1.0927387
     6   6 C       30   1 H                                       1.0907885
     6   6 C       31   1 H                                       1.0911315
     7   6 C       32   1 H                                       1.0912554
     7   6 C       33   1 H                                       1.0932889
     8   6 C       34   1 H                                       1.0979645
     9   6 C       35   1 H                                       1.0845677
    10   6 C       36   1 H                                       1.0765915
    10   6 C       37   1 H                                       1.0777574
    11   6 C       38   1 H                                       1.0921014
    12   6 C       39   1 H                                       1.0893774
    12   6 C       40   1 H                                       1.0907465
    14   6 C       41   1 H                                       1.0783871
    15   6 C       42   1 H                                       1.0827033
    19   6 C       43   1 H                                       1.0776167
    22   6 C       44   1 H                                       1.0948932
    22   6 C       45   1 H                                       1.0949553
    22   6 C       46   1 H                                       1.0886458
    23   6 C       47   1 H                                       1.0786132
    24   6 C       48   1 H                                       1.0783946

 * 5 distinct bonds (by element types)

   Z      Z             #   av. dist./Å        max./Å        min./Å
   1 H    6 C          23     1.0882760     1.0994451     1.0765915
   6 C    6 C          15     1.4396857     1.5431165     1.3205372
   6 C    7 N           5     1.4050812     1.4652216     1.3039871
   1 H    8 O           1     0.9684363     0.9684363     0.9684363
   6 C    8 O           3     1.3922224     1.4094381     1.3605477


optimized geometry written to: xtbopt.xyz


           -------------------------------------------------
          | TOTAL ENERGY              -69.043920091415 Eh   |
          | GRADIENT NORM               0.000368518290 Eh/α |
          | HOMO-LUMO GAP               2.477931688056 eV   |
           -------------------------------------------------

------------------------------------------------------------------------
 * finished run on 2025/05/15 at 16:36:30.834     
------------------------------------------------------------------------
 total:
 * wall-time:     0 d,  0 h,  0 min,  1.908 sec
 *  cpu-time:     0 d,  0 h,  0 min,  1.119 sec
 * ratio c/w:     0.586 speedup
 SCF:
 * wall-time:     0 d,  0 h,  0 min,  0.108 sec
 *  cpu-time:     0 d,  0 h,  0 min,  0.070 sec
 * ratio c/w:     0.646 speedup
 ANC optimizer:
 * wall-time:     0 d,  0 h,  0 min,  1.784 sec
 *  cpu-time:     0 d,  0 h,  0 min,  1.035 sec
 * ratio c/w:     0.580 speedup



----- Single-point -----
      -----------------------------------------------------------      
     |                   =====================                   |     
     |                           x T B                           |     
     |                   =====================                   |     
     |                         S. Grimme                         |     
     |          Mulliken Center for Theoretical Chemistry        |     
     |                    University of Bonn                     |     
      -----------------------------------------------------------      

   * xtb version 6.7.1 (edcfbbe) compiled by 'conda@3ef47c1a292c' on 2024-11-25

   xtb is free software: you can redistribute it and/or modify it under
   the terms of the GNU Lesser General Public License as published by
   the Free Software Foundation, either version 3 of the License, or
   (at your option) any later version.
   
   xtb is distributed in the hope that it will be useful,
   but WITHOUT ANY WARRANTY; without even the implied warranty of
   MERCHANTABILITY or FITNESS FOR A PARTICULAR PURPOSE.  See the
   GNU Lesser General Public License for more details.
   
   Cite this work as:
   * C. Bannwarth, E. Caldeweyher, S. Ehlert, A. Hansen, P. Pracht,
     J. Seibert, S. Spicher, S. Grimme, WIREs Comput. Mol. Sci., 2020, 11,
     e01493. DOI: 10.1002/wcms.1493
   
   for GFN2-xTB:
   * C. Bannwarth, S. Ehlert and S. Grimme., J. Chem. Theory Comput., 2019,
     15, 1652-1671. DOI: 10.1021/acs.jctc.8b01176
   for GFN1-xTB:
   * S. Grimme, C. Bannwarth, P. Shushkov, J. Chem. Theory Comput., 2017,
     13, 1989-2009. DOI: 10.1021/acs.jctc.7b00118
   for GFN0-xTB:
   * P. Pracht, E. Caldeweyher, S. Ehlert, S. Grimme, ChemRxiv, 2019, preprint.
     DOI: 10.26434/chemrxiv.8326202.v1
   for GFN-FF:
   * S. Spicher and S. Grimme, Angew. Chem. Int. Ed., 2020, 59, 15665-15673.
     DOI: 10.1002/anie.202004239
   
   for ALPB and GBSA implicit solvation:
   * S. Ehlert, M. Stahn, S. Spicher, S. Grimme, J. Chem. Theory Comput.,
     2021, 17, 4250-4261. DOI: 10.1021/acs.jctc.1c00471
   
   for ddCOSMO and CPCM-X implicit solvation:
   * M. Stahn, S. Ehlert, S. Grimme, J. Phys. Chem. A,
     2023, XX, XXXX-XXXX. DOI: 10.1021/acs.jpca.3c04382
   
   for DFT-D4:
   * E. Caldeweyher, C. Bannwarth and S. Grimme, J. Chem. Phys., 2017,
     147, 034112. DOI: 10.1063/1.4993215
   * E. Caldeweyher, S. Ehlert, A. Hansen, H. Neugebauer, S. Spicher,
     C. Bannwarth and S. Grimme, J. Chem. Phys., 2019, 150, 154122.
     DOI: 10.1063/1.5090222
   * E. Caldeweyher, J.-M. Mewes, S. Ehlert and S. Grimme, Phys. Chem. Chem. Phys.
     2020, 22, 8499-8512. DOI: 10.1039/D0CP00502A
   
   for sTDA-xTB:
   * S. Grimme and C. Bannwarth, J. Chem. Phys., 2016, 145, 054103.
     DOI: 10.1063/1.4959605
   
   in the mass-spec context:
   * V. Asgeirsson, C. Bauer and S. Grimme, Chem. Sci., 2017, 8, 4879.
     DOI: 10.1039/c7sc00601b
   * J. Koopman and S. Grimme, ACS Omega 2019, 4, 12, 15120-15133.
     DOI: 10.1021/acsomega.9b02011
   
   for metadynamics refer to:
   * S. Grimme, J. Chem. Theory Comput., 2019, 155, 2847-2862
     DOI: 10.1021/acs.jctc.9b00143
   
   for SPH calculations refer to:
   * S. Spicher and S. Grimme, J. Chem. Theory Comput., 2021, 17, 1701-1714
     DOI: 10.1021/acs.jctc.0c01306
   
   for ONIOM refer to:
   * C. Plett, A. Katbashev, S. Ehlert, S. Grimme, M. Bursch,
     Phys. Chem. Chem. Phys., 2023, 25, 17860-17868. DOI: 10.1039/D3CP02178E
   
   for DIPRO refer to:
   * J. Kohn, N. Gildemeister, S. Grimme, D. Fazzi, A. Hansen,
     J. Chem. Phys., 2023, just accepted.
   
   for PTB refer to:
   * S. Grimme, M. Mueller, A. Hansen, J. Chem. Phys., 2023, 158, 124111.
     DOI: 10.1063/5.0137838
   
   with help from (in alphabetical order)
   P. Atkinson, C. Bannwarth, F. Bohle, G. Brandenburg, E. Caldeweyher
   M. Checinski, S. Dohm, S. Ehlert, S. Ehrlich, I. Gerasimov, C. Hölzer
   A. Katbashev, J. Kohn, J. Koopman, C. Lavigne, S. Lehtola, F. März, M. Müller,
   F. Musil, H. Neugebauer, J. Pisarek, C. Plett, P. Pracht, F. Pultar,
   J. Seibert, P. Shushkov, S. Spicher, M. Stahn, M. Steiner, T. Strunk,
   J. Stückrath, T. Rose, and J. Unsleber
   
 * started run on 2025/05/15 at 16:36:30.882     
   ID    Z sym.   atoms
    1    8 O      1, 21
    2    6 C      2, 3, 5-15, 17-20, 22-24
    3    7 N      4, 16
    4    1 H      25-48

           -------------------------------------------------
          |                Calculation Setup                |
           -------------------------------------------------

          program call               : xtb /rds/general/user/hgt20/home/callum/QDESCP/Quinine_rdkit_conf_3/Quinine_rdkit_conf_3.xyz --acc 1 --gfn 2 --chrg 0 --uhf 0 --etemp 300 --input /rds/general/user/hgt20/home/callum/QDESCP/Quinine_rdkit_conf_3/Quinine_rdkit_conf_3_xtb.inp -P 1
          hostname                   : login-c
          coordinate file            : /rds/general/user/hgt20/home/callum/QDESCP/Quinine_rdkit_conf_3/Quinine_rdkit_conf_3.xyz
          omp threads                :                     1


           -------------------------------------------------
          |                 G F N 2 - x T B                 |
           -------------------------------------------------

        Reference                      10.1021/acs.jctc.8b01176
      * Hamiltonian:
        H0-scaling (s, p, d)           1.850000    2.230000    2.230000
        zeta-weighting                 0.500000
      * Dispersion:
        s8                             2.700000
        a1                             0.520000
        a2                             5.000000
        s9                             5.000000
      * Repulsion:
        kExp                           1.500000    1.000000
        rExp                           1.000000
      * Coulomb:
        alpha                          2.000000
        third order                    shell-resolved
        anisotropic                    true
        a3                             3.000000
        a5                             4.000000
        cn-shift                       1.200000
        cn-exp                         4.000000
        max-rad                        5.000000

q/qsh data taken from xtbrestart
CAMM data taken from xtbrestart

          ...................................................
          :                      SETUP                      :
          :.................................................:
          :  # basis functions                 120          :
          :  # atomic orbitals                 120          :
          :  # shells                           72          :
          :  # electrons                       126          :
          :  max. iterations                   250          :
          :  Hamiltonian                  GFN2-xTB          :
          :  restarted?                       true          :
          :  GBSA solvation                  false          :
          :  PC potential                    false          :
          :  electronic temp.          300.0000000     K    :
          :  accuracy                    1.0000000          :
          :  -> integral cutoff          0.2500000E+02      :
          :  -> integral neglect         0.1000000E-07      :
          :  -> SCF convergence          0.1000000E-05 Eh   :
          :  -> wf. convergence          0.1000000E-03 e    :
          :  Broyden damping             0.4000000          :
          :  net charge                          0          :
          :  unpaired electrons                  0          :
          ...................................................

 iter      E             dE          RMSdq      gap      omega  full diag
   1    -70.0288591 -0.700289E+02  0.144E-05    2.48       0.0  T
   2    -70.0288591 -0.225953E-11  0.111E-05    2.48    1302.2  T
   3    -70.0288591 -0.395062E-11  0.533E-06    2.48    2707.2  T

   *** convergence criteria satisfied after 3 iterations ***

         #    Occupation            Energy/Eh            Energy/eV
      -------------------------------------------------------------
         1        2.0000           -0.7206135             -19.6089
       ...           ...                  ...                  ...
        57        2.0000           -0.4223940             -11.4939
        58        2.0000           -0.4133099             -11.2467
        59        2.0000           -0.4063359             -11.0570
        60        2.0000           -0.3954647             -10.7611
        61        2.0000           -0.3778886             -10.2829
        62        2.0000           -0.3661865              -9.9644
        63        2.0000           -0.3585532              -9.7567 (HOMO)
        64                         -0.2674910              -7.2788 (LUMO)
        65                         -0.2291829              -6.2364
        66                         -0.2143760              -5.8335
        67                         -0.1974172              -5.3720
        68                         -0.1478038              -4.0219
       ...                                ...                  ...
       120                          0.7024299              19.1141
      -------------------------------------------------------------
                  HL-Gap            0.0910622 Eh            2.4779 eV
             Fermi-level           -0.3130221 Eh           -8.5178 eV

 SCC (total)                   0 d,  0 h,  0 min,  0.096 sec
 SCC setup                      ...        0 min,  0.000 sec (  0.451%)
 Dispersion                     ...        0 min,  0.001 sec (  0.621%)
 classical contributions        ...        0 min,  0.000 sec (  0.193%)
 integral evaluation            ...        0 min,  0.010 sec (  9.976%)
 iterations                     ...        0 min,  0.009 sec (  9.354%)
 molecular gradient             ...        0 min,  0.076 sec ( 79.155%)
 printout                       ...        0 min,  0.000 sec (  0.243%)

         :::::::::::::::::::::::::::::::::::::::::::::::::::::
         ::                     SUMMARY                     ::
         :::::::::::::::::::::::::::::::::::::::::::::::::::::
         :: total energy             -69.043920091454 Eh    ::
         :: gradient norm              0.000368460253 Eh/a0 ::
         :: HOMO-LUMO gap              2.477929890407 eV    ::
         ::.................................................::
         :: SCC energy               -70.027429185527 Eh    ::
         :: -> isotropic ES            0.054933801949 Eh    ::
         :: -> anisotropic ES          0.007438918368 Eh    ::
         :: -> anisotropic XC          0.036087682087 Eh    ::
         :: -> dispersion             -0.056055586975 Eh    ::
         :: repulsion energy           0.983509094073 Eh    ::
         :: add. restraining           0.000000000000 Eh    ::
         :: total charge              -0.000000000000 e     ::
         :::::::::::::::::::::::::::::::::::::::::::::::::::::

           -------------------------------------------------
          |                Property Printout                |
           -------------------------------------------------

    * Orbital Energies and Occupations

         #    Occupation            Energy/Eh            Energy/eV
      -------------------------------------------------------------
         1        2.0000           -0.7206135             -19.6089
       ...           ...                  ...                  ...
        51        2.0000           -0.4431361             -12.0583
        52        2.0000           -0.4409436             -11.9987
        53        2.0000           -0.4397720             -11.9668
        54        2.0000           -0.4374933             -11.9048
        55        2.0000           -0.4285023             -11.6601
        56        2.0000           -0.4238888             -11.5346
        57        2.0000           -0.4223940             -11.4939
        58        2.0000           -0.4133099             -11.2467
        59        2.0000           -0.4063359             -11.0570
        60        2.0000           -0.3954647             -10.7611
        61        2.0000           -0.3778886             -10.2829
        62        2.0000           -0.3661865              -9.9644
        63        2.0000           -0.3585532              -9.7567 (HOMO)
        64                         -0.2674910              -7.2788 (LUMO)
        65                         -0.2291829              -6.2364
        66                         -0.2143760              -5.8335
        67                         -0.1974172              -5.3720
        68                         -0.1478038              -4.0219
        69                         -0.0658098              -1.7908
        70                          0.0094330               0.2567
        71                          0.0224409               0.6106
        72                          0.0288410               0.7848
        73                          0.0344892               0.9385
        74                          0.0503952               1.3713
       ...                                ...                  ...
       120                          0.7024299              19.1141
      -------------------------------------------------------------
                  HL-Gap            0.0910622 Eh            2.4779 eV
             Fermi-level           -0.3130221 Eh           -8.5178 eV

     #   Z          covCN         q      C6AA      α(0)
     1   8 O        1.656    -0.448    21.795     6.302
     2   6 C        3.733     0.111    18.848     6.197
     3   6 C        3.828     0.034    19.987     6.361
     4   7 N        2.730    -0.198    25.294     7.470
     5   6 C        3.783     0.009    20.439     6.440
     6   6 C        3.808    -0.065    21.741     6.637
     7   6 C        3.776     0.011    20.424     6.439
     8   6 C        3.860    -0.027    21.012     6.519
     9   6 C        2.887    -0.032    28.798     8.798
    10   6 C        2.835    -0.096    30.416     9.038
    11   6 C        3.865    -0.009    20.688     6.468
    12   6 C        3.809    -0.065    21.737     6.637
    13   6 C        2.974     0.011    27.757     8.642
    14   6 C        2.917    -0.043    29.076     8.842
    15   6 C        2.904     0.059    26.666     8.467
    16   7 N        1.843    -0.232    26.936     7.692
    17   6 C        2.977     0.082    26.160     8.390
    18   6 C        2.981    -0.006    28.163     8.705
    19   6 C        2.914    -0.079    29.975     8.978
    20   6 C        2.862     0.143    24.874     8.175
    21   8 O        1.706    -0.265    18.399     5.791
    22   6 C        3.644     0.037    20.286     6.474
    23   6 C        2.916    -0.049    29.206     8.862
    24   6 C        2.921    -0.038    28.942     8.822
    25   1 H        0.805     0.303     0.712     1.325
    26   1 H        0.923     0.016     2.801     2.617
    27   1 H        0.924     0.037     2.487     2.466
    28   1 H        0.924     0.034     2.532     2.488
    29   1 H        0.924     0.033     2.548     2.496
    30   1 H        0.924     0.029     2.605     2.524
    31   1 H        0.924     0.031     2.573     2.508
    32   1 H        0.924     0.034     2.529     2.487
    33   1 H        0.924     0.031     2.571     2.507
    34   1 H        0.923     0.037     2.488     2.467
    35   1 H        0.925     0.029     2.597     2.520
    36   1 H        0.926     0.038     2.471     2.458
    37   1 H        0.926     0.033     2.545     2.495
    38   1 H        0.924     0.028     2.619     2.531
    39   1 H        0.925     0.036     2.508     2.476
    40   1 H        0.924     0.026     2.639     2.540
    41   1 H        0.926     0.050     2.321     2.383
    42   1 H        0.925     0.037     2.488     2.467
    43   1 H        0.926     0.031     2.578     2.511
    44   1 H        0.924     0.042     2.420     2.433
    45   1 H        0.924     0.040     2.453     2.449
[...]
   
   in the mass-spec context:
   * V. Asgeirsson, C. Bauer and S. Grimme, Chem. Sci., 2017, 8, 4879.
     DOI: 10.1039/c7sc00601b
   * J. Koopman and S. Grimme, ACS Omega 2019, 4, 12, 15120-15133.
     DOI: 10.1021/acsomega.9b02011
   
   for metadynamics refer to:
   * S. Grimme, J. Chem. Theory Comput., 2019, 155, 2847-2862
     DOI: 10.1021/acs.jctc.9b00143
   
   for SPH calculations refer to:
   * S. Spicher and S. Grimme, J. Chem. Theory Comput., 2021, 17, 1701-1714
     DOI: 10.1021/acs.jctc.0c01306
   
   for ONIOM refer to:
   * C. Plett, A. Katbashev, S. Ehlert, S. Grimme, M. Bursch,
     Phys. Chem. Chem. Phys., 2023, 25, 17860-17868. DOI: 10.1039/D3CP02178E
   
   for DIPRO refer to:
   * J. Kohn, N. Gildemeister, S. Grimme, D. Fazzi, A. Hansen,
     J. Chem. Phys., 2023, just accepted.
   
   for PTB refer to:
   * S. Grimme, M. Mueller, A. Hansen, J. Chem. Phys., 2023, 158, 124111.
     DOI: 10.1063/5.0137838
   
   with help from (in alphabetical order)
   P. Atkinson, C. Bannwarth, F. Bohle, G. Brandenburg, E. Caldeweyher
   M. Checinski, S. Dohm, S. Ehlert, S. Ehrlich, I. Gerasimov, C. Hölzer
   A. Katbashev, J. Kohn, J. Koopman, C. Lavigne, S. Lehtola, F. März, M. Müller,
   F. Musil, H. Neugebauer, J. Pisarek, C. Plett, P. Pracht, F. Pultar,
   J. Seibert, P. Shushkov, S. Spicher, M. Stahn, M. Steiner, T. Strunk,
   J. Stückrath, T. Rose, and J. Unsleber
   
 * started run on 2025/05/15 at 16:36:33.648     
   ID    Z sym.   atoms
    1    8 O      1, 21
    2    6 C      2, 3, 5-15, 17-20, 22-24
    3    7 N      4, 16
    4    1 H      25-48

           -------------------------------------------------
          |                Calculation Setup                |
           -------------------------------------------------

          program call               : xtb /rds/general/user/hgt20/home/callum/QDESCP/Quinine_rdkit_conf_3/Quinine_rdkit_conf_3.xyz --acc 1 --gfn 2 --chrg 0 --uhf 2 --etemp 300 --input /rds/general/user/hgt20/home/callum/QDESCP/Quinine_rdkit_conf_3/Quinine_rdkit_conf_3_xtb.inp -P 1
          hostname                   : login-c
          coordinate file            : /rds/general/user/hgt20/home/callum/QDESCP/Quinine_rdkit_conf_3/Quinine_rdkit_conf_3.xyz
          omp threads                :                     1


           -------------------------------------------------
          |                 G F N 2 - x T B                 |
           -------------------------------------------------

        Reference                      10.1021/acs.jctc.8b01176
      * Hamiltonian:
        H0-scaling (s, p, d)           1.850000    2.230000    2.230000
        zeta-weighting                 0.500000
      * Dispersion:
        s8                             2.700000
        a1                             0.520000
        a2                             5.000000
        s9                             5.000000
      * Repulsion:
        kExp                           1.500000    1.000000
        rExp                           1.000000
      * Coulomb:
        alpha                          2.000000
        third order                    shell-resolved
        anisotropic                    true
        a3                             3.000000
        a5                             4.000000
        cn-shift                       1.200000
        cn-exp                         4.000000
        max-rad                        5.000000


          ...................................................
          :                      SETUP                      :
          :.................................................:
          :  # basis functions                 120          :
          :  # atomic orbitals                 120          :
          :  # shells                           72          :
          :  # electrons                       126          :
          :  max. iterations                   250          :
          :  Hamiltonian                  GFN2-xTB          :
          :  restarted?                      false          :
          :  GBSA solvation                  false          :
          :  PC potential                    false          :
          :  electronic temp.          300.0000000     K    :
          :  accuracy                    1.0000000          :
          :  -> integral cutoff          0.2500000E+02      :
          :  -> integral neglect         0.1000000E-07      :
          :  -> SCF convergence          0.1000000E-05 Eh   :
          :  -> wf. convergence          0.1000000E-03 e    :
          :  Broyden damping             0.4000000          :
          :  net charge                          0          :
          :  unpaired electrons                  2          :
          ...................................................

 iter      E             dE          RMSdq      gap      omega  full diag
   1    -69.6447909 -0.696448E+02  0.353E+00    0.95       0.0  T
   2    -69.4309693  0.213822E+00  0.302E+00    0.75       1.0  T
   3    -69.4444055 -0.134362E-01  0.284E+00    1.17       1.0  T
   4    -69.8834249 -0.439019E+00  0.138E+00    0.91       1.0  T
   5    -69.8291136  0.543113E-01  0.121E+00    0.92       1.0  T
   6    -69.7577048  0.714088E-01  0.123E+00    0.97       1.0  T
   7    -69.9091957 -0.151491E+00  0.554E-01    1.01       1.0  T
   8    -69.9174553 -0.825968E-02  0.375E-01    0.99       1.0  T
   9    -69.9058817  0.115736E-01  0.531E-01    0.99       1.0  T
  10    -69.9200618 -0.141801E-01  0.250E-01    0.98       1.0  T
  11    -69.9214706 -0.140878E-02  0.195E-01    0.98       1.0  T
  12    -69.9218676 -0.396979E-03  0.172E-01    0.98       1.0  T
  13    -69.9223423 -0.474717E-03  0.148E-01    0.98       1.0  T
  14    -69.9225424 -0.200144E-03  0.108E-01    0.97       1.0  T
  15    -69.9235255 -0.983078E-03  0.635E-02    0.97       1.0  T
  16    -69.9225708  0.954671E-03  0.110E-01    0.97       1.0  T
  17    -69.9237298 -0.115901E-02  0.344E-02    0.97       1.0  T
  18    -69.9238291 -0.992988E-04  0.155E-02    0.97       1.0  T
  19    -69.9238502 -0.210960E-04  0.439E-03    0.97       3.3  T
  20    -69.9238506 -0.357057E-06  0.309E-03    0.97       4.7  T
  21    -69.9238512 -0.660710E-06  0.181E-03    0.97       8.0  T
  22    -69.9238515 -0.284963E-06  0.758E-04    0.97      19.0  T
  23    -69.9238515 -0.762118E-08  0.729E-04    0.97      19.8  T

   *** convergence criteria satisfied after 23 iterations ***

         #    Occupation            Energy/Eh            Energy/eV
      -------------------------------------------------------------
         1        2.0000           -0.7182906             -19.5457
       ...           ...                  ...                  ...
        58        2.0000           -0.4152774             -11.3003
        59        2.0000           -0.4046396             -11.0108
        60        2.0000           -0.3844297             -10.4609
        61        1.9956           -0.3744030             -10.1880
        62        1.6671           -0.3699211             -10.0661
        63        1.3374           -0.3686195             -10.0306
        64        1.0000           -0.2562358              -6.9725 (HOMO)
        65                         -0.2204998              -6.0001 (LUMO)
        66                         -0.2175039              -5.9186
        67                         -0.1881351              -5.1194
        68                         -0.1364312              -3.7125
        69                         -0.0579088              -1.5758
       ...                                ...                  ...
       120                          0.7110142              19.3477
      -------------------------------------------------------------
                  HL-Gap            0.0357360 Eh            0.9724 eV
             Fermi-level           -0.3038243 Eh           -8.2675 eV

 transition dipole moment (au) for excitation:          63          64
     X       Y       Z   
   0.7081  -0.0198   0.5106  total (au/Debye):    0.873   2.219
 dE (eV)             :    3.058
 oscillator strength :  0.80782E-01

 SCC (total)                   0 d,  0 h,  0 min,  0.108 sec
 SCC setup                      ...        0 min,  0.000 sec (  0.388%)
 Dispersion                     ...        0 min,  0.001 sec (  0.548%)
 classical contributions        ...        0 min,  0.000 sec (  0.170%)
 integral evaluation            ...        0 min,  0.010 sec (  8.794%)
 iterations                     ...        0 min,  0.057 sec ( 52.223%)
 molecular gradient             ...        0 min,  0.033 sec ( 30.196%)
 printout                       ...        0 min,  0.008 sec (  7.675%)

         :::::::::::::::::::::::::::::::::::::::::::::::::::::
         ::                     SUMMARY                     ::
         :::::::::::::::::::::::::::::::::::::::::::::::::::::
         :: total energy             -68.938912541345 Eh    ::
         :: gradient norm              0.103112360025 Eh/a0 ::
         :: HOMO-LUMO gap              0.972426220981 eV    ::
         ::.................................................::
         :: SCC energy               -69.922421635418 Eh    ::
         :: -> isotropic ES            0.052036024927 Eh    ::
         :: -> anisotropic ES          0.009012692019 Eh    ::
         :: -> anisotropic XC          0.029840835127 Eh    ::
         :: -> dispersion             -0.055970568882 Eh    ::
         :: repulsion energy           0.983509094073 Eh    ::
         :: add. restraining           0.000000000000 Eh    ::
         :: total charge              -0.000000000290 e     ::
         :::::::::::::::::::::::::::::::::::::::::::::::::::::

           -------------------------------------------------
          |                Property Printout                |
           -------------------------------------------------

    * Orbital Energies and Occupations

         #    Occupation            Energy/Eh            Energy/eV
      -------------------------------------------------------------
         1        2.0000           -0.7182906             -19.5457
       ...           ...                  ...                  ...
        52        2.0000           -0.4368630             -11.8876
        53        2.0000           -0.4336091             -11.7991
        54        2.0000           -0.4332471             -11.7893
        55        2.0000           -0.4270360             -11.6202
        56        2.0000           -0.4229490             -11.5090
        57        2.0000           -0.4165767             -11.3356
        58        2.0000           -0.4152774             -11.3003
        59        2.0000           -0.4046396             -11.0108
        60        2.0000           -0.3844297             -10.4609
        61        1.9956           -0.3744030             -10.1880
        62        1.6671           -0.3699211             -10.0661
        63        1.3374           -0.3686195             -10.0306
        64        1.0000           -0.2562358              -6.9725 (HOMO)
        65                         -0.2204998              -6.0001 (LUMO)
        66                         -0.2175039              -5.9186
        67                         -0.1881351              -5.1194
        68                         -0.1364312              -3.7125
        69                         -0.0579088              -1.5758
        70                          0.0056299               0.1532
        71                          0.0190565               0.5186
        72                          0.0304058               0.8274
        73                          0.0319611               0.8697
        74                          0.0496010               1.3497
        75                          0.0570540               1.5525
       ...                                ...                  ...
       120                          0.7110142              19.3477
      -------------------------------------------------------------
                  HL-Gap            0.0357360 Eh            0.9724 eV
             Fermi-level           -0.3038243 Eh           -8.2675 eV

     #   Z          covCN         q      C6AA      α(0)
     1   8 O        1.656    -0.441    21.659     6.283
     2   6 C        3.733     0.117    18.755     6.181
     3   6 C        3.828     0.031    20.040     6.370
     4   7 N        2.730    -0.182    24.932     7.416
     5   6 C        3.783     0.008    20.465     6.444
     6   6 C        3.808    -0.065    21.746     6.638
     7   6 C        3.776     0.009    20.450     6.443
     8   6 C        3.860    -0.026    20.994     6.516
     9   6 C        2.887    -0.032    28.804     8.799
    10   6 C        2.835    -0.096    30.395     9.035
    11   6 C        3.865    -0.010    20.711     6.472
    12   6 C        3.809    -0.065    21.747     6.638
    13   6 C        2.974    -0.030    28.741     8.794
    14   6 C        2.917    -0.050    29.240     8.867
    15   6 C        2.904     0.037    27.172     8.547
    16   7 N        1.843    -0.182    25.753     7.521
    17   6 C        2.977     0.084    26.129     8.385
    18   6 C        2.981     0.004    27.932     8.669
    19   6 C        2.914    -0.084    30.095     8.996
    20   6 C        2.862     0.141    24.927     8.184
    21   8 O        1.706    -0.256    18.236     5.766
    22   6 C        3.644     0.037    20.289     6.474
    23   6 C        2.916    -0.069    29.719     8.939
    24   6 C        2.921    -0.058    29.432     8.897
    25   1 H        0.805     0.301     0.719     1.332
    26   1 H        0.923     0.018     2.771     2.603
    27   1 H        0.924     0.042     2.425     2.435
    28   1 H        0.924     0.036     2.503     2.474
    29   1 H        0.924     0.037     2.494     2.470
    30   1 H        0.924     0.031     2.567     2.505
    31   1 H        0.924     0.034     2.526     2.485
    32   1 H        0.924     0.038     2.476     2.461
    33   1 H        0.924     0.034     2.535     2.490
    34   1 H        0.923     0.039     2.466     2.456
    35   1 H        0.925     0.030     2.580     2.512
    36   1 H        0.926     0.040     2.446     2.446
    37   1 H        0.926     0.035     2.516     2.481
    38   1 H        0.924     0.032     2.563     2.503
    39   1 H        0.925     0.040     2.455     2.450
    40   1 H        0.924     0.033     2.550     2.497
    41   1 H        0.926     0.048     2.343     2.394
    42   1 H        0.925     0.040     2.450     2.448
    43   1 H        0.926     0.030     2.581     2.512
    44   1 H        0.924     0.044     2.400     2.422
    45   1 H        0.924     0.043     2.412     2.429
    46   1 H        0.925     0.062     2.174     2.306
    47   1 H        0.926     0.044     2.390     2.418
    48   1 H        0.926     0.049     2.336     2.390

 Mol. C6AA /au·bohr⁶  :      24076.864899
 Mol. C8AA /au·bohr⁸  :     561776.189372
 Mol. α(0) /au        :        239.193813


Wiberg/Mayer (AO) data.
largest (>0.10) Wiberg bond orders for each atom

 ---------------------------------------------------------------------------
     #   Z sym  total        # sym  WBO       # sym  WBO       # sym  WBO
 ---------------------------------------------------------------------------
     1   8 O    1.961 --     2 C    0.994    25 H    0.878
     2   6 C    3.937 --     1 O    0.994    13 C    0.978     3 C    0.947
                            26 H    0.937
     3   6 C    3.967 --     4 N    0.985    12 C    0.981    27 H    0.963
                             2 C    0.947
     4   7 N    3.134 --     7 C    1.007     5 C    0.999     3 C    0.985
     5   6 C    3.980 --     4 N    0.999     6 C    0.987    28 H    0.976
                            29 H    0.974
     6   6 C    3.991 --    11 C    0.997     5 C    0.987    31 H    0.979
                            30 H    0.979
     7   6 C    3.982 --     4 N    1.007    33 H    0.975    32 H    0.969
                             8 C    0.958
     8   6 C    3.988 --     9 C    1.018    11 C    0.986     7 C    0.958
                            34 H    0.951
     9   6 C    3.990 --    10 C    1.971     8 C    1.018    35 H    0.965
    10   6 C    3.990 --     9 C    1.971    37 H    0.975    36 H    0.972
    11   6 C    3.995 --     6 C    0.997    12 C    0.996     8 C    0.986
                            38 H    0.964
    12   6 C    3.991 --    11 C    0.996     3 C    0.981    40 H    0.977
                            39 H    0.969
    13   6 C    3.854 --    14 C    1.330    18 C    1.239     2 C    0.978
    14   6 C    3.921 --    15 C    1.424    13 C    1.330    41 H    0.960
    15   6 C    3.913 --    14 C    1.424    16 N    1.352    42 H    0.950
    16   7 N    2.958 --    15 C    1.352    17 C    1.284
    17   6 C    3.923 --    16 N    1.284    24 C    1.264    18 C    1.190
    18   6 C    3.942 --    19 C    1.307    13 C    1.239    17 C    1.190
    19   6 C    3.836 --    18 C    1.307    20 C    1.298    43 H    0.946
    20   6 C    3.862 --    23 C    1.324    19 C    1.298    21 O    1.073
    21   8 O    2.206 --    20 C    1.073    22 C    0.986
    22   6 C    3.945 --    21 O    0.986    46 H    0.980    45 H    0.974
                            44 H    0.971
    23   6 C    3.970 --    24 C    1.445    20 C    1.324    47 H    0.966
    24   6 C    3.897 --    23 C    1.445    17 C    1.264    48 H    0.963
    25   1 H    0.909 --     1 O    0.878
    26   1 H    0.995 --     2 C    0.937
    27   1 H    0.998 --     3 C    0.963
    28   1 H    0.998 --     5 C    0.976
    29   1 H    0.998 --     5 C    0.974
    30   1 H    0.998 --     6 C    0.979
    31   1 H    0.998 --     6 C    0.979
    32   1 H    0.998 --     7 C    0.969
    33   1 H    0.998 --     7 C    0.975
    34   1 H    0.998 --     8 C    0.951
    35   1 H    0.999 --     9 C    0.965
    36   1 H    0.998 --    10 C    0.972
    37   1 H    0.998 --    10 C    0.975
    38   1 H    0.996 --    11 C    0.964
    39   1 H    0.998 --    12 C    0.969
    40   1 H    0.998 --    12 C    0.977
    41   1 H    0.991 --    14 C    0.960
    42   1 H    0.985 --    15 C    0.950
    43   1 H    0.993 --    19 C    0.946
    44   1 H    0.994 --    22 C    0.971
    45   1 H    0.994 --    22 C    0.974
    46   1 H    0.996 --    22 C    0.980
    47   1 H    0.995 --    23 C    0.966
    48   1 H    0.992 --    24 C    0.963
 ---------------------------------------------------------------------------

Topologies differ in total number of bonds
Writing topology from bond orders to xtbtopo.mol

molecular dipole:
                 x           y           z       tot (Debye)
 q only:        1.723       0.601      -0.186
   full:        2.316       0.890      -0.307       6.356
molecular quadrupole (traceless):
                xx          xy          yy          xz          yz          zz
 q only:       -2.470      -4.808       6.125       2.254       3.307      -3.655
  q+dip:       -3.703      -6.482       9.828       3.641       5.414      -6.125
   full:       -3.626      -6.551       8.243       0.951       5.624      -4.617


           -------------------------------------------------
          | TOTAL ENERGY              -68.938912541345 Eh   |
          | GRADIENT NORM               0.103112360025 Eh/α |
          | HOMO-LUMO GAP               0.972426220981 eV   |
           -------------------------------------------------

------------------------------------------------------------------------
 * finished run on 2025/05/15 at 16:36:33.781     
------------------------------------------------------------------------
 total:
 * wall-time:     0 d,  0 h,  0 min,  0.132 sec
 *  cpu-time:     0 d,  0 h,  0 min,  0.122 sec
 * ratio c/w:     0.922 speedup
 SCF:
 * wall-time:     0 d,  0 h,  0 min,  0.109 sec
 *  cpu-time:     0 d,  0 h,  0 min,  0.108 sec
 * ratio c/w:     0.996 speedup


