52
 energy: -76.360317886897 gnorm: 0.000518099121 xtb: 6.7.1 (edcfbbe)
H           -0.50500399037110       -0.51894438265490        1.72673585964643
C           -0.68831039314711       -0.55168612419428        0.64157098479404
C           -2.05662740556822       -0.04337635864812        0.34354520256999
N           -2.55614658120030        1.15976605798467        0.77695100039759
C           -3.83137397048578        1.30073288142547        0.30386367343970
C           -4.14462059042833        0.14486732710046       -0.45661300325817
C           -5.39929557961871        0.04050868189218       -1.05520916491142
C           -6.29812207231064        1.06996417688765       -0.88708045516867
C           -5.97546156482099        2.20253435750733       -0.13533219317075
C           -4.74257746226442        2.33421922170532        0.46828446627459
C           -2.98942993452104       -0.68933318973206       -0.41278608260953
C           -2.71642511038489       -2.02793942077543       -1.00873578804030
C           -1.19837120728941       -2.22448823659553       -1.05729934941562
N           -0.62367939903383       -1.95122792908010        0.24930303719984
C            0.69928186188886       -2.49304370431703        0.46525834832459
C            1.81676783844637       -1.71945237553086       -0.25348509433907
C            3.18868158079419       -2.32541498189864        0.02908193652374
C            4.29249270305456       -1.52495286329176       -0.65666193211481
C            4.25656156705077       -0.06531035150801       -0.19801891868955
C            2.86743367928743        0.53295937567297       -0.53046902822237
C            1.77625706336247       -0.25855041454787        0.20415918117775
C            0.38605554892019        0.32117908263843       -0.04758657694213
H            1.98869320207086       -0.22347946080867        1.27865304839490
C            2.83929619630680        2.00653978057312       -0.20485021870703
O            2.94167077073167        2.23994631371958        1.11977730902804
C            2.95748225760857        3.60612285446428        1.51334112478512
O            2.76552302156122        2.89182061654783       -1.01400323330195
O            4.55099511275979       -0.03887457401369        1.17473395644951
H            1.62857709086092       -1.75580113807333       -1.33285893159893
H           -2.07118888633783        1.81986964330550        1.35957782371258
H           -5.65594142409229       -0.83230207470247       -1.63705015250375
H           -7.27555889167857        1.00762298980650       -1.34290755438903
H           -6.70794782389823        2.98879600920373       -0.02675728132322
H           -4.49332458895818        3.21043038727580        1.04945299707724
H           -3.13760391348040       -2.10467755036035       -2.01315515143225
H           -3.16709456217935       -2.80890491664693       -0.38988837211526
H           -0.96698216067578       -3.26046499451963       -1.31390234930271
H           -0.78400242123418       -1.57778926299378       -1.84745855635444
H            0.89139771747652       -2.47173666163474        1.54400309529948
H            0.70143375256701       -3.53766191375816        0.14566497083690
H            3.37276150201713       -2.31987125014257        1.10439253251010
H            3.21651263352348       -3.36032194858871       -0.31665331727945
H            4.17589704506266       -1.56173728128040       -1.74074364679322
H            5.26581196472764       -1.94153754001182       -0.39670798666687
H            5.02017238966902        0.51015276969380       -0.75271545069920
H            2.71520393019264        0.45348523616693       -1.61151449935043
H            0.18752522770492        0.35931877472786       -1.12107865343467
H            0.32196059631185        1.34213976219428        0.33478705219279
H            3.77481837616493        4.13356369769025        1.01752712279689
H            3.09352664416219        3.61132869502835        2.59193658183165
H            2.01605045803414        4.08774802541954        1.24198999347090
H            4.27624820165630        0.81336418167886        1.53703164340443
