66
 energy: -102.676067173131 gnorm: 0.000585984918 xtb: 6.7.1 (edcfbbe)
C           -6.36584040606642       -1.64225863461880        1.82144411482379
C           -5.67311552297720       -0.52706568517169        1.04898305528744
C           -5.47268410325796        0.71790101945079        1.92523054988480
C           -4.70951728392568        1.77477505219996        1.21314371348271
N           -5.19132281722827        2.87959616254887        0.68558323692630
C           -4.16249789483613        3.54570820873575        0.11131237806360
C           -4.32854277164652        4.84705360945430       -0.57909844136543
C           -2.99375674132390        2.82383986194433        0.28548887595634
N           -3.38003958608773        1.69698894050339        0.99216968884425
N           -2.46687819702033        0.75173719823526        1.36094473828254
C           -1.18133536873193        0.91407182447168        0.95052184714199
C           -0.21155752964883       -0.13519752070568        1.30663222451689
C           -0.55243534423211       -1.48757600152045        1.51596989109470
C            0.45970024812502       -2.40775152781713        1.78502723073086
C            1.78028696398171       -2.00417493638038        1.85770103633999
C            2.10522839706646       -0.67555418157119        1.66754954948601
S            3.82929270939780       -0.16679306664291        1.70975555524045
O            3.91165795739916        1.13500831669819        2.29518560466973
N            4.27690358665379       -0.03896740089810        0.12008901012656
C            3.70843614246631        1.05363571851325       -0.63494666815212
C            4.53806766414349        1.25192476432152       -1.90284381825635
N            4.52907467671234        0.01568584918017       -2.66175018926867
C            5.14536333374314       -1.04637934611387       -1.89242825198972
C            4.31924517656477       -1.27207070248504       -0.62647208220115
C            5.00730988174640        0.13559703755074       -4.02434264499487
C            6.48053933259653        0.51792966909581       -4.20278576351092
O            4.58752848965794       -1.24043446220413        2.28296964712976
C            1.12415200293992        0.24985386393061        1.39114307735630
O           -1.87481613242016       -1.81646851894691        1.45704807457879
C           -2.28202416102728       -3.17728281650945        1.38934094515539
C           -1.97460479765283       -3.81303689385199        0.03990866014323
N           -0.75670145779984        1.93213507795013        0.29404475497146
C           -1.59688519638968        2.97667324245873       -0.09866596962824
O           -1.16354318830437        3.91883274806714       -0.72388183683404
H           -6.51457074528928       -2.51230021969679        1.18616153639837
H           -7.33713583315127       -1.30935229458043        2.17829038779361
H           -5.77185198886346       -1.94173025722387        2.68349987661859
H           -6.27406173821092       -0.25091430891831        0.18135456996359
H           -4.70784250555478       -0.88495919821791        0.67971511549774
H           -4.94717251013547        0.44020892528221        2.84495700548274
H           -6.44320351687439        1.13135264398284        2.19765792554061
H           -4.73565677472413        5.58473158283481        0.10997174924061
H           -3.36429240606945        5.18280547780834       -0.94940401248706
H           -5.02622999890546        4.74489797329870       -1.40833196672283
H           -2.79837106949282       -0.09793533009225        1.79601435537967
H            0.22536475457983       -3.44693024653917        1.94940985296821
H            2.56796543402683       -2.70691562281609        2.07788307034997
H            3.74116931403746        1.93939797974038       -0.00165196759088
H            2.66761443979163        0.83765476593933       -0.91688474752934
H            4.09058009326970        2.04185529991664       -2.50839909314351
H            5.55697364240048        1.55387031927289       -1.61037753913768
H            5.15507675638847       -1.95910339116457       -2.49205626654182
H            6.17765358905148       -0.80276841919948       -1.59183607805153
H            3.30458209979512       -1.59372387214899       -0.90915441665237
H            4.77832605191541       -2.02441154622904        0.01494457791569
H            4.38024825257619        0.88417798754218       -4.51677971549073
H            4.82518710908849       -0.82670152098366       -4.51245592740026
H            6.71374221287799        0.57563645432694       -5.26270884806901
H            7.13157920576346       -0.22480793656634       -3.74848062446445
H            6.68558894198041        1.48615041990728       -3.75355142542185
H            1.37143230959162        1.28871124199463        1.24814587201055
H           -3.36394876137662       -3.13438165743806        1.54332131501000
H           -1.84234092340554       -3.75270696001597        2.21091654206127
H           -2.45175394017912       -3.24597974126491       -0.75563853210576
H           -0.90402828673831       -3.83392391715421       -0.14780466615357
H           -2.35541127082833       -4.83004110139682        0.02340028068316
