----- Optimization -----
      -----------------------------------------------------------      
     |                   =====================                   |     
     |                           x T B                           |     
     |                   =====================                   |     
     |                         S. Grimme                         |     
     |          Mulliken Center for Theoretical Chemistry        |     
     |                    University of Bonn                     |     
      -----------------------------------------------------------      

   * xtb version 6.7.1 (edcfbbe) compiled by 'conda@3ef47c1a292c' on 2024-11-25

   xtb is free software: you can redistribute it and/or modify it under
   the terms of the GNU Lesser General Public License as published by
   the Free Software Foundation, either version 3 of the License, or
   (at your option) any later version.
   
   xtb is distributed in the hope that it will be useful,
   but WITHOUT ANY WARRANTY; without even the implied warranty of
   MERCHANTABILITY or FITNESS FOR A PARTICULAR PURPOSE.  See the
   GNU Lesser General Public License for more details.
   
   Cite this work as:
   * C. Bannwarth, E. Caldeweyher, S. Ehlert, A. Hansen, P. Pracht,
     J. Seibert, S. Spicher, S. Grimme, WIREs Comput. Mol. Sci., 2020, 11,
     e01493. DOI: 10.1002/wcms.1493
   
   for GFN2-xTB:
   * C. Bannwarth, S. Ehlert and S. Grimme., J. Chem. Theory Comput., 2019,
     15, 1652-1671. DOI: 10.1021/acs.jctc.8b01176
   for GFN1-xTB:
   * S. Grimme, C. Bannwarth, P. Shushkov, J. Chem. Theory Comput., 2017,
     13, 1989-2009. DOI: 10.1021/acs.jctc.7b00118
   for GFN0-xTB:
   * P. Pracht, E. Caldeweyher, S. Ehlert, S. Grimme, ChemRxiv, 2019, preprint.
     DOI: 10.26434/chemrxiv.8326202.v1
   for GFN-FF:
   * S. Spicher and S. Grimme, Angew. Chem. Int. Ed., 2020, 59, 15665-15673.
     DOI: 10.1002/anie.202004239
   
   for ALPB and GBSA implicit solvation:
   * S. Ehlert, M. Stahn, S. Spicher, S. Grimme, J. Chem. Theory Comput.,
     2021, 17, 4250-4261. DOI: 10.1021/acs.jctc.1c00471
   
   for ddCOSMO and CPCM-X implicit solvation:
   * M. Stahn, S. Ehlert, S. Grimme, J. Phys. Chem. A,
     2023, XX, XXXX-XXXX. DOI: 10.1021/acs.jpca.3c04382
   
   for DFT-D4:
   * E. Caldeweyher, C. Bannwarth and S. Grimme, J. Chem. Phys., 2017,
     147, 034112. DOI: 10.1063/1.4993215
   * E. Caldeweyher, S. Ehlert, A. Hansen, H. Neugebauer, S. Spicher,
     C. Bannwarth and S. Grimme, J. Chem. Phys., 2019, 150, 154122.
     DOI: 10.1063/1.5090222
   * E. Caldeweyher, J.-M. Mewes, S. Ehlert and S. Grimme, Phys. Chem. Chem. Phys.
     2020, 22, 8499-8512. DOI: 10.1039/D0CP00502A
   
   for sTDA-xTB:
   * S. Grimme and C. Bannwarth, J. Chem. Phys., 2016, 145, 054103.
     DOI: 10.1063/1.4959605
   
   in the mass-spec context:
   * V. Asgeirsson, C. Bauer and S. Grimme, Chem. Sci., 2017, 8, 4879.
     DOI: 10.1039/c7sc00601b
   * J. Koopman and S. Grimme, ACS Omega 2019, 4, 12, 15120-15133.
     DOI: 10.1021/acsomega.9b02011
   
   for metadynamics refer to:
   * S. Grimme, J. Chem. Theory Comput., 2019, 155, 2847-2862
     DOI: 10.1021/acs.jctc.9b00143
   
   for SPH calculations refer to:
   * S. Spicher and S. Grimme, J. Chem. Theory Comput., 2021, 17, 1701-1714
     DOI: 10.1021/acs.jctc.0c01306
   
   for ONIOM refer to:
   * C. Plett, A. Katbashev, S. Ehlert, S. Grimme, M. Bursch,
     Phys. Chem. Chem. Phys., 2023, 25, 17860-17868. DOI: 10.1039/D3CP02178E
   
   for DIPRO refer to:
   * J. Kohn, N. Gildemeister, S. Grimme, D. Fazzi, A. Hansen,
     J. Chem. Phys., 2023, just accepted.
   
   for PTB refer to:
   * S. Grimme, M. Mueller, A. Hansen, J. Chem. Phys., 2023, 158, 124111.
     DOI: 10.1063/5.0137838
   
   with help from (in alphabetical order)
   P. Atkinson, C. Bannwarth, F. Bohle, G. Brandenburg, E. Caldeweyher
   M. Checinski, S. Dohm, S. Ehlert, S. Ehrlich, I. Gerasimov, C. Hölzer
   A. Katbashev, J. Kohn, J. Koopman, C. Lavigne, S. Lehtola, F. März, M. Müller,
   F. Musil, H. Neugebauer, J. Pisarek, C. Plett, P. Pracht, F. Pultar,
   J. Seibert, P. Shushkov, S. Spicher, M. Stahn, M. Steiner, T. Strunk,
   J. Stückrath, T. Rose, and J. Unsleber
   
 * started run on 2025/05/15 at 16:30:10.052     
   ID    Z sym.   atoms
    1    6 C      1-4, 6-8, 11-16, 20, 21, 23-26, 28, 30, 31, 33
    2    7 N      5, 9, 10, 19, 22, 32
    3   16 S      17
    4    8 O      18, 27, 29, 34
    5    1 H      35-66

           -------------------------------------------------
          |                Calculation Setup                |
           -------------------------------------------------

          program call               : xtb /rds/general/user/hgt20/home/callum/QDESCP/Vardenafil_rdkit_conf_17/Vardenafil_rdkit_conf_17.xyz --opt normal --acc 1 --gfn 2 --chrg 0 --uhf 0 -P 1
          hostname                   : login-c
          coordinate file            : /rds/general/user/hgt20/home/callum/QDESCP/Vardenafil_rdkit_conf_17/Vardenafil_rdkit_conf_17.xyz
          omp threads                :                     1


           -------------------------------------------------
          |                 G F N 2 - x T B                 |
           -------------------------------------------------

        Reference                      10.1021/acs.jctc.8b01176
      * Hamiltonian:
        H0-scaling (s, p, d)           1.850000    2.230000    2.230000
        zeta-weighting                 0.500000
      * Dispersion:
        s8                             2.700000
        a1                             0.520000
        a2                             5.000000
        s9                             5.000000
      * Repulsion:
        kExp                           1.500000    1.000000
        rExp                           1.000000
      * Coulomb:
        alpha                          2.000000
        third order                    shell-resolved
        anisotropic                    true
        a3                             3.000000
        a5                             4.000000
        cn-shift                       1.200000
        cn-exp                         4.000000
        max-rad                        5.000000


          ...................................................
          :                      SETUP                      :
          :.................................................:
          :  # basis functions                 174          :
          :  # atomic orbitals                 173          :
          :  # shells                          101          :
          :  # electrons                       184          :
          :  max. iterations                   250          :
          :  Hamiltonian                  GFN2-xTB          :
          :  restarted?                      false          :
          :  GBSA solvation                  false          :
          :  PC potential                    false          :
          :  electronic temp.          300.0000000     K    :
          :  accuracy                    1.0000000          :
          :  -> integral cutoff          0.2500000E+02      :
          :  -> integral neglect         0.1000000E-07      :
          :  -> SCF convergence          0.1000000E-05 Eh   :
          :  -> wf. convergence          0.1000000E-03 e    :
          :  Broyden damping             0.4000000          :
          :  net charge                          0          :
          :  unpaired electrons                  0          :
          ...................................................

 iter      E             dE          RMSdq      gap      omega  full diag
   1   -103.6114371 -0.103611E+03  0.424E+00    2.39       0.0  T
   2   -103.8414364 -0.229999E+00  0.269E+00    1.66       1.0  T
   3   -103.8631135 -0.216771E-01  0.139E+00    1.93       1.0  T
   4   -103.8758608 -0.127473E-01  0.486E-01    1.35       1.0  T
   5   -103.8858326 -0.997189E-02  0.179E-01    1.45       1.0  T
   6   -103.8861968 -0.364107E-03  0.954E-02    1.45       1.0  T
   7   -103.8863118 -0.115089E-03  0.571E-02    1.49       1.0  T
   8   -103.8863886 -0.767068E-04  0.275E-02    1.49       1.0  T
   9   -103.8863963 -0.769839E-05  0.101E-02    1.49       1.2  T
  10   -103.8863986 -0.232734E-05  0.487E-03    1.49       2.5  T
  11   -103.8863989 -0.295554E-06  0.221E-03    1.49       5.6  T
  12   -103.8863990 -0.850308E-07  0.660E-04    1.49      18.6  T
  13   -103.8863990 -0.102004E-07  0.314E-04    1.49      39.2  T

   *** convergence criteria satisfied after 13 iterations ***

         #    Occupation            Energy/Eh            Energy/eV
      -------------------------------------------------------------
         1        2.0000           -0.7765291             -21.1304
       ...           ...                  ...                  ...
        86        2.0000           -0.4159048             -11.3173
        87        2.0000           -0.4120000             -11.2111
        88        2.0000           -0.3956902             -10.7673
        89        2.0000           -0.3921572             -10.6711
        90        2.0000           -0.3814860             -10.3808
        91        2.0000           -0.3757710             -10.2252
        92        2.0000           -0.3587721              -9.7627 (HOMO)
        93                         -0.3040493              -8.2736 (LUMO)
        94                         -0.2790082              -7.5922
        95                         -0.2574516              -7.0056
        96                         -0.2345045              -6.3812
        97                         -0.1945596              -5.2942
       ...                                ...                  ...
       173                          1.1474098              31.2226
      -------------------------------------------------------------
                  HL-Gap            0.0547228 Eh            1.4891 eV
             Fermi-level           -0.3314107 Eh           -9.0181 eV

 SCC (total)                   0 d,  0 h,  0 min,  0.223 sec
 SCC setup                      ...        0 min,  0.022 sec (  9.794%)
 Dispersion                     ...        0 min,  0.001 sec (  0.498%)
 classical contributions        ...        0 min,  0.000 sec (  0.155%)
 integral evaluation            ...        0 min,  0.016 sec (  7.019%)
 iterations                     ...        0 min,  0.067 sec ( 29.888%)
 molecular gradient             ...        0 min,  0.117 sec ( 52.415%)
 printout                       ...        0 min,  0.001 sec (  0.225%)

         :::::::::::::::::::::::::::::::::::::::::::::::::::::
         ::                     SUMMARY                     ::
         :::::::::::::::::::::::::::::::::::::::::::::::::::::
         :: total energy            -102.652561665788 Eh    ::
         :: gradient norm              0.104285926388 Eh/a0 ::
         :: HOMO-LUMO gap              1.489082136744 eV    ::
         ::.................................................::
         :: SCC energy              -103.885171749689 Eh    ::
         :: -> isotropic ES            0.143944878799 Eh    ::
         :: -> anisotropic ES          0.008523666772 Eh    ::
         :: -> anisotropic XC          0.049641701931 Eh    ::
         :: -> dispersion             -0.076632527367 Eh    ::
         :: repulsion energy           1.232610083901 Eh    ::
         :: add. restraining           0.000000000000 Eh    ::
         :: total charge               0.000000000000 e     ::
         :::::::::::::::::::::::::::::::::::::::::::::::::::::

      ----------------------------------------------------------- 
     |                   =====================                   |
     |                        A N C O P T                        |
     |                   =====================                   |
     |               Approximate Normal Coordinate               |
     |                Rational Function Optimizer                |
      ----------------------------------------------------------- 
      ----------------------------------------------------------- 
     |                   =====================                   |
     |                        A N C O P T                        |
     |                   =====================                   |
     |               Approximate Normal Coordinate               |
     |                Rational Function Optimizer                |
      ----------------------------------------------------------- 

          ...................................................
          :                      SETUP                      :
          :.................................................:
          :   optimization level            normal          :
          :   max. optcycles                   200          :
          :   ANC micro-cycles                  20          :
          :   degrees of freedom               192          :
          :.................................................:
          :   RF solver                   davidson          :
          :   write xtbopt.log                true          :
          :   linear?                        false          :
          :   energy convergence         0.5000000E-05 Eh   :
          :   grad. convergence          0.1000000E-02 Eh/α :
          :   maxmium RF displ.          1.0000000          :
          :   Hlow (freq-cutoff)         0.1000000E-01      :
          :   Hmax (freq-cutoff)         5.0000000          :
          :   S6 in model hess.         20.0000000          :
          ...................................................

generating ANC from exact Hessian ...
Using Lindh-Hessian (1995)
 Shifting diagonal of input Hessian by    9.9142908784656293E-003
 Lowest  eigenvalues of input Hessian
    0.000000    0.000000    0.000000    0.000000    0.000000    0.000000
    0.010000    0.010061    0.010178    0.010447    0.010717    0.010797
    0.010850    0.011500    0.011838    0.012244    0.012295    0.012635
 Highest eigenvalues
    2.087186    2.108115    2.319473    2.431191    2.519861    3.436279


........................................................................
.............................. CYCLE    1 ..............................
........................................................................

 iter      E             dE          RMSdq      gap      omega  full diag
   1   -103.8863990 -0.103886E+03  0.143E-04    1.49       0.0  T
   2   -103.8863990 -0.159019E-09  0.899E-05    1.49     136.8  T
   3   -103.8863990 -0.831761E-10  0.626E-05    1.49     196.7  T
     SCC iter.                  ...        0 min,  0.016 sec
     gradient                   ...        0 min,  0.066 sec
 * total energy  :  -102.6525617 Eh     change       -0.1754813E-08 Eh
   gradient norm :     0.1042833 Eh/α   predicted     0.0000000E+00 (-100.00%)
   displ. norm   :     0.3395211 α      lambda       -0.1932954E-01
   maximum displ.:     0.1224765 α      in ANC's #64, #66, #51, ...

........................................................................
.............................. CYCLE    2 ..............................
........................................................................

 iter      E             dE          RMSdq      gap      omega  full diag
   1   -103.9370039 -0.103937E+03  0.192E-01    1.53       0.0  T
   2   -103.9372779 -0.274005E-03  0.124E-01    1.58       1.0  T
   3   -103.9372867 -0.882014E-05  0.629E-02    1.57       1.0  T
   4   -103.9373525 -0.657733E-04  0.239E-02    1.58       1.0  T
   5   -103.9373783 -0.258279E-04  0.686E-03    1.58       1.8  T
   6   -103.9373782  0.787927E-07  0.231E-03    1.58       5.3  T
   7   -103.9373785 -0.223638E-06  0.881E-04    1.58      14.0  T
   8   -103.9373785 -0.149989E-07  0.448E-04    1.58      27.5  T
     SCC iter.                  ...        0 min,  0.084 sec
     gradient                   ...        0 min,  0.074 sec
 * total energy  :  -102.6661550 Eh     change       -0.1359331E-01 Eh
   gradient norm :     0.0453113 Eh/α   predicted    -0.1078462E-01 ( -20.66%)
   displ. norm   :     0.3053517 α      lambda       -0.6543023E-02
   maximum displ.:     0.0997754 α      in ANC's #25, #35, #64, ...

........................................................................
.............................. CYCLE    3 ..............................
........................................................................

 iter      E             dE          RMSdq      gap      omega  full diag
   1   -103.9647599 -0.103965E+03  0.144E-01    1.55       0.0  T
   2   -103.9649252 -0.165392E-03  0.913E-02    1.59       1.0  T
   3   -103.9649355 -0.102732E-04  0.445E-02    1.58       1.0  T
   4   -103.9649642 -0.286807E-04  0.193E-02    1.59       1.0  T
   5   -103.9649797 -0.155407E-04  0.659E-03    1.59       1.9  T
   6   -103.9649797  0.497670E-07  0.175E-03    1.59       7.0  T
   7   -103.9649798 -0.141517E-06  0.666E-04    1.59      18.5  T
   8   -103.9649798 -0.389294E-08  0.351E-04    1.59      35.1  T
     SCC iter.                  ...        0 min,  0.079 sec
     gradient                   ...        0 min,  0.097 sec
 * total energy  :  -102.6699826 Eh     change       -0.3827647E-02 Eh
   gradient norm :     0.0141019 Eh/α   predicted    -0.3577634E-02 (  -6.53%)
   displ. norm   :     0.1985631 α      lambda       -0.9878756E-03
   maximum displ.:     0.0847310 α      in ANC's #25, #18, #27, ...

........................................................................
.............................. CYCLE    4 ..............................
........................................................................

 iter      E             dE          RMSdq      gap      omega  full diag
   1   -103.9668119 -0.103967E+03  0.541E-02    1.57       0.0  T
   2   -103.9668279 -0.159751E-04  0.315E-02    1.58       1.0  T
   3   -103.9668256  0.227555E-05  0.147E-02    1.58       1.0  T
   4   -103.9668321 -0.642061E-05  0.484E-03    1.59       2.5  T
   5   -103.9668328 -0.764989E-06  0.222E-03    1.59       5.5  T
   6   -103.9668329 -0.412088E-07  0.753E-04    1.59      16.4  T
   7   -103.9668329 -0.239194E-07  0.250E-04    1.59      49.3  T
     SCC iter.                  ...        0 min,  0.035 sec
     gradient                   ...        0 min,  0.085 sec
 * total energy  :  -102.6707508 Eh     change       -0.7681662E-03 Eh
   gradient norm :     0.0116842 Eh/α   predicted    -0.5134172E-03 ( -33.16%)
   displ. norm   :     0.3344857 α      lambda       -0.1123213E-02
   maximum displ.:     0.1447367 α      in ANC's #18, #25, #27, ...

........................................................................
.............................. CYCLE    5 ..............................
........................................................................

 iter      E             dE          RMSdq      gap      omega  full diag
   1   -103.9659457 -0.103966E+03  0.814E-02    1.56       0.0  T
   2   -103.9659893 -0.435883E-04  0.475E-02    1.57       1.0  T
   3   -103.9659863  0.300449E-05  0.239E-02    1.58       1.0  T
   4   -103.9660009 -0.146106E-04  0.567E-03    1.58       2.2  T
   5   -103.9660026 -0.166526E-05  0.265E-03    1.58       4.6  T
   6   -103.9660027 -0.876267E-07  0.974E-04    1.58      12.6  T
   7   -103.9660027 -0.411997E-07  0.284E-04    1.58      43.3  T
     SCC iter.                  ...        0 min,  0.035 sec
     gradient                   ...        0 min,  0.081 sec
 * total energy  :  -102.6715172 Eh     change       -0.7664584E-03 Eh
   gradient norm :     0.0092930 Eh/α   predicted    -0.6244437E-03 ( -18.53%)
   displ. norm   :     0.2517780 α      lambda       -0.4726100E-03
   maximum displ.:     0.1013490 α      in ANC's #18, #5, #25, ...

........................................................................
.............................. CYCLE    6 ..............................
........................................................................

 iter      E             dE          RMSdq      gap      omega  full diag
   1   -103.9662406 -0.103966E+03  0.577E-02    1.57       0.0  T
   2   -103.9662655 -0.249240E-04  0.339E-02    1.57       1.0  T
   3   -103.9662652  0.317252E-06  0.179E-02    1.58       1.0  T
   4   -103.9662727 -0.745956E-05  0.447E-03    1.58       2.8  T
   5   -103.9662738 -0.108239E-05  0.159E-03    1.58       7.7  T
   6   -103.9662738 -0.235656E-07  0.736E-04    1.58      16.7  T
   7   -103.9662738 -0.156557E-07  0.220E-04    1.58      55.9  T
     SCC iter.                  ...        0 min,  0.074 sec
     gradient                   ...        0 min,  0.060 sec
 * total energy  :  -102.6718519 Eh     change       -0.3346353E-03 Eh
   gradient norm :     0.0077885 Eh/α   predicted    -0.2512950E-03 ( -24.90%)
   displ. norm   :     0.2117814 α      lambda       -0.2782229E-03
   maximum displ.:     0.0887754 α      in ANC's #5, #12, #18, ...

........................................................................
.............................. CYCLE    7 ..............................
........................................................................

 iter      E             dE          RMSdq      gap      omega  full diag
   1   -103.9679464 -0.103968E+03  0.478E-02    1.58       0.0  T
   2   -103.9679602 -0.137377E-04  0.280E-02    1.58       1.0  T
   3   -103.9679584  0.181544E-05  0.148E-02    1.59       1.0  T
   4   -103.9679649 -0.655824E-05  0.372E-03    1.58       3.3  T
   5   -103.9679655 -0.571053E-06  0.141E-03    1.58       8.7  T
   6   -103.9679655 -0.163960E-07  0.620E-04    1.58      19.9  T
   7   -103.9679655 -0.130279E-07  0.192E-04    1.58      64.2  T
     SCC iter.                  ...        0 min,  0.035 sec
     gradient                   ...        0 min,  0.081 sec
 * total energy  :  -102.6720453 Eh     change       -0.1933918E-03 Eh
   gradient norm :     0.0054325 Eh/α   predicted    -0.1453583E-03 ( -24.84%)
   displ. norm   :     0.1681197 α      lambda       -0.1463877E-03
   maximum displ.:     0.0819320 α      in ANC's #5, #12, #8, ...

........................................................................
.............................. CYCLE    8 ..............................
........................................................................

 iter      E             dE          RMSdq      gap      omega  full diag
   1   -103.9695745 -0.103970E+03  0.352E-02    1.59       0.0  T
   2   -103.9695787 -0.424168E-05  0.203E-02    1.59       1.0  T
   3   -103.9695761  0.266234E-05  0.103E-02    1.59       1.2  T
   4   -103.9695806 -0.457038E-05  0.218E-03    1.59       5.6  T
   5   -103.9695808 -0.136863E-06  0.937E-04    1.59      13.1  T
   6   -103.9695808 -0.132121E-07  0.373E-04    1.59      33.0  T
     SCC iter.                  ...        0 min,  0.079 sec
     gradient                   ...        0 min,  0.058 sec
 * total energy  :  -102.6721499 Eh     change       -0.1045797E-03 Eh
   gradient norm :     0.0035969 Eh/α   predicted    -0.7530124E-04 ( -28.00%)
   displ. norm   :     0.1645152 α      lambda       -0.1032377E-03
   maximum displ.:     0.0841966 α      in ANC's #5, #12, #8, ...

........................................................................
.............................. CYCLE    9 ..............................
........................................................................

 iter      E             dE          RMSdq      gap      omega  full diag
   1   -103.9704268 -0.103970E+03  0.313E-02    1.60       0.0  T
   2   -103.9704286 -0.176404E-05  0.180E-02    1.60       1.0  T
   3   -103.9704263  0.232535E-05  0.783E-03    1.60       1.6  T
   4   -103.9704295 -0.319485E-05  0.138E-03    1.60       8.9  T
   5   -103.9704295 -0.463807E-07  0.670E-04    1.60      18.4  T
   6   -103.9704295 -0.101338E-07  0.275E-04    1.60      44.8  T
     SCC iter.                  ...        0 min,  0.030 sec
     gradient                   ...        0 min,  0.102 sec
 * total energy  :  -102.6722276 Eh     change       -0.7778093E-04 Eh
   gradient norm :     0.0032281 Eh/α   predicted    -0.5301661E-04 ( -31.84%)
   displ. norm   :     0.2053376 α      lambda       -0.1050988E-03
   maximum displ.:     0.1054588 α      in ANC's #5, #12, #8, ...

........................................................................
.............................. CYCLE   10 ..............................
........................................................................

 iter      E             dE          RMSdq      gap      omega  full diag
   1   -103.9705061 -0.103971E+03  0.366E-02    1.61       0.0  T
   2   -103.9705077 -0.161041E-05  0.211E-02    1.60       1.0  T
   3   -103.9705056  0.210152E-05  0.714E-03    1.60       1.7  T
   4   -103.9705084 -0.275222E-05  0.139E-03    1.60       8.9  T
   5   -103.9705084 -0.528085E-07  0.712E-04    1.60      17.3  T
   6   -103.9705084 -0.724742E-08  0.317E-04    1.60      38.8  T
     SCC iter.                  ...        0 min,  0.056 sec
     gradient                   ...        0 min,  0.060 sec
 * total energy  :  -102.6723072 Eh     change       -0.7961036E-04 Eh
   gradient norm :     0.0039720 Eh/α   predicted    -0.5477907E-04 ( -31.19%)
   displ. norm   :     0.2352870 α      lambda       -0.1025261E-03
   maximum displ.:     0.1221770 α      in ANC's #5, #12, #8, ...

........................................................................
.............................. CYCLE   11 ..............................
........................................................................

 iter      E             dE          RMSdq      gap      omega  full diag
   1   -103.9699323 -0.103970E+03  0.402E-02    1.61       0.0  T
   2   -103.9699338 -0.151406E-05  0.233E-02    1.61       1.0  T
   3   -103.9699319  0.185744E-05  0.664E-03    1.61       1.9  T
   4   -103.9699343 -0.240148E-05  0.154E-03    1.60       8.0  T
   5   -103.9699344 -0.595738E-07  0.770E-04    1.60      16.0  T
   6   -103.9699344 -0.696660E-08  0.311E-04    1.60      39.6  T
     SCC iter.                  ...        0 min,  0.030 sec
     gradient                   ...        0 min,  0.103 sec
 * total energy  :  -102.6723843 Eh     change       -0.7708785E-04 Eh
   gradient norm :     0.0044131 Eh/α   predicted    -0.5410132E-04 ( -29.82%)
   displ. norm   :     0.2319306 α      lambda       -0.8992652E-04
   maximum displ.:     0.1242162 α      in ANC's #5, #12, #4, ...

........................................................................
.............................. CYCLE   12 ..............................
........................................................................

 iter      E             dE          RMSdq      gap      omega  full diag
   1   -103.9693701 -0.103969E+03  0.377E-02    1.61       0.0  T
   2   -103.9693713 -0.111145E-05  0.219E-02    1.60       1.0  T
   3   -103.9693699  0.138716E-05  0.567E-03    1.60       2.2  T
   4   -103.9693716 -0.177818E-05  0.142E-03    1.60       8.7  T
   5   -103.9693717 -0.483497E-07  0.687E-04    1.60      17.9  T
   6   -103.9693717 -0.702079E-08  0.236E-04    1.60      52.3  T
     SCC iter.                  ...        0 min,  0.030 sec
     gradient                   ...        0 min,  0.067 sec
 * total energy  :  -102.6724513 Eh     change       -0.6698883E-04 Eh
   gradient norm :     0.0039034 Eh/α   predicted    -0.4738913E-04 ( -29.26%)
   displ. norm   :     0.2048462 α      lambda       -0.7202281E-04
   maximum displ.:     0.1151892 α      in ANC's #5, #12, #4, ...

........................................................................
.............................. CYCLE   13 ..............................
........................................................................

 iter      E             dE          RMSdq      gap      omega  full diag
   1   -103.9691935 -0.103969E+03  0.314E-02    1.60       0.0  T
   2   -103.9691944 -0.945871E-06  0.183E-02    1.60       1.0  T
   3   -103.9691935  0.927916E-06  0.471E-03    1.60       2.6  T
   4   -103.9691947 -0.119729E-05  0.119E-03    1.60      10.3  T
   5   -103.9691947 -0.422262E-07  0.562E-04    1.60      21.9  T
   6   -103.9691948 -0.655801E-08  0.179E-04    1.60      68.6  T
     SCC iter.                  ...        0 min,  0.030 sec
     gradient                   ...        0 min,  0.078 sec
 * total energy  :  -102.6725048 Eh     change       -0.5344933E-04 Eh
   gradient norm :     0.0029270 Eh/α   predicted    -0.3752717E-04 ( -29.79%)
   displ. norm   :     0.1778150 α      lambda       -0.5541607E-04
   maximum displ.:     0.1039430 α      in ANC's #5, #4, #12, ...

........................................................................
.............................. CYCLE   14 ..............................
........................................................................

 iter      E             dE          RMSdq      gap      omega  full diag
   1   -103.9695648 -0.103970E+03  0.252E-02    1.60       0.0  T
   2   -103.9695655 -0.705872E-06  0.147E-02    1.60       1.0  T
   3   -103.9695651  0.422742E-06  0.346E-03    1.60       3.6  T
   4   -103.9695657 -0.567618E-06  0.110E-03    1.60      11.2  T
   5   -103.9695657 -0.362678E-07  0.464E-04    1.60      26.5  T
   6   -103.9695657 -0.658882E-08  0.148E-04    1.60      83.2  T
     SCC iter.                  ...        0 min,  0.069 sec
     gradient                   ...        0 min,  0.059 sec
 * total energy  :  -102.6725461 Eh     change       -0.4134031E-04 Eh
   gradient norm :     0.0025931 Eh/α   predicted    -0.2858563E-04 ( -30.85%)
   displ. norm   :     0.1683337 α      lambda       -0.4440749E-04
   maximum displ.:     0.0998033 α      in ANC's #5, #4, #3, ...

........................................................................
.............................. CYCLE   15 ..............................
........................................................................

 iter      E             dE          RMSdq      gap      omega  full diag
   1   -103.9699290 -0.103970E+03  0.225E-02    1.60       0.0  T
   2   -103.9699296 -0.622254E-06  0.130E-02    1.61       1.0  T
   3   -103.9699292  0.373940E-06  0.324E-03    1.61       3.8  T
   4   -103.9699297 -0.483863E-06  0.118E-03    1.61      10.5  T
   5   -103.9699298 -0.447623E-07  0.440E-04    1.61      28.0  T
   6   -103.9699298 -0.593546E-08  0.146E-04    1.61      84.3  T
     SCC iter.                  ...        0 min,  0.030 sec
     gradient                   ...        0 min,  0.080 sec
 * total energy  :  -102.6725803 Eh     change       -0.3421938E-04 Eh
   gradient norm :     0.0026615 Eh/α   predicted    -0.2283331E-04 ( -33.27%)
   displ. norm   :     0.1795010 α      lambda       -0.4462885E-04
   maximum displ.:     0.1044278 α      in ANC's #5, #4, #3, ...

........................................................................
.............................. CYCLE   16 ..............................
........................................................................

 iter      E             dE          RMSdq      gap      omega  full diag
   1   -103.9705896 -0.103971E+03  0.228E-02    1.61       0.0  T
   2   -103.9705901 -0.436438E-06  0.132E-02    1.61       1.0  T
   3   -103.9705898  0.247564E-06  0.285E-03    1.61       4.3  T
   4   -103.9705901 -0.296448E-06  0.125E-03    1.61       9.9  T
   5   -103.9705902 -0.623586E-07  0.384E-04    1.61      32.1  T
   6   -103.9705902 -0.195541E-08  0.137E-04    1.61      90.0  T
     SCC iter.                  ...        0 min,  0.030 sec
     gradient                   ...        0 min,  0.096 sec
 * total energy  :  -102.6726154 Eh     change       -0.3503054E-04 Eh
   gradient norm :     0.0030651 Eh/α   predicted    -0.2303450E-04 ( -34.24%)
   displ. norm   :     0.2329649 α      lambda       -0.5278706E-04
   maximum displ.:     0.1338703 α      in ANC's #5, #4, #3, ...

........................................................................
.............................. CYCLE   17 ..............................
........................................................................

 iter      E             dE          RMSdq      gap      omega  full diag
   1   -103.9704640 -0.103970E+03  0.283E-02    1.61       0.0  T
   2   -103.9704647 -0.772280E-06  0.165E-02    1.61       1.0  T
   3   -103.9704640  0.754899E-06  0.448E-03    1.61       2.7  T
   4   -103.9704649 -0.916018E-06  0.141E-03    1.61       8.7  T
   5   -103.9704650 -0.834892E-07  0.515E-04    1.61      23.9  T
   6   -103.9704650 -0.433413E-08  0.220E-04    1.61      55.8  T
     SCC iter.                  ...        0 min,  0.043 sec
     gradient                   ...        0 min,  0.058 sec
 * total energy  :  -102.6726567 Eh     change       -0.4132924E-04 Eh
   gradient norm :     0.0031058 Eh/α   predicted    -0.2782721E-04 ( -32.67%)
   displ. norm   :     0.2888766 α      lambda       -0.6521218E-04
   maximum displ.:     0.1578241 α      in ANC's #5, #4, #3, ...

........................................................................
.............................. CYCLE   18 ..............................
........................................................................

 iter      E             dE          RMSdq      gap      omega  full diag
   1   -103.9710069 -0.103971E+03  0.351E-02    1.62       0.0  T
   2   -103.9710080 -0.108794E-05  0.206E-02    1.62       1.0  T
   3   -103.9710073  0.659209E-06  0.478E-03    1.62       2.6  T
   4   -103.9710081 -0.837640E-06  0.151E-03    1.62       8.1  T
   5   -103.9710082 -0.845342E-07  0.569E-04    1.62      21.6  T
   6   -103.9710082 -0.258198E-08  0.260E-04    1.62      47.4  T
     SCC iter.                  ...        0 min,  0.030 sec
     gradient                   ...        0 min,  0.095 sec
 * total energy  :  -102.6727061 Eh     change       -0.4940018E-04 Eh
   gradient norm :     0.0039771 Eh/α   predicted    -0.3533217E-04 ( -28.48%)
   displ. norm   :     0.3431828 α      lambda       -0.7201215E-04
   maximum displ.:     0.1882069 α      in ANC's #5, #4, #3, ...

........................................................................
.............................. CYCLE   19 ..............................
........................................................................

 iter      E             dE          RMSdq      gap      omega  full diag
   1   -103.9699295 -0.103970E+03  0.397E-02    1.62       0.0  T
   2   -103.9699308 -0.138480E-05  0.234E-02    1.62       1.0  T
   3   -103.9699291  0.170892E-05  0.660E-03    1.62       1.9  T
   4   -103.9699312 -0.210673E-05  0.156E-03    1.62       7.9  T
   5   -103.9699313 -0.745370E-07  0.737E-04    1.62      16.7  T
   6   -103.9699313 -0.933329E-08  0.324E-04    1.62      38.0  T
     SCC iter.                  ...        0 min,  0.069 sec
     gradient                   ...        0 min,  0.091 sec
 * total energy  :  -102.6727601 Eh     change       -0.5405693E-04 Eh
   gradient norm :     0.0041743 Eh/α   predicted    -0.4024702E-04 ( -25.55%)
   displ. norm   :     0.3512750 α      lambda       -0.8530464E-04
   maximum displ.:     0.1783273 α      in ANC's #5, #3, #1, ...

........................................................................
.............................. CYCLE   20 ..............................
........................................................................

 iter      E             dE          RMSdq      gap      omega  full diag
   1   -103.9701788 -0.103970E+03  0.419E-02    1.61       0.0  T
   2   -103.9701802 -0.146283E-05  0.247E-02    1.62       1.0  T
   3   -103.9701787  0.156218E-05  0.669E-03    1.61       1.8  T
   4   -103.9701807 -0.198128E-05  0.170E-03    1.61       7.2  T
   5   -103.9701807 -0.582317E-07  0.774E-04    1.61      15.9  T
   6   -103.9701807 -0.803503E-08  0.346E-04    1.61      35.6  T
     SCC iter.                  ...        0 min,  0.030 sec
     gradient                   ...        0 min,  0.086 sec
 * total energy  :  -102.6728215 Eh     change       -0.6136367E-04 Eh
   gradient norm :     0.0043427 Eh/α   predicted    -0.4792073E-04 ( -21.91%)
   displ. norm   :     0.3280978 α      lambda       -0.7877911E-04
   maximum displ.:     0.1665615 α      in ANC's #5, #3, #1, ...
 * RMSD in coord.:     0.4322263 α      energy gain  -0.2025984E-01 Eh

generating ANC from exact Hessian ...
Using Lindh-Hessian (1995)
 Shifting diagonal of input Hessian by    9.9096659898382355E-003
 Lowest  eigenvalues of input Hessian
    0.000000    0.000000    0.000000    0.000000    0.000000    0.000000
    0.010000    0.010064    0.010162    0.010416    0.010780    0.010844
    0.010999    0.011532    0.011865    0.012245    0.012481    0.012730
 Highest eigenvalues
    2.086721    2.201354    2.355701    2.432542    2.721990    3.590599


........................................................................
.............................. CYCLE   21 ..............................
........................................................................

 iter      E             dE          RMSdq      gap      omega  full diag
   1   -103.9694085 -0.103969E+03  0.383E-02    1.61       0.0  T
   2   -103.9694100 -0.144503E-05  0.227E-02    1.61       1.0  T
   3   -103.9694083  0.170146E-05  0.692E-03    1.61       1.8  T
   4   -103.9694104 -0.211604E-05  0.168E-03    1.61       7.3  T
   5   -103.9694104 -0.652386E-07  0.783E-04    1.61      15.7  T
   6   -103.9694104 -0.903293E-08  0.314E-04    1.61      39.2  T
     SCC iter.                  ...        0 min,  0.030 sec
     gradient                   ...        0 min,  0.086 sec
 * total energy  :  -102.6728787 Eh     change       -0.5716161E-04 Eh
   gradient norm :     0.0040961 Eh/α   predicted     0.0000000E+00 (-100.00%)
   displ. norm   :     0.0340722 α      lambda       -0.4084680E-04
   maximum displ.:     0.0123289 α      in ANC's #19, #12, #3, ...

........................................................................
.............................. CYCLE   22 ..............................
........................................................................

 iter      E             dE          RMSdq      gap      omega  full diag
   1   -103.9705851 -0.103971E+03  0.889E-03    1.61       0.0  T
   2   -103.9705853 -0.168404E-06  0.516E-03    1.61       2.4  T
   3   -103.9705852  0.545160E-07  0.155E-03    1.61       7.9  T
   4   -103.9705853 -0.696461E-07  0.640E-04    1.61      19.2  T
   5   -103.9705853 -0.175314E-07  0.199E-04    1.61      61.9  T
     SCC iter.                  ...        0 min,  0.058 sec
     gradient                   ...        0 min,  0.058 sec
 * total energy  :  -102.6729125 Eh     change       -0.3384150E-04 Eh
   gradient norm :     0.0022900 Eh/α   predicted    -0.2120544E-04 ( -37.34%)
   displ. norm   :     0.0941153 α      lambda       -0.6238206E-04
   maximum displ.:     0.0344556 α      in ANC's #12, #19, #3, ...

........................................................................
.............................. CYCLE   23 ..............................
........................................................................

 iter      E             dE          RMSdq      gap      omega  full diag
   1   -103.9717315 -0.103972E+03  0.206E-02    1.61       0.0  T
   2   -103.9717321 -0.630469E-06  0.120E-02    1.61       1.0  T
   3   -103.9717317  0.389574E-06  0.350E-03    1.61       3.5  T
   4   -103.9717322 -0.472288E-06  0.130E-03    1.61       9.5  T
   5   -103.9717322 -0.705422E-07  0.390E-04    1.61      31.5  T
   6   -103.9717322 -0.470521E-09  0.189E-04    1.61      65.2  T
     SCC iter.                  ...        0 min,  0.030 sec
     gradient                   ...        0 min,  0.085 sec
 * total energy  :  -102.6729536 Eh     change       -0.4113157E-04 Eh
   gradient norm :     0.0017106 Eh/α   predicted    -0.3146761E-04 ( -23.50%)
   displ. norm   :     0.1351955 α      lambda       -0.2987216E-04
   maximum displ.:     0.0508104 α      in ANC's #12, #3, #19, ...

........................................................................
.............................. CYCLE   24 ..............................
........................................................................

 iter      E             dE          RMSdq      gap      omega  full diag
   1   -103.9716415 -0.103972E+03  0.258E-02    1.61       0.0  T
   2   -103.9716421 -0.604732E-06  0.151E-02    1.61       1.0  T
   3   -103.9716413  0.847353E-06  0.441E-03    1.61       2.8  T
   4   -103.9716423 -0.101494E-05  0.114E-03    1.61      10.8  T
   5   -103.9716423 -0.464548E-07  0.393E-04    1.61      31.3  T
   6   -103.9716423 -0.668379E-09  0.204E-04    1.61      60.3  T
     SCC iter.                  ...        0 min,  0.063 sec
     gradient                   ...        0 min,  0.058 sec
 * total energy  :  -102.6729850 Eh     change       -0.3138818E-04 Eh
   gradient norm :     0.0030858 Eh/α   predicted    -0.1516293E-04 ( -51.69%)
   displ. norm   :     0.1190323 α      lambda       -0.3580347E-04
   maximum displ.:     0.0452218 α      in ANC's #3, #12, #1, ...

........................................................................
.............................. CYCLE   25 ..............................
........................................................................

 iter      E             dE          RMSdq      gap      omega  full diag
   1   -103.9710763 -0.103971E+03  0.204E-02    1.61       0.0  T
   2   -103.9710766 -0.307822E-06  0.120E-02    1.61       1.0  T
   3   -103.9710760  0.630076E-06  0.371E-03    1.61       3.3  T
   4   -103.9710768 -0.757243E-06  0.667E-04    1.61      18.5  T
   5   -103.9710768 -0.784289E-08  0.307E-04    1.61      40.1  T
     SCC iter.                  ...        0 min,  0.025 sec
     gradient                   ...        0 min,  0.103 sec
 * total energy  :  -102.6730159 Eh     change       -0.3082760E-04 Eh
   gradient norm :     0.0029541 Eh/α   predicted    -0.1815638E-04 ( -41.10%)
   displ. norm   :     0.3086331 α      lambda       -0.8203972E-04
   maximum displ.:     0.1193401 α      in ANC's #3, #12, #1, ...

........................................................................
.............................. CYCLE   26 ..............................
........................................................................

 iter      E             dE          RMSdq      gap      omega  full diag
   1   -103.9692445 -0.103969E+03  0.506E-02    1.61       0.0  T
   2   -103.9692464 -0.190948E-05  0.298E-02    1.61       1.0  T
   3   -103.9692422  0.414909E-05  0.963E-03    1.61       1.3  T
   4   -103.9692472 -0.497967E-05  0.152E-03    1.61       8.1  T
   5   -103.9692473 -0.358995E-07  0.759E-04    1.61      16.2  T
   6   -103.9692473 -0.114092E-07  0.338E-04    1.61      36.4  T
     SCC iter.                  ...        0 min,  0.057 sec
     gradient                   ...        0 min,  0.060 sec
 * total energy  :  -102.6730690 Eh     change       -0.5311711E-04 Eh
   gradient norm :     0.0037095 Eh/α   predicted    -0.4496474E-04 ( -15.35%)
   displ. norm   :     0.1562061 α      lambda       -0.3833975E-04
   maximum displ.:     0.0657690 α      in ANC's #3, #12, #1, ...

........................................................................
.............................. CYCLE   27 ..............................
........................................................................

 iter      E             dE          RMSdq      gap      omega  full diag
   1   -103.9690853 -0.103969E+03  0.235E-02    1.62       0.0  T
   2   -103.9690857 -0.469932E-06  0.139E-02    1.61       1.0  T
   3   -103.9690848  0.977638E-06  0.474E-03    1.61       2.6  T
   4   -103.9690859 -0.117759E-05  0.675E-04    1.61      18.2  T
   5   -103.9690860 -0.952072E-08  0.371E-04    1.61      33.1  T
   6   -103.9690860 -0.383261E-08  0.154E-04    1.61      80.0  T
     SCC iter.                  ...        0 min,  0.030 sec
     gradient                   ...        0 min,  0.084 sec
 * total energy  :  -102.6731014 Eh     change       -0.3244698E-04 Eh
   gradient norm :     0.0036672 Eh/α   predicted    -0.1971005E-04 ( -39.25%)
   displ. norm   :     0.2834296 α      lambda       -0.1008256E-03
   maximum displ.:     0.1267835 α      in ANC's #3, #1, #12, ...

........................................................................
.............................. CYCLE   28 ..............................
........................................................................

 iter      E             dE          RMSdq      gap      omega  full diag
   1   -103.9700472 -0.103970E+03  0.404E-02    1.62       0.0  T
   2   -103.9700490 -0.180490E-05  0.238E-02    1.62       1.0  T
   3   -103.9700462  0.279290E-05  0.852E-03    1.62       1.4  T
   4   -103.9700496 -0.344644E-05  0.139E-03    1.61       8.9  T
   5   -103.9700497 -0.566818E-07  0.698E-04    1.62      17.6  T
   6   -103.9700497 -0.126506E-07  0.300E-04    1.62      41.0  T
     SCC iter.                  ...        0 min,  0.030 sec
     gradient                   ...        0 min,  0.079 sec
 * total energy  :  -102.6731756 Eh     change       -0.7421647E-04 Eh
   gradient norm :     0.0031885 Eh/α   predicted    -0.5446504E-04 ( -26.61%)
   displ. norm   :     0.3365031 α      lambda       -0.7756060E-04
   maximum displ.:     0.1509792 α      in ANC's #3, #1, #12, ...

........................................................................
.............................. CYCLE   29 ..............................
........................................................................

 iter      E             dE          RMSdq      gap      omega  full diag
   1   -103.9694820 -0.103969E+03  0.451E-02    1.62       0.0  T
   2   -103.9694841 -0.212271E-05  0.266E-02    1.62       1.0  T
   3   -103.9694806  0.352433E-05  0.945E-03    1.62       1.3  T
   4   -103.9694849 -0.430446E-05  0.157E-03    1.62       7.8  T
   5   -103.9694850 -0.661980E-07  0.746E-04    1.62      16.5  T
   6   -103.9694850 -0.124581E-07  0.349E-04    1.62      35.3  T
     SCC iter.                  ...        0 min,  0.030 sec
     gradient                   ...        0 min,  0.099 sec
 * total energy  :  -102.6732350 Eh     change       -0.5940563E-04 Eh
   gradient norm :     0.0043677 Eh/α   predicted    -0.4317484E-04 ( -27.32%)
   displ. norm   :     0.3365258 α      lambda       -0.1042100E-03
   maximum displ.:     0.1617325 α      in ANC's #3, #1, #12, ...

........................................................................
.............................. CYCLE   30 ..............................
........................................................................

 iter      E             dE          RMSdq      gap      omega  full diag
   1   -103.9707994 -0.103971E+03  0.421E-02    1.62       0.0  T
   2   -103.9708018 -0.233675E-05  0.247E-02    1.62       1.0  T
   3   -103.9707991  0.263297E-05  0.871E-03    1.62       1.4  T
   4   -103.9708024 -0.329858E-05  0.201E-03    1.62       6.1  T
   5   -103.9708025 -0.107791E-06  0.821E-04    1.62      15.0  T
   6   -103.9708025 -0.114569E-07  0.379E-04    1.62      32.5  T
     SCC iter.                  ...        0 min,  0.030 sec
     gradient                   ...        0 min,  0.081 sec
 * total energy  :  -102.6733109 Eh     change       -0.7587253E-04 Eh
   gradient norm :     0.0042197 Eh/α   predicted    -0.5800619E-04 ( -23.55%)
   displ. norm   :     0.5283268 α      lambda       -0.1195706E-03
   maximum displ.:     0.2463971 α      in ANC's #3, #1, #8, ...

........................................................................
.............................. CYCLE   31 ..............................
........................................................................

 iter      E             dE          RMSdq      gap      omega  full diag
   1   -103.9675861 -0.103968E+03  0.645E-02    1.62       0.0  T
   2   -103.9675905 -0.435156E-05  0.381E-02    1.62       1.0  T
   3   -103.9675841  0.638622E-05  0.129E-02    1.62       1.0  T
   4   -103.9675919 -0.777235E-05  0.239E-03    1.62       5.2  T
   5   -103.9675920 -0.144075E-06  0.104E-03    1.62      11.8  T
   6   -103.9675920 -0.176282E-07  0.530E-04    1.62      23.2  T
   7   -103.9675920 -0.734056E-08  0.198E-04    1.62      62.1  T
     SCC iter.                  ...        0 min,  0.035 sec
     gradient                   ...        0 min,  0.092 sec
 * total energy  :  -102.6733842 Eh     change       -0.7325164E-04 Eh
   gradient norm :     0.0068815 Eh/α   predicted    -0.7647385E-04 (   4.40%)
   displ. norm   :     0.2987251 α      lambda       -0.1934079E-03
   maximum displ.:     0.1478009 α      in ANC's #3, #1, #5, ...

........................................................................
.............................. CYCLE   32 ..............................
........................................................................

 iter      E             dE          RMSdq      gap      omega  full diag
   1   -103.9699002 -0.103970E+03  0.371E-02    1.61       0.0  T
   2   -103.9699019 -0.168894E-05  0.218E-02    1.62       1.0  T
   3   -103.9699010  0.904164E-06  0.561E-03    1.62       2.2  T
   4   -103.9699022 -0.115952E-05  0.185E-03    1.62       6.6  T
   5   -103.9699023 -0.106589E-06  0.668E-04    1.62      18.4  T
   6   -103.9699023 -0.381608E-08  0.284E-04    1.62      43.3  T
     SCC iter.                  ...        0 min,  0.065 sec
     gradient                   ...        0 min,  0.101 sec
 * total energy  :  -102.6735239 Eh     change       -0.1397264E-03 Eh
   gradient norm :     0.0045300 Eh/α   predicted    -0.1053336E-03 ( -24.61%)
   displ. norm   :     0.4843843 α      lambda       -0.1621455E-03
   maximum displ.:     0.2431154 α      in ANC's #3, #1, #5, ...

........................................................................
.............................. CYCLE   33 ..............................
........................................................................

 iter      E             dE          RMSdq      gap      omega  full diag
   1   -103.9688720 -0.103969E+03  0.538E-02    1.61       0.0  T
   2   -103.9688746 -0.260352E-05  0.322E-02    1.62       1.0  T
   3   -103.9688707  0.393311E-05  0.103E-02    1.62       1.2  T
   4   -103.9688755 -0.476329E-05  0.185E-03    1.62       6.6  T
   5   -103.9688755 -0.873351E-07  0.860E-04    1.62      14.3  T
   6   -103.9688756 -0.760610E-08  0.436E-04    1.62      28.3  T
     SCC iter.                  ...        0 min,  0.030 sec
     gradient                   ...        0 min,  0.074 sec
 * total energy  :  -102.6736496 Eh     change       -0.1257218E-03 Eh
   gradient norm :     0.0062610 Eh/α   predicted    -0.1001053E-03 ( -20.38%)
   displ. norm   :     0.3824036 α      lambda       -0.2627966E-03
   maximum displ.:     0.1924393 α      in ANC's #3, #5, #1, ...

........................................................................
.............................. CYCLE   34 ..............................
........................................................................

 iter      E             dE          RMSdq      gap      omega  full diag
   1   -103.9738402 -0.103974E+03  0.556E-02    1.61       0.0  T
   2   -103.9738465 -0.622785E-05  0.332E-02    1.62       1.0  T
   3   -103.9738436  0.283424E-05  0.103E-02    1.62       1.2  T
   4   -103.9738473 -0.368503E-05  0.298E-03    1.62       4.1  T
   5   -103.9738476 -0.261250E-06  0.135E-03    1.62       9.1  T
   6   -103.9738476 -0.142440E-07  0.494E-04    1.62      24.9  T
   7   -103.9738476 -0.976713E-08  0.198E-04    1.62      62.2  T
     SCC iter.                  ...        0 min,  0.074 sec
     gradient                   ...        0 min,  0.097 sec
 * total energy  :  -102.6737491 Eh     change       -0.9951838E-04 Eh
   gradient norm :     0.0072799 Eh/α   predicted    -0.1506404E-03 (  51.37%)
   displ. norm   :     0.5799688 α      lambda       -0.2441203E-03
   maximum displ.:     0.2979802 α      in ANC's #3, #1, #5, ...

........................................................................
.............................. CYCLE   35 ..............................
........................................................................

 iter      E             dE          RMSdq      gap      omega  full diag
   1   -103.9678546 -0.103968E+03  0.676E-02    1.62       0.0  T
   2   -103.9678603 -0.565062E-05  0.399E-02    1.62       1.0  T
   3   -103.9678538  0.651049E-05  0.140E-02    1.62       1.0  T
   4   -103.9678619 -0.812018E-05  0.264E-03    1.62       4.7  T
   5   -103.9678621 -0.182790E-06  0.126E-03    1.62       9.8  T
   6   -103.9678621 -0.187593E-07  0.618E-04    1.62      19.9  T
   7   -103.9678621 -0.113517E-07  0.206E-04    1.62      59.8  T
     SCC iter.                  ...        0 min,  0.068 sec
     gradient                   ...        0 min,  0.057 sec
 * total energy  :  -102.6738653 Eh     change       -0.1162027E-03 Eh
   gradient norm :     0.0092662 Eh/α   predicted    -0.1631191E-03 (  40.37%)
   displ. norm   :     0.0660493 α      lambda       -0.1439006E-03
   maximum displ.:     0.0262186 α      in ANC's #8, #12, #10, ...

........................................................................
.............................. CYCLE   36 ..............................
........................................................................

 iter      E             dE          RMSdq      gap      omega  full diag
   1   -103.9697989 -0.103970E+03  0.175E-02    1.63       0.0  T
   2   -103.9697996 -0.718918E-06  0.103E-02    1.62       1.2  T
   3   -103.9697993  0.309716E-06  0.353E-03    1.62       3.5  T
   4   -103.9697997 -0.417002E-06  0.992E-04    1.62      12.4  T
   5   -103.9697998 -0.481297E-07  0.399E-04    1.62      30.9  T
     SCC iter.                  ...        0 min,  0.025 sec
     gradient                   ...        0 min,  0.092 sec
 * total energy  :  -102.6739726 Eh     change       -0.1072614E-03 Eh
   gradient norm :     0.0053898 Eh/α   predicted    -0.7226837E-04 ( -32.62%)
   displ. norm   :     0.4160035 α      lambda       -0.2438188E-03
   maximum displ.:     0.2322994 α      in ANC's #3, #1, #5, ...

........................................................................
.............................. CYCLE   37 ..............................
........................................................................

 iter      E             dE          RMSdq      gap      omega  full diag
   1   -103.9707543 -0.103971E+03  0.500E-02    1.63       0.0  T
   2   -103.9707590 -0.465662E-05  0.292E-02    1.62       1.0  T
   3   -103.9707534  0.553597E-05  0.133E-02    1.62       1.0  T
   4   -103.9707607 -0.730395E-05  0.259E-03    1.62       4.8  T
   5   -103.9707609 -0.202881E-06  0.118E-03    1.62      10.4  T
   6   -103.9707610 -0.344721E-07  0.501E-04    1.62      24.6  T
   7   -103.9707610 -0.507407E-08  0.170E-04    1.62      72.5  T
     SCC iter.                  ...        0 min,  0.074 sec
     gradient                   ...        0 min,  0.089 sec
 * total energy  :  -102.6741551 Eh     change       -0.1825263E-03 Eh
   gradient norm :     0.0043729 Eh/α   predicted    -0.1430096E-03 ( -21.65%)
   displ. norm   :     0.5798952 α      lambda       -0.2160083E-03
   maximum displ.:     0.3212322 α      in ANC's #3, #1, #5, ...

........................................................................
.............................. CYCLE   38 ..............................
........................................................................

 iter      E             dE          RMSdq      gap      omega  full diag
   1   -103.9698632 -0.103970E+03  0.613E-02    1.62       0.0  T
   2   -103.9698681 -0.488005E-05  0.360E-02    1.62       1.0  T
   3   -103.9698607  0.732687E-05  0.144E-02    1.62       1.0  T
   4   -103.9698699 -0.917356E-05  0.281E-03    1.62       4.4  T
   5   -103.9698701 -0.220989E-06  0.125E-03    1.62       9.9  T
   6   -103.9698702 -0.339687E-07  0.573E-04    1.62      21.5  T
   7   -103.9698702 -0.687871E-08  0.180E-04    1.62      68.3  T
     SCC iter.                  ...        0 min,  0.035 sec
     gradient                   ...        0 min,  0.091 sec
 * total energy  :  -102.6743330 Eh     change       -0.1778512E-03 Eh
   gradient norm :     0.0067123 Eh/α   predicted    -0.1443291E-03 ( -18.85%)
   displ. norm   :     0.6093683 α      lambda       -0.3064050E-03
   maximum displ.:     0.3361385 α      in ANC's #3, #1, #5, ...

........................................................................
.............................. CYCLE   39 ..............................
........................................................................

 iter      E             dE          RMSdq      gap      omega  full diag
   1   -103.9708411 -0.103971E+03  0.661E-02    1.61       0.0  T
   2   -103.9708474 -0.625209E-05  0.387E-02    1.61       1.0  T
   3   -103.9708410  0.637955E-05  0.134E-02    1.62       1.0  T
   4   -103.9708489 -0.792364E-05  0.355E-03    1.61       3.5  T
   5   -103.9708494 -0.483871E-06  0.133E-03    1.61       9.3  T
   6   -103.9708494 -0.239157E-07  0.618E-04    1.61      19.9  T
   7   -103.9708494 -0.891140E-08  0.199E-04    1.61      61.7  T
     SCC iter.                  ...        0 min,  0.035 sec
     gradient                   ...        0 min,  0.087 sec
 * total energy  :  -102.6745568 Eh     change       -0.2238700E-03 Eh
   gradient norm :     0.0068878 Eh/α   predicted    -0.2100978E-03 (  -6.15%)
   displ. norm   :     0.5913238 α      lambda       -0.3094900E-03
   maximum displ.:     0.3302513 α      in ANC's #3, #1, #5, ...

........................................................................
.............................. CYCLE   40 ..............................
........................................................................

 iter      E             dE          RMSdq      gap      omega  full diag
   1   -103.9706126 -0.103971E+03  0.605E-02    1.60       0.0  T
   2   -103.9706185 -0.588449E-05  0.356E-02    1.61       1.0  T
   3   -103.9706137  0.474051E-05  0.115E-02    1.61       1.1  T
   4   -103.9706197 -0.595725E-05  0.305E-03    1.61       4.0  T
   5   -103.9706200 -0.363693E-06  0.117E-03    1.61      10.6  T
   6   -103.9706201 -0.170025E-07  0.566E-04    1.61      21.7  T
   7   -103.9706201 -0.684729E-08  0.179E-04    1.61      68.7  T
     SCC iter.                  ...        0 min,  0.068 sec
     gradient                   ...        0 min,  0.094 sec
 * total energy  :  -102.6747865 Eh     change       -0.2296512E-03 Eh
   gradient norm :     0.0069505 Eh/α   predicted    -0.2088574E-03 (  -9.05%)
   displ. norm   :     0.6326261 α      lambda       -0.2999857E-03
   maximum displ.:     0.3569954 α      in ANC's #3, #1, #5, ...

........................................................................
.............................. CYCLE   41 ..............................
........................................................................

 iter      E             dE          RMSdq      gap      omega  full diag
   1   -103.9683300 -0.103968E+03  0.652E-02    1.60       0.0  T
   2   -103.9683345 -0.448563E-05  0.385E-02    1.60       1.0  T
   3   -103.9683290  0.544946E-05  0.110E-02    1.60       1.1  T
   4   -103.9683358 -0.674065E-05  0.242E-03    1.60       5.1  T
   5   -103.9683360 -0.177811E-06  0.115E-03    1.60      10.7  T
   6   -103.9683360 -0.196251E-07  0.473E-04    1.60      26.0  T
   7   -103.9683360 -0.531058E-08  0.147E-04    1.60      83.5  T
     SCC iter.                  ...        0 min,  0.035 sec
     gradient                   ...        0 min,  0.093 sec
 * total energy  :  -102.6750133 Eh     change       -0.2268171E-03 Eh
   gradient norm :     0.0084328 Eh/α   predicted    -0.2100270E-03 (  -7.40%)
   displ. norm   :     0.5131407 α      lambda       -0.7283953E-03
   maximum displ.:     0.2090501 α      in ANC's #3, #12, #14, ...

........................................................................
.............................. CYCLE   42 ..............................
........................................................................

 iter      E             dE          RMSdq      gap      omega  full diag
   1   -103.9830783 -0.103983E+03  0.101E-01    1.58       0.0  T
   2   -103.9831141 -0.358355E-04  0.581E-02    1.60       1.0  T
   3   -103.9831083  0.577208E-05  0.198E-02    1.60       1.0  T
   4   -103.9831185 -0.101735E-04  0.626E-03    1.60       2.0  T
   5   -103.9831200 -0.154639E-05  0.260E-03    1.60       4.7  T
   6   -103.9831201 -0.430381E-07  0.117E-03    1.60      10.5  T
   7   -103.9831201 -0.386679E-07  0.451E-04    1.60      27.3  T
   8   -103.9831201 -0.280724E-08  0.232E-04    1.60      53.0  T
     SCC iter.                  ...        0 min,  0.067 sec
     gradient                   ...        0 min,  0.091 sec
 * total energy  :  -102.6742909 Eh     change        0.7224446E-03 Eh
   gradient norm :     0.0267376 Eh/α   predicted    -0.4601003E-03 (-163.69%)
   displ. norm   :     0.2305387 α      lambda       -0.1855083E-02
   maximum displ.:     0.0829886 α      in ANC's #3, #20, #1, ...
 * RMSD in coord.:     0.8311510 α      energy gain  -0.1469363E-02 Eh

generating ANC from exact Hessian ...
Using Lindh-Hessian (1995)
 Shifting diagonal of input Hessian by    9.9148390534494844E-003
 Lowest  eigenvalues of input Hessian
    0.000000    0.000000    0.000000    0.000000    0.000000    0.000000
    0.010000    0.010069    0.010131    0.010436    0.010834    0.010889
    0.011029    0.011579    0.011836    0.012206    0.012579    0.012813
 Highest eigenvalues
    2.096409    2.203863    2.363798    2.433157    2.708867    3.597978


........................................................................
.............................. CYCLE   43 ..............................
........................................................................

 iter      E             dE          RMSdq      gap      omega  full diag
   1   -103.9731163 -0.103973E+03  0.671E-02    1.61       0.0  T
   2   -103.9731346 -0.183738E-04  0.388E-02    1.60       1.0  T
   3   -103.9731313  0.328410E-05  0.152E-02    1.60       1.0  T
   4   -103.9731371 -0.573593E-05  0.459E-03    1.60       2.7  T
   5   -103.9731379 -0.801034E-06  0.188E-03    1.60       6.6  T
   6   -103.9731379 -0.263205E-07  0.878E-04    1.60      14.0  T
   7   -103.9731379 -0.191621E-07  0.335E-04    1.60      36.8  T
     SCC iter.                  ...        0 min,  0.062 sec
     gradient                   ...        0 min,  0.098 sec
 * total energy  :  -102.6752755 Eh     change       -0.9846632E-03 Eh
   gradient norm :     0.0071959 Eh/α   predicted     0.0000000E+00 (-100.00%)
   displ. norm   :     0.0519357 α      lambda       -0.5377707E-04
   maximum displ.:     0.0211289 α      in ANC's #9, #8, #6, ...

........................................................................
.............................. CYCLE   44 ..............................
........................................................................

 iter      E             dE          RMSdq      gap      omega  full diag
   1   -103.9734719 -0.103973E+03  0.153E-02    1.61       0.0  T
   2   -103.9734728 -0.933216E-06  0.893E-03    1.60       1.4  T
   3   -103.9734726  0.233345E-06  0.394E-03    1.60       3.1  T
   4   -103.9734730 -0.399179E-06  0.986E-04    1.60      12.5  T
   5   -103.9734730 -0.306897E-07  0.382E-04    1.60      32.2  T
     SCC iter.                  ...        0 min,  0.058 sec
     gradient                   ...        0 min,  0.097 sec
 * total energy  :  -102.6753510 Eh     change       -0.7550597E-04 Eh
   gradient norm :     0.0039735 Eh/α   predicted    -0.4950091E-04 ( -34.44%)
   displ. norm   :     0.1243245 α      lambda       -0.1134798E-03
   maximum displ.:     0.0552085 α      in ANC's #9, #8, #6, ...

........................................................................
.............................. CYCLE   45 ..............................
........................................................................

 iter      E             dE          RMSdq      gap      omega  full diag
   1   -103.9736774 -0.103974E+03  0.270E-02    1.61       0.0  T
   2   -103.9736802 -0.277754E-05  0.157E-02    1.61       1.0  T
   3   -103.9736795  0.740096E-06  0.725E-03    1.61       1.7  T
   4   -103.9736807 -0.128773E-05  0.181E-03    1.61       6.8  T
   5   -103.9736809 -0.109891E-06  0.745E-04    1.61      16.5  T
   6   -103.9736809 -0.139749E-07  0.267E-04    1.61      46.0  T
     SCC iter.                  ...        0 min,  0.030 sec
     gradient                   ...        0 min,  0.103 sec
 * total energy  :  -102.6754259 Eh     change       -0.7489389E-04 Eh
   gradient norm :     0.0025008 Eh/α   predicted    -0.5761741E-04 ( -23.07%)
   displ. norm   :     0.1357972 α      lambda       -0.6508360E-04
   maximum displ.:     0.0614249 α      in ANC's #9, #8, #6, ...

........................................................................
.............................. CYCLE   46 ..............................
........................................................................

 iter      E             dE          RMSdq      gap      omega  full diag
   1   -103.9735230 -0.103974E+03  0.247E-02    1.61       0.0  T
   2   -103.9735243 -0.137667E-05  0.144E-02    1.61       1.0  T
   3   -103.9735235  0.830727E-06  0.597E-03    1.61       2.1  T
   4   -103.9735247 -0.113847E-05  0.141E-03    1.61       8.7  T
   5   -103.9735247 -0.779362E-07  0.603E-04    1.61      20.4  T
   6   -103.9735247 -0.104692E-07  0.227E-04    1.61      54.2  T
     SCC iter.                  ...        0 min,  0.030 sec
     gradient                   ...        0 min,  0.097 sec
 * total energy  :  -102.6754779 Eh     change       -0.5191617E-04 Eh
   gradient norm :     0.0038690 Eh/α   predicted    -0.3314228E-04 ( -36.16%)
   displ. norm   :     0.2762289 α      lambda       -0.1135311E-03
   maximum displ.:     0.1258032 α      in ANC's #9, #8, #6, ...

........................................................................
.............................. CYCLE   47 ..............................
........................................................................

 iter      E             dE          RMSdq      gap      omega  full diag
   1   -103.9728468 -0.103973E+03  0.458E-02    1.62       0.0  T
   2   -103.9728498 -0.299769E-05  0.267E-02    1.62       1.0  T
   3   -103.9728470  0.280493E-05  0.950E-03    1.62       1.3  T
   4   -103.9728506 -0.358387E-05  0.221E-03    1.62       5.6  T
   5   -103.9728507 -0.173878E-06  0.972E-04    1.62      12.7  T
   6   -103.9728508 -0.240431E-07  0.407E-04    1.62      30.2  T
     SCC iter.                  ...        0 min,  0.075 sec
     gradient                   ...        0 min,  0.103 sec
 * total energy  :  -102.6755626 Eh     change       -0.8479245E-04 Eh
   gradient norm :     0.0054868 Eh/α   predicted    -0.6109729E-04 ( -27.94%)
   displ. norm   :     0.2648487 α      lambda       -0.9546303E-04
   maximum displ.:     0.1175669 α      in ANC's #9, #8, #6, ...

........................................................................
.............................. CYCLE   48 ..............................
........................................................................

 iter      E             dE          RMSdq      gap      omega  full diag
   1   -103.9723044 -0.103972E+03  0.411E-02    1.62       0.0  T
   2   -103.9723058 -0.139066E-05  0.241E-02    1.62       1.0  T
   3   -103.9723040  0.174057E-05  0.651E-03    1.62       1.9  T
   4   -103.9723062 -0.216114E-05  0.159E-03    1.62       7.8  T
   5   -103.9723063 -0.692828E-07  0.695E-04    1.62      17.7  T
   6   -103.9723063 -0.900931E-08  0.323E-04    1.62      38.1  T
     SCC iter.                  ...        0 min,  0.069 sec
     gradient                   ...        0 min,  0.103 sec
 * total energy  :  -102.6756342 Eh     change       -0.7158116E-04 Eh
   gradient norm :     0.0055526 Eh/α   predicted    -0.5108596E-04 ( -28.63%)
   displ. norm   :     0.2411240 α      lambda       -0.9275392E-04
   maximum displ.:     0.1040073 α      in ANC's #9, #8, #6, ...

........................................................................
.............................. CYCLE   49 ..............................
........................................................................

 iter      E             dE          RMSdq      gap      omega  full diag
   1   -103.9724659 -0.103972E+03  0.356E-02    1.62       0.0  T
   2   -103.9724667 -0.861456E-06  0.210E-02    1.62       1.0  T
   3   -103.9724660  0.771137E-06  0.430E-03    1.62       2.9  T
   4   -103.9724670 -0.100389E-05  0.126E-03    1.62       9.7  T
   5   -103.9724670 -0.392176E-07  0.527E-04    1.62      23.4  T
   6   -103.9724670 -0.150945E-08  0.236E-04    1.62      52.2  T
     SCC iter.                  ...        0 min,  0.075 sec
     gradient                   ...        0 min,  0.099 sec
 * total energy  :  -102.6757011 Eh     change       -0.6686687E-04 Eh
   gradient norm :     0.0043939 Eh/α   predicted    -0.4907418E-04 ( -26.61%)
   displ. norm   :     0.1637673 α      lambda       -0.6918260E-04
   maximum displ.:     0.0656695 α      in ANC's #3, #9, #5, ...

........................................................................
.............................. CYCLE   50 ..............................
........................................................................

 iter      E             dE          RMSdq      gap      omega  full diag
   1   -103.9732621 -0.103973E+03  0.244E-02    1.61       0.0  T
   2   -103.9732628 -0.668622E-06  0.144E-02    1.61       1.0  T
   3   -103.9732625  0.250668E-06  0.308E-03    1.61       4.0  T
   4   -103.9732628 -0.315571E-06  0.125E-03    1.61       9.8  T
   5   -103.9732629 -0.698751E-07  0.429E-04    1.61      28.7  T
   6   -103.9732629 -0.128345E-08  0.171E-04    1.61      71.8  T
     SCC iter.                  ...        0 min,  0.030 sec
     gradient                   ...        0 min,  0.098 sec
 * total energy  :  -102.6757493 Eh     change       -0.4822699E-04 Eh
   gradient norm :     0.0030774 Eh/α   predicted    -0.3563090E-04 ( -26.12%)
   displ. norm   :     0.1468341 α      lambda       -0.4023386E-04
   maximum displ.:     0.0645031 α      in ANC's #3, #5, #9, ...

........................................................................
.............................. CYCLE   51 ..............................
........................................................................

 iter      E             dE          RMSdq      gap      omega  full diag
   1   -103.9733947 -0.103973E+03  0.220E-02    1.61       0.0  T
   2   -103.9733951 -0.379774E-06  0.129E-02    1.61       1.0  T
   3   -103.9733950  0.112123E-06  0.238E-03    1.61       5.2  T
   4   -103.9733952 -0.159078E-06  0.101E-03    1.61      12.2  T
   5   -103.9733952 -0.324504E-07  0.339E-04    1.61      36.3  T
   6   -103.9733952 -0.569344E-09  0.135E-04    1.61      91.2  T
     SCC iter.                  ...        0 min,  0.030 sec
     gradient                   ...        0 min,  0.106 sec
 * total energy  :  -102.6757791 Eh     change       -0.2982242E-04 Eh
   gradient norm :     0.0026634 Eh/α   predicted    -0.2056244E-04 ( -31.05%)
   displ. norm   :     0.1315064 α      lambda       -0.3610308E-04
   maximum displ.:     0.0652020 α      in ANC's #3, #5, #4, ...

........................................................................
.............................. CYCLE   52 ..............................
........................................................................

 iter      E             dE          RMSdq      gap      omega  full diag
   1   -103.9737987 -0.103974E+03  0.196E-02    1.61       0.0  T
   2   -103.9737991 -0.435492E-06  0.113E-02    1.61       1.1  T
   3   -103.9737990  0.152905E-06  0.282E-03    1.61       4.4  T
   4   -103.9737992 -0.198127E-06  0.118E-03    1.61      10.4  T
   5   -103.9737992 -0.415495E-07  0.367E-04    1.61      33.6  T
   6   -103.9737992 -0.109033E-08  0.132E-04    1.61      92.9  T
     SCC iter.                  ...        0 min,  0.030 sec
     gradient                   ...        0 min,  0.099 sec
 * total energy  :  -102.6758055 Eh     change       -0.2637878E-04 Eh
   gradient norm :     0.0021255 Eh/α   predicted    -0.1839628E-04 ( -30.26%)
   displ. norm   :     0.1521297 α      lambda       -0.2953163E-04
   maximum displ.:     0.0776141 α      in ANC's #3, #5, #4, ...

........................................................................
.............................. CYCLE   53 ..............................
........................................................................

 iter      E             dE          RMSdq      gap      omega  full diag
   1   -103.9735632 -0.103974E+03  0.223E-02    1.61       0.0  T
   2   -103.9735637 -0.539206E-06  0.130E-02    1.61       1.0  T
   3   -103.9735632  0.464858E-06  0.378E-03    1.61       3.3  T
   4   -103.9735638 -0.583729E-06  0.109E-03    1.61      11.3  T
   5   -103.9735639 -0.300869E-07  0.429E-04    1.61      28.7  T
   6   -103.9735639 -0.290891E-08  0.164E-04    1.61      75.0  T
     SCC iter.                  ...        0 min,  0.069 sec
     gradient                   ...        0 min,  0.091 sec
 * total energy  :  -102.6758272 Eh     change       -0.2168159E-04 Eh
   gradient norm :     0.0018144 Eh/α   predicted    -0.1510795E-04 ( -30.32%)
   displ. norm   :     0.1776581 α      lambda       -0.2650433E-04
   maximum displ.:     0.0965086 α      in ANC's #3, #5, #11, ...

........................................................................
.............................. CYCLE   54 ..............................
........................................................................

 iter      E             dE          RMSdq      gap      omega  full diag
   1   -103.9743616 -0.103974E+03  0.254E-02    1.61       0.0  T
   2   -103.9743625 -0.862988E-06  0.145E-02    1.61       1.0  T
   3   -103.9743616  0.819093E-06  0.494E-03    1.61       2.5  T
   4   -103.9743627 -0.105392E-05  0.146E-03    1.61       8.4  T
   5   -103.9743627 -0.474824E-07  0.552E-04    1.61      22.3  T
   6   -103.9743627 -0.498268E-08  0.201E-04    1.61      61.1  T
     SCC iter.                  ...        0 min,  0.030 sec
     gradient                   ...        0 min,  0.090 sec
 * total energy  :  -102.6758488 Eh     change       -0.2162002E-04 Eh
   gradient norm :     0.0030495 Eh/α   predicted    -0.1344149E-04 ( -37.83%)
   displ. norm   :     0.1008661 α      lambda       -0.1954539E-04
   maximum displ.:     0.0559104 α      in ANC's #3, #5, #4, ...

........................................................................
.............................. CYCLE   55 ..............................
........................................................................

 iter      E             dE          RMSdq      gap      omega  full diag
   1   -103.9736478 -0.103974E+03  0.141E-02    1.61       0.0  T
   2   -103.9736479 -0.165253E-06  0.833E-03    1.61       1.5  T
   3   -103.9736477  0.260669E-06  0.241E-03    1.61       5.1  T
   4   -103.9736480 -0.316437E-06  0.565E-04    1.61      21.8  T
   5   -103.9736480 -0.964563E-08  0.254E-04    1.61      48.5  T
     SCC iter.                  ...        0 min,  0.025 sec
     gradient                   ...        0 min,  0.103 sec
 * total energy  :  -102.6758634 Eh     change       -0.1454083E-04 Eh
   gradient norm :     0.0025852 Eh/α   predicted    -0.9872960E-05 ( -32.10%)
   displ. norm   :     0.1042076 α      lambda       -0.2780986E-04
   maximum displ.:     0.0596300 α      in ANC's #3, #1, #5, ...

........................................................................
.............................. CYCLE   56 ..............................
........................................................................

 iter      E             dE          RMSdq      gap      omega  full diag
   1   -103.9735338 -0.103974E+03  0.153E-02    1.61       0.0  T
   2   -103.9735342 -0.424140E-06  0.876E-03    1.61       1.4  T
   3   -103.9735339  0.362360E-06  0.325E-03    1.61       3.8  T
   4   -103.9735344 -0.487671E-06  0.838E-04    1.61      14.7  T
   5   -103.9735344 -0.173939E-07  0.384E-04    1.61      32.0  T
     SCC iter.                  ...        0 min,  0.070 sec
     gradient                   ...        0 min,  0.090 sec
 * total energy  :  -102.6758854 Eh     change       -0.2200883E-04 Eh
   gradient norm :     0.0018895 Eh/α   predicted    -0.1405832E-04 ( -36.12%)
   displ. norm   :     0.2434289 α      lambda       -0.3209816E-04
   maximum displ.:     0.1376196 α      in ANC's #3, #1, #2, ...

........................................................................
.............................. CYCLE   57 ..............................
........................................................................

 iter      E             dE          RMSdq      gap      omega  full diag
   1   -103.9733819 -0.103973E+03  0.343E-02    1.61       0.0  T
   2   -103.9733838 -0.194475E-05  0.197E-02    1.61       1.0  T
   3   -103.9733823  0.153425E-05  0.668E-03    1.61       1.8  T
   4   -103.9733844 -0.207912E-05  0.171E-03    1.61       7.2  T
   5   -103.9733845 -0.693823E-07  0.797E-04    1.61      15.5  T
   6   -103.9733845 -0.184635E-07  0.259E-04    1.61      47.5  T
     SCC iter.                  ...        0 min,  0.030 sec
     gradient                   ...        0 min,  0.091 sec
 * total energy  :  -102.6759130 Eh     change       -0.2761922E-04 Eh
   gradient norm :     0.0023444 Eh/α   predicted    -0.1647239E-04 ( -40.36%)
   displ. norm   :     0.0777478 α      lambda       -0.1284131E-04
   maximum displ.:     0.0474949 α      in ANC's #3, #1, #2, ...

........................................................................
.............................. CYCLE   58 ..............................
........................................................................

 iter      E             dE          RMSdq      gap      omega  full diag
   1   -103.9735052 -0.103974E+03  0.880E-03    1.61       0.0  T
   2   -103.9735052 -0.683448E-07  0.515E-03    1.61       2.4  T
   3   -103.9735052  0.440223E-07  0.106E-03    1.61      11.6  T
   4   -103.9735052 -0.606790E-07  0.326E-04    1.61      37.8  T
   5   -103.9735052 -0.296798E-08  0.149E-04    1.61      82.5  T
     SCC iter.                  ...        0 min,  0.025 sec
     gradient                   ...        0 min,  0.081 sec
 * total energy  :  -102.6759246 Eh     change       -0.1160551E-04 Eh
   gradient norm :     0.0018753 Eh/α   predicted    -0.6461917E-05 ( -44.32%)
   displ. norm   :     0.2536860 α      lambda       -0.3145457E-04
   maximum displ.:     0.1571829 α      in ANC's #3, #1, #2, ...

........................................................................
.............................. CYCLE   59 ..............................
........................................................................

 iter      E             dE          RMSdq      gap      omega  full diag
   1   -103.9740246 -0.103974E+03  0.263E-02    1.60       0.0  T
   2   -103.9740252 -0.632009E-06  0.153E-02    1.60       1.0  T
   3   -103.9740247  0.517318E-06  0.332E-03    1.60       3.7  T
[...]
          coordinate file            : /rds/general/user/hgt20/home/callum/QDESCP/Vardenafil_rdkit_conf_17/Vardenafil_rdkit_conf_17.xyz
          omp threads                :                     1


           -------------------------------------------------
          |                 G F N 2 - x T B                 |
           -------------------------------------------------

        Reference                      10.1021/acs.jctc.8b01176
      * Hamiltonian:
        H0-scaling (s, p, d)           1.850000    2.230000    2.230000
        zeta-weighting                 0.500000
      * Dispersion:
        s8                             2.700000
        a1                             0.520000
        a2                             5.000000
        s9                             5.000000
      * Repulsion:
        kExp                           1.500000    1.000000
        rExp                           1.000000
      * Coulomb:
        alpha                          2.000000
        third order                    shell-resolved
        anisotropic                    true
        a3                             3.000000
        a5                             4.000000
        cn-shift                       1.200000
        cn-exp                         4.000000
        max-rad                        5.000000


          ...................................................
          :                      SETUP                      :
          :.................................................:
          :  # basis functions                 174          :
          :  # atomic orbitals                 173          :
          :  # shells                          101          :
          :  # electrons                       184          :
          :  max. iterations                   250          :
          :  Hamiltonian                  GFN2-xTB          :
          :  restarted?                      false          :
          :  GBSA solvation                  false          :
          :  PC potential                    false          :
          :  electronic temp.          300.0000000     K    :
          :  accuracy                    1.0000000          :
          :  -> integral cutoff          0.2500000E+02      :
          :  -> integral neglect         0.1000000E-07      :
          :  -> SCF convergence          0.1000000E-05 Eh   :
          :  -> wf. convergence          0.1000000E-03 e    :
          :  Broyden damping             0.4000000          :
          :  net charge                          0          :
          :  unpaired electrons                  2          :
          ...................................................

 iter      E             dE          RMSdq      gap      omega  full diag
   1   -103.5516342 -0.103552E+03  0.413E+00    0.72       0.0  T
   2   -103.7560689 -0.204435E+00  0.285E+00    0.56       1.0  T
   3   -103.6473210  0.108748E+00  0.199E+00    0.70       1.0  T
   4   -103.7025167 -0.551957E-01  0.144E+00    0.46       1.0  T
   5   -103.8140054 -0.111489E+00  0.878E-01    0.91       1.0  T
   6   -103.8331582 -0.191528E-01  0.698E-01    0.65       1.0  T
   7   -103.8591977 -0.260395E-01  0.441E-01    0.81       1.0  T
   8   -103.8739480 -0.147503E-01  0.296E-01    0.70       1.0  T
   9   -103.8713812  0.256682E-02  0.265E-01    0.74       1.0  T
  10   -103.7478949  0.123486E+00  0.923E-01    0.69       1.0  T
  11   -103.8794475 -0.131553E+00  0.155E-01    0.69       1.0  T
  12   -103.8811349 -0.168744E-02  0.491E-02    0.73       1.0  T
  13   -103.8723769  0.875803E-02  0.238E-01    0.72       1.0  T
  14   -103.8773137 -0.493681E-02  0.146E-01    0.72       1.0  T
  15   -103.8808620 -0.354832E-02  0.485E-02    0.72       1.0  T
  16   -103.8811361 -0.274085E-03  0.272E-02    0.72       1.0  T
  17   -103.8812490 -0.112881E-03  0.632E-03    0.72       1.9  T
  18   -103.8812522 -0.320755E-05  0.369E-03    0.72       3.3  T
  19   -103.8812545 -0.229687E-05  0.190E-03    0.72       6.5  T
  20   -103.8812549 -0.384794E-06  0.356E-04    0.72      34.6  T
  21   -103.8812549  0.378171E-07  0.579E-04    0.72      21.3  T

   *** convergence criteria satisfied after 21 iterations ***

         #    Occupation            Energy/Eh            Energy/eV
      -------------------------------------------------------------
         1        2.0000           -0.7652070             -20.8223
       ...           ...                  ...                  ...
        87        2.0000           -0.4015092             -10.9256
        88        2.0000           -0.3941166             -10.7245
        89        2.0000           -0.3914895             -10.6530
        90        1.9592           -0.3822098             -10.4005
        91        1.7975           -0.3805128             -10.3543
        92        1.2433           -0.3781326             -10.2895
        93        1.0000           -0.2690230              -7.3205 (HOMO)
        94        0.0000           -0.2425833              -6.6010 (LUMO)
        95                         -0.2328386              -6.3359
        96                         -0.2083717              -5.6701
        97                         -0.1803579              -4.9078
        98                         -0.1230871              -3.3494
       ...                                ...                  ...
       173                          1.2497888              34.0085
      -------------------------------------------------------------
                  HL-Gap            0.0264397 Eh            0.7195 eV
             Fermi-level           -0.3175068 Eh           -8.6398 eV

 transition dipole moment (au) for excitation:          92          93
     X       Y       Z   
   0.1994  -0.0736   0.0613  total (au/Debye):    0.221   0.562
 dE (eV)             :    2.969
 oscillator strength :  0.50327E-02

 SCC (total)                   0 d,  0 h,  0 min,  0.255 sec
 SCC setup                      ...        0 min,  0.001 sec (  0.285%)
 Dispersion                     ...        0 min,  0.001 sec (  0.410%)
 classical contributions        ...        0 min,  0.000 sec (  0.137%)
 integral evaluation            ...        0 min,  0.032 sec ( 12.404%)
 iterations                     ...        0 min,  0.121 sec ( 47.414%)
 molecular gradient             ...        0 min,  0.087 sec ( 34.057%)
 printout                       ...        0 min,  0.013 sec (  5.289%)

         :::::::::::::::::::::::::::::::::::::::::::::::::::::
         ::                     SUMMARY                     ::
         :::::::::::::::::::::::::::::::::::::::::::::::::::::
         :: total energy            -102.583550718474 Eh    ::
         :: gradient norm              0.128993251570 Eh/a0 ::
         :: HOMO-LUMO gap              0.719460256714 eV    ::
         ::.................................................::
         :: SCC energy              -103.880453872630 Eh    ::
         :: -> isotropic ES            0.133255797989 Eh    ::
         :: -> anisotropic ES          0.002690216314 Eh    ::
         :: -> anisotropic XC          0.039892045134 Eh    ::
         :: -> dispersion             -0.076545188892 Eh    ::
         :: repulsion energy           1.296903154155 Eh    ::
         :: add. restraining           0.000000000000 Eh    ::
         :: total charge              -0.000000000032 e     ::
         :::::::::::::::::::::::::::::::::::::::::::::::::::::

           -------------------------------------------------
          |                Property Printout                |
           -------------------------------------------------

    * Orbital Energies and Occupations

         #    Occupation            Energy/Eh            Energy/eV
      -------------------------------------------------------------
         1        2.0000           -0.7652070             -20.8223
       ...           ...                  ...                  ...
        81        2.0000           -0.4321076             -11.7582
        82        2.0000           -0.4278240             -11.6417
        83        2.0000           -0.4181967             -11.3797
        84        2.0000           -0.4139545             -11.2643
        85        2.0000           -0.4089118             -11.1271
        86        2.0000           -0.4069041             -11.0724
        87        2.0000           -0.4015092             -10.9256
        88        2.0000           -0.3941166             -10.7245
        89        2.0000           -0.3914895             -10.6530
        90        1.9592           -0.3822098             -10.4005
        91        1.7975           -0.3805128             -10.3543
        92        1.2433           -0.3781326             -10.2895
        93        1.0000           -0.2690230              -7.3205 (HOMO)
        94        0.0000           -0.2425833              -6.6010 (LUMO)
        95                         -0.2328386              -6.3359
        96                         -0.2083717              -5.6701
        97                         -0.1803579              -4.9078
        98                         -0.1230871              -3.3494
        99                         -0.1089399              -2.9644
       100                         -0.0969968              -2.6394
       101                         -0.0675968              -1.8394
       102                         -0.0591292              -1.6090
       103                         -0.0452565              -1.2315
       104                         -0.0314626              -0.8561
       ...                                ...                  ...
       173                          1.2497888              34.0085
      -------------------------------------------------------------
                  HL-Gap            0.0264397 Eh            0.7195 eV
             Fermi-level           -0.3175068 Eh           -8.6398 eV

     #   Z          covCN         q      C6AA      α(0)
     1   6 C        3.752    -0.105    22.573     6.775
     2   6 C        3.802    -0.052    21.509     6.603
     3   6 C        3.805    -0.070    21.836     6.652
     4   6 C        3.129     0.104    25.523     8.272
     5   7 N        1.926    -0.267    27.768     7.813
     6   6 C        3.151     0.076    26.040     8.347
     7   6 C        3.755    -0.116    22.773     6.804
     8   6 C        3.062    -0.014    28.291     8.722
     9   7 N        2.951     0.053    20.316     6.694
    10   7 N        2.769    -0.111    23.413     7.187
    11   6 C        2.857     0.125    25.262     8.238
    12   6 C        2.982    -0.039    28.961     8.828
    13   6 C        2.855     0.128    25.189     8.226
    14   6 C        2.918    -0.067    29.676     8.933
    15   6 C        2.955    -0.056    29.397     8.893
    16   6 C        2.965    -0.104    30.618     9.076
    17  16 S        3.883     1.076   104.486    17.204
    18   8 O        0.860    -0.551    24.933     6.695
    19   7 N        2.739    -0.257    26.673     7.670
    20   6 C        3.847     0.001    20.524     6.444
    21   6 C        3.766     0.001    20.595     6.468
    22   7 N        2.732    -0.129    23.795     7.245
    23   6 C        3.766     0.002    20.577     6.465
    24   6 C        3.860     0.004    20.472     6.435
    25   6 C        3.749    -0.003    20.703     6.490
    26   6 C        3.750    -0.114    22.754     6.803
    27   8 O        0.860    -0.557    25.082     6.715
    28   6 C        2.964    -0.044    29.092     8.847
    29   8 O        1.703    -0.296    18.923     5.873
    30   6 C        3.684     0.080    19.436     6.312
    31   6 C        3.750    -0.116    22.793     6.809
    32   7 N        1.844    -0.243    27.203     7.730
    33   6 C        2.777     0.266    22.516     7.772
    34   8 O        0.859    -0.381    21.306     6.189
    35   1 H        0.925     0.040     2.455     2.450
    36   1 H        0.925     0.043     2.411     2.428
    37   1 H        0.925     0.035     2.522     2.483
    38   1 H        0.924     0.044     2.394     2.420
    39   1 H        0.924     0.031     2.567     2.506
    40   1 H        0.924     0.044     2.400     2.423
    41   1 H        0.925     0.070     2.088     2.260
    42   1 H        0.925     0.066     2.133     2.284
    43   1 H        0.925     0.074     2.047     2.238
    44   1 H        0.925     0.066     2.133     2.284
    45   1 H        0.860     0.205     1.079     1.627
    46   1 H        0.926     0.043     2.415     2.430
    47   1 H        0.926     0.047     2.353     2.399
    48   1 H        0.925     0.075     2.036     2.231
    49   1 H        0.923     0.049     2.337     2.391
    50   1 H        0.924     0.060     2.204     2.322
    51   1 H        0.923     0.047     2.362     2.404
    52   1 H        0.924     0.053     2.281     2.362
    53   1 H        0.923     0.046     2.366     2.406
    54   1 H        0.923     0.037     2.485     2.465
    55   1 H        0.925     0.069     2.092     2.262
    56   1 H        0.924     0.051     2.312     2.378
    57   1 H        0.924     0.047     2.354     2.399
    58   1 H        0.925     0.048     2.343     2.394
    59   1 H        0.925     0.042     2.424     2.435
    60   1 H        0.925     0.044     2.400     2.423
    61   1 H        0.926     0.064     2.150     2.293
    62   1 H        0.924     0.051     2.302     2.373
    63   1 H        0.924     0.036     2.506     2.476
    64   1 H        0.925     0.052     2.301     2.372
    65   1 H        0.925     0.052     2.297     2.370
    66   1 H        0.925     0.048     2.349     2.397

 Mol. C6AA /au·bohr⁶  :      48251.862788
 Mol. C8AA /au·bohr⁸  :    1143600.134991
 Mol. α(0) /au        :        335.609268


Wiberg/Mayer (AO) data.
largest (>0.10) Wiberg bond orders for each atom

 ---------------------------------------------------------------------------
     #   Z sym  total        # sym  WBO       # sym  WBO       # sym  WBO
 ---------------------------------------------------------------------------
     1   6 C    3.995 --     2 C    1.019    36 H    0.987    37 H    0.987
                            35 H    0.986
     2   6 C    3.992 --     1 C    1.019     3 C    0.985    38 H    0.979
                            39 H    0.976
     3   6 C    3.992 --     4 C    1.017     2 C    0.985    41 H    0.970
                            40 H    0.964
     4   6 C    3.928 --     5 N    1.430     9 N    1.241     3 C    1.017
     5   7 N    3.036 --     4 C    1.430     6 C    1.295
     6   6 C    3.924 --     8 C    1.407     5 N    1.295     7 C    1.038
     7   6 C    3.987 --     6 C    1.038    43 H    0.976    42 H    0.965
                            44 H    0.963
     8   6 C    3.840 --     6 C    1.407     9 N    1.124    33 C    0.996
     9   7 N    3.632 --     4 C    1.241     8 C    1.124    10 N    1.033
    10   7 N    3.365 --    11 C    1.118     9 N    1.033    45 H    0.906
    11   6 C    3.905 --    32 N    1.409    12 C    1.129    10 N    1.118
    12   6 C    3.944 --    28 C    1.308    13 C    1.236    11 C    1.129
    13   6 C    3.912 --    14 C    1.422    12 C    1.236    29 O    1.044
    14   6 C    3.970 --    13 C    1.422    15 C    1.382    46 H    0.962
    15   6 C    3.912 --    14 C    1.382    16 C    1.369    47 H    0.966
    16   6 C    3.937 --    28 C    1.459    15 C    1.369    17 S    0.731
    17  16 S    5.027 --    18 O    1.647    27 O    1.638    19 N    0.931
                            16 C    0.731
    18   8 O    1.943 --    17 S    1.647    27 O    0.108
    19   7 N    3.211 --    24 C    0.999    20 C    0.996    17 S    0.931
    20   6 C    3.962 --    19 N    0.996    21 C    0.988    48 H    0.967
                            49 H    0.959
    21   6 C    3.973 --    22 N    1.008    20 C    0.988    50 H    0.970
                            51 H    0.954
    22   7 N    3.121 --    23 C    1.009    21 C    1.008    25 C    1.002
    23   6 C    3.976 --    22 N    1.009    24 C    0.989    52 H    0.970
                            53 H    0.954
    24   6 C    3.966 --    19 N    0.999    23 C    0.989    55 H    0.968
                            54 H    0.963
    25   6 C    3.972 --    22 N    1.002    26 C    0.997    57 H    0.970
                            56 H    0.970
    26   6 C    3.978 --    25 C    0.997    59 H    0.986    60 H    0.986
                            58 H    0.984
    27   8 O    1.933 --    17 S    1.638    18 O    0.108
    28   6 C    3.970 --    16 C    1.459    12 C    1.308    61 H    0.959
    29   8 O    2.215 --    13 C    1.044    30 C    0.957
    30   6 C    3.942 --    31 C    1.012    62 H    0.970    63 H    0.966
                            29 O    0.957
    31   6 C    3.992 --    30 C    1.012    64 H    0.986    66 H    0.984
                            65 H    0.983
    32   7 N    3.040 --    11 C    1.409    33 C    1.161    34 O    0.195
    33   6 C    3.899 --    34 O    1.586    32 N    1.161     8 C    0.996
    34   8 O    1.999 --    33 C    1.586    32 N    0.195
    35   1 H    0.998 --     1 C    0.986
    36   1 H    0.998 --     1 C    0.987
    37   1 H    0.999 --     1 C    0.987
    38   1 H    0.998 --     2 C    0.979
    39   1 H    0.999 --     2 C    0.976
    40   1 H    0.997 --     3 C    0.964
    41   1 H    0.994 --     3 C    0.970
    42   1 H    0.991 --     7 C    0.965
    43   1 H    0.993 --     7 C    0.976
    44   1 H    0.989 --     7 C    0.963
    45   1 H    0.957 --    10 N    0.906
    46   1 H    0.996 --    14 C    0.962
    47   1 H    0.997 --    15 C    0.966
    48   1 H    0.994 --    20 C    0.967
    49   1 H    0.990 --    20 C    0.959
    50   1 H    0.995 --    21 C    0.970
    51   1 H    0.980 --    21 C    0.954
    52   1 H    0.996 --    23 C    0.970
    53   1 H    0.982 --    23 C    0.954
    54   1 H    0.991 --    24 C    0.963
    55   1 H    0.995 --    24 C    0.968
    56   1 H    0.995 --    25 C    0.970
    57   1 H    0.996 --    25 C    0.970
    58   1 H    0.997 --    26 C    0.984
    59   1 H    0.998 --    26 C    0.986
    60   1 H    0.998 --    26 C    0.986
    61   1 H    0.994 --    28 C    0.959
    62   1 H    0.997 --    30 C    0.970
    63   1 H    0.998 --    30 C    0.966
    64   1 H    0.997 --    31 C    0.986
    65   1 H    0.997 --    31 C    0.983
    66   1 H    0.997 --    31 C    0.984
 ---------------------------------------------------------------------------

Topologies differ in total number of bonds
Writing topology from bond orders to xtbtopo.mol

molecular dipole:
                 x           y           z       tot (Debye)
 q only:       -1.067      -2.251      -2.087
   full:       -0.959      -2.844      -1.873       8.992
molecular quadrupole (traceless):
                xx          xy          yy          xz          yz          zz
 q only:       14.008       9.076      -9.625     -49.067      -1.201      -4.383
  q+dip:       15.045      13.264     -11.065     -50.699      -1.647      -3.980
   full:       12.294      14.210     -11.672     -51.571      -0.253      -0.622


           -------------------------------------------------
          | TOTAL ENERGY             -102.583550718474 Eh   |
          | GRADIENT NORM               0.128993251570 Eh/α |
          | HOMO-LUMO GAP               0.719460256714 eV   |
           -------------------------------------------------

------------------------------------------------------------------------
 * finished run on 2025/05/15 at 16:30:26.029     
------------------------------------------------------------------------
 total:
 * wall-time:     0 d,  0 h,  0 min,  0.276 sec
 *  cpu-time:     0 d,  0 h,  0 min,  0.212 sec
 * ratio c/w:     0.767 speedup
 SCF:
 * wall-time:     0 d,  0 h,  0 min,  0.255 sec
 *  cpu-time:     0 d,  0 h,  0 min,  0.192 sec
 * ratio c/w:     0.752 speedup


