52
 energy: -76.363519773689 gnorm: 0.000743254876 xtb: 6.7.1 (edcfbbe)
H            0.36541764452785       -0.55456578247412       -1.79587746334797
C            0.63275209826469       -0.46241006078427       -0.71752347594740
C            1.89302730802203        0.32749050979678       -0.59556715301912
N            2.00278364666721        1.67700228305867       -0.82315734247235
C            3.30162377019950        2.05274544504126       -0.61886518327559
C            4.03735873432958        0.89719552075863       -0.25072622114231
C            5.40082904700607        1.01201603757832        0.01633005076219
C            5.99087319314895        2.25192433094132       -0.08661282425963
C            5.25325467747123        3.38142691092389       -0.45020546138594
C            3.90356414130112        3.29884581935784       -0.72097867208871
C            3.10914929605849       -0.18429252304947       -0.24989094136606
C            3.28684559617877       -1.63654350089012        0.03294687709225
C            2.09658306328104       -2.38181619792370       -0.57494214857647
N            0.85238183108940       -1.77698886888228       -0.13147055212038
C           -0.30535767694158       -2.62203664603782       -0.33579409823553
C           -1.50895536559306       -2.04318203110813        0.40827854904247
C           -2.74545874095988       -2.92480303995840        0.25413120224484
C           -3.93407109025155       -2.32392930272534        0.99763296467910
C           -4.22933682594147       -0.91271554667736        0.48503705021574
C           -2.97183981084216       -0.02687795680402        0.66847933951500
C           -1.79595812316709       -0.63447395576911       -0.11231066038979
C           -0.53545898876902        0.21737905103120        0.00691830683206
H           -2.08746586416360       -0.69956629172968       -1.16671944557293
C           -3.27576787937517        1.36316944964181        0.17245173460513
O           -3.00293233496664        2.29269191850805        1.08835181480465
C           -3.27204781969064        3.64240067685887        0.72819000531316
O           -3.72757444999872        1.62059807941252       -0.92007282752702
O           -4.62558572559677       -1.00117167287640       -0.85574183207199
H           -1.24163169979113       -1.97284574423993        1.46808289824278
H            1.25744321960651        2.28811685605037       -1.10785678778920
H            5.97736436627931        0.14360072890238        0.29877610897193
H            7.04613856116166        2.36142494379781        0.11702933588334
H            5.75251821631421        4.33669834311343       -0.51970090358534
H            3.33322700015422        4.17240573893617       -1.00259676088123
H            3.31198723476932       -1.80932638731858        1.11252355313742
H            4.22124712753809       -2.00779469058691       -0.39272097843639
H            2.18071801806896       -2.37072496785536       -1.67657854038990
H            2.10433267831012       -3.42310643529031       -0.24552050014024
H           -0.55192088893903       -2.73079523590284       -1.40904468759870
H           -0.08093565474182       -3.61572507822512        0.05976942746048
H           -3.00374398701089       -3.00629090756649       -0.80259993415765
H           -2.54013461278235       -3.92669974976106        0.63501213794249
H           -3.73070312870522       -2.27837567732570        2.06859725016173
H           -4.81975910861540       -2.93840884602126        0.83600456424083
H           -5.04779875893299       -0.47374638274685        1.08657718780322
H           -2.72064968960330        0.03284536119795        1.73026286074929
H           -0.26853030299837        0.33962771554890        1.05833244672566
H           -0.70996444403704        1.20601157807610       -0.42342950453168
H           -2.83687502096712        3.86897595783950       -0.24715932525308
H           -2.82579891850616        4.26018428997296        1.50286237978075
H           -4.34954009143545        3.81099231365752        0.67906601445892
H           -4.56562346642732       -0.11675637947174       -1.25067983510130
