----- Optimization -----
      -----------------------------------------------------------      
     |                   =====================                   |     
     |                           x T B                           |     
     |                   =====================                   |     
     |                         S. Grimme                         |     
     |          Mulliken Center for Theoretical Chemistry        |     
     |                    University of Bonn                     |     
      -----------------------------------------------------------      

   * xtb version 6.7.1 (edcfbbe) compiled by 'conda@3ef47c1a292c' on 2024-11-25

   xtb is free software: you can redistribute it and/or modify it under
   the terms of the GNU Lesser General Public License as published by
   the Free Software Foundation, either version 3 of the License, or
   (at your option) any later version.
   
   xtb is distributed in the hope that it will be useful,
   but WITHOUT ANY WARRANTY; without even the implied warranty of
   MERCHANTABILITY or FITNESS FOR A PARTICULAR PURPOSE.  See the
   GNU Lesser General Public License for more details.
   
   Cite this work as:
   * C. Bannwarth, E. Caldeweyher, S. Ehlert, A. Hansen, P. Pracht,
     J. Seibert, S. Spicher, S. Grimme, WIREs Comput. Mol. Sci., 2020, 11,
     e01493. DOI: 10.1002/wcms.1493
   
   for GFN2-xTB:
   * C. Bannwarth, S. Ehlert and S. Grimme., J. Chem. Theory Comput., 2019,
     15, 1652-1671. DOI: 10.1021/acs.jctc.8b01176
   for GFN1-xTB:
   * S. Grimme, C. Bannwarth, P. Shushkov, J. Chem. Theory Comput., 2017,
     13, 1989-2009. DOI: 10.1021/acs.jctc.7b00118
   for GFN0-xTB:
   * P. Pracht, E. Caldeweyher, S. Ehlert, S. Grimme, ChemRxiv, 2019, preprint.
     DOI: 10.26434/chemrxiv.8326202.v1
   for GFN-FF:
   * S. Spicher and S. Grimme, Angew. Chem. Int. Ed., 2020, 59, 15665-15673.
     DOI: 10.1002/anie.202004239
   
   for ALPB and GBSA implicit solvation:
   * S. Ehlert, M. Stahn, S. Spicher, S. Grimme, J. Chem. Theory Comput.,
     2021, 17, 4250-4261. DOI: 10.1021/acs.jctc.1c00471
   
   for ddCOSMO and CPCM-X implicit solvation:
   * M. Stahn, S. Ehlert, S. Grimme, J. Phys. Chem. A,
     2023, XX, XXXX-XXXX. DOI: 10.1021/acs.jpca.3c04382
   
   for DFT-D4:
   * E. Caldeweyher, C. Bannwarth and S. Grimme, J. Chem. Phys., 2017,
     147, 034112. DOI: 10.1063/1.4993215
   * E. Caldeweyher, S. Ehlert, A. Hansen, H. Neugebauer, S. Spicher,
     C. Bannwarth and S. Grimme, J. Chem. Phys., 2019, 150, 154122.
     DOI: 10.1063/1.5090222
   * E. Caldeweyher, J.-M. Mewes, S. Ehlert and S. Grimme, Phys. Chem. Chem. Phys.
     2020, 22, 8499-8512. DOI: 10.1039/D0CP00502A
   
   for sTDA-xTB:
   * S. Grimme and C. Bannwarth, J. Chem. Phys., 2016, 145, 054103.
     DOI: 10.1063/1.4959605
   
   in the mass-spec context:
   * V. Asgeirsson, C. Bauer and S. Grimme, Chem. Sci., 2017, 8, 4879.
     DOI: 10.1039/c7sc00601b
   * J. Koopman and S. Grimme, ACS Omega 2019, 4, 12, 15120-15133.
     DOI: 10.1021/acsomega.9b02011
   
   for metadynamics refer to:
   * S. Grimme, J. Chem. Theory Comput., 2019, 155, 2847-2862
     DOI: 10.1021/acs.jctc.9b00143
   
   for SPH calculations refer to:
   * S. Spicher and S. Grimme, J. Chem. Theory Comput., 2021, 17, 1701-1714
     DOI: 10.1021/acs.jctc.0c01306
   
   for ONIOM refer to:
   * C. Plett, A. Katbashev, S. Ehlert, S. Grimme, M. Bursch,
     Phys. Chem. Chem. Phys., 2023, 25, 17860-17868. DOI: 10.1039/D3CP02178E
   
   for DIPRO refer to:
   * J. Kohn, N. Gildemeister, S. Grimme, D. Fazzi, A. Hansen,
     J. Chem. Phys., 2023, just accepted.
   
   for PTB refer to:
   * S. Grimme, M. Mueller, A. Hansen, J. Chem. Phys., 2023, 158, 124111.
     DOI: 10.1063/5.0137838
   
   with help from (in alphabetical order)
   P. Atkinson, C. Bannwarth, F. Bohle, G. Brandenburg, E. Caldeweyher
   M. Checinski, S. Dohm, S. Ehlert, S. Ehrlich, I. Gerasimov, C. Hölzer
   A. Katbashev, J. Kohn, J. Koopman, C. Lavigne, S. Lehtola, F. März, M. Müller,
   F. Musil, H. Neugebauer, J. Pisarek, C. Plett, P. Pracht, F. Pultar,
   J. Seibert, P. Shushkov, S. Spicher, M. Stahn, M. Steiner, T. Strunk,
   J. Stückrath, T. Rose, and J. Unsleber
   
 * started run on 2025/05/15 at 16:33:26.965     
   ID    Z sym.   atoms
    1    6 C      1-9, 12-15
    2    8 O      10, 11
    3    1 H      16-33

           -------------------------------------------------
          |                Calculation Setup                |
           -------------------------------------------------

          program call               : xtb /rds/general/user/hgt20/home/callum/QDESCP/Ibuprofen_rdkit_conf_13/Ibuprofen_rdkit_conf_13.xyz --opt normal --acc 1 --gfn 2 --chrg 0 --uhf 0 -P 1
          hostname                   : login-c
          coordinate file            : /rds/general/user/hgt20/home/callum/QDESCP/Ibuprofen_rdkit_conf_13/Ibuprofen_rdkit_conf_13.xyz
          omp threads                :                     1


           -------------------------------------------------
          |                 G F N 2 - x T B                 |
           -------------------------------------------------

        Reference                      10.1021/acs.jctc.8b01176
      * Hamiltonian:
        H0-scaling (s, p, d)           1.850000    2.230000    2.230000
        zeta-weighting                 0.500000
      * Dispersion:
        s8                             2.700000
        a1                             0.520000
        a2                             5.000000
        s9                             5.000000
      * Repulsion:
        kExp                           1.500000    1.000000
        rExp                           1.000000
      * Coulomb:
        alpha                          2.000000
        third order                    shell-resolved
        anisotropic                    true
        a3                             3.000000
        a5                             4.000000
        cn-shift                       1.200000
        cn-exp                         4.000000
        max-rad                        5.000000


          ...................................................
          :                      SETUP                      :
          :.................................................:
          :  # basis functions                  78          :
          :  # atomic orbitals                  78          :
          :  # shells                           48          :
          :  # electrons                        82          :
          :  max. iterations                   250          :
          :  Hamiltonian                  GFN2-xTB          :
          :  restarted?                      false          :
          :  GBSA solvation                  false          :
          :  PC potential                    false          :
          :  electronic temp.          300.0000000     K    :
          :  accuracy                    1.0000000          :
          :  -> integral cutoff          0.2500000E+02      :
          :  -> integral neglect         0.1000000E-07      :
          :  -> SCF convergence          0.1000000E-05 Eh   :
          :  -> wf. convergence          0.1000000E-03 e    :
          :  Broyden damping             0.4000000          :
          :  net charge                          0          :
          :  unpaired electrons                  0          :
          ...................................................

 iter      E             dE          RMSdq      gap      omega  full diag
   1    -45.7101758 -0.457102E+02  0.376E+00    4.37       0.0  T
   2    -45.7791928 -0.690170E-01  0.209E+00    4.04       1.0  T
   3    -45.7808932 -0.170045E-02  0.107E+00    4.19       1.0  T
   4    -45.7871301 -0.623687E-02  0.185E-01    3.82       1.0  T
   5    -45.7875249 -0.394842E-03  0.753E-02    3.85       1.0  T
   6    -45.7875618 -0.368536E-04  0.424E-02    3.86       1.0  T
   7    -45.7875878 -0.259980E-04  0.125E-02    3.87       1.4  T
   8    -45.7875897 -0.196523E-05  0.462E-03    3.87       3.8  T
   9    -45.7875900 -0.248481E-06  0.220E-03    3.87       7.9  T
  10    -45.7875900 -0.420855E-07  0.874E-04    3.87      19.9  T
  11    -45.7875900 -0.884803E-08  0.425E-04    3.87      41.0  T

   *** convergence criteria satisfied after 11 iterations ***

         #    Occupation            Energy/Eh            Energy/eV
      -------------------------------------------------------------
         1        2.0000           -0.7439226             -20.2432
       ...           ...                  ...                  ...
        35        2.0000           -0.4380969             -11.9212
        36        2.0000           -0.4271411             -11.6231
        37        2.0000           -0.4245909             -11.5537
        38        2.0000           -0.4196082             -11.4181
        39        2.0000           -0.4150896             -11.2952
        40        2.0000           -0.4014260             -10.9234
        41        2.0000           -0.3885087             -10.5719 (HOMO)
        42                         -0.2461754              -6.6988 (LUMO)
        43                         -0.2254439              -6.1346
        44                         -0.2212106              -6.0194
        45                         -0.1031371              -2.8065
        46                          0.0528900               1.4392
       ...                                ...                  ...
        78                          0.6186492              16.8343
      -------------------------------------------------------------
                  HL-Gap            0.1423333 Eh            3.8731 eV
             Fermi-level           -0.3173421 Eh           -8.6353 eV

 SCC (total)                   0 d,  0 h,  0 min,  0.036 sec
 SCC setup                      ...        0 min,  0.000 sec (  0.658%)
 Dispersion                     ...        0 min,  0.000 sec (  0.789%)
 classical contributions        ...        0 min,  0.000 sec (  0.255%)
 integral evaluation            ...        0 min,  0.009 sec ( 26.033%)
 iterations                     ...        0 min,  0.013 sec ( 37.364%)
 molecular gradient             ...        0 min,  0.012 sec ( 34.573%)
 printout                       ...        0 min,  0.000 sec (  0.307%)

         :::::::::::::::::::::::::::::::::::::::::::::::::::::
         ::                     SUMMARY                     ::
         :::::::::::::::::::::::::::::::::::::::::::::::::::::
         :: total energy             -45.164627017530 Eh    ::
         :: gradient norm              0.053058767114 Eh/a0 ::
         :: HOMO-LUMO gap              3.873085334268 eV    ::
         ::.................................................::
         :: SCC energy               -45.787441058151 Eh    ::
         :: -> isotropic ES            0.052742287145 Eh    ::
         :: -> anisotropic ES          0.007513019046 Eh    ::
         :: -> anisotropic XC          0.019710391643 Eh    ::
         :: -> dispersion             -0.028860750590 Eh    ::
         :: repulsion energy           0.622814040621 Eh    ::
         :: add. restraining           0.000000000000 Eh    ::
         :: total charge               0.000000000000 e     ::
         :::::::::::::::::::::::::::::::::::::::::::::::::::::

      ----------------------------------------------------------- 
     |                   =====================                   |
     |                        A N C O P T                        |
     |                   =====================                   |
     |               Approximate Normal Coordinate               |
     |                Rational Function Optimizer                |
      ----------------------------------------------------------- 
      ----------------------------------------------------------- 
     |                   =====================                   |
     |                        A N C O P T                        |
     |                   =====================                   |
     |               Approximate Normal Coordinate               |
     |                Rational Function Optimizer                |
      ----------------------------------------------------------- 

          ...................................................
          :                      SETUP                      :
          :.................................................:
          :   optimization level            normal          :
          :   max. optcycles                   200          :
          :   ANC micro-cycles                  20          :
          :   degrees of freedom                93          :
          :.................................................:
          :   RF solver                   davidson          :
          :   write xtbopt.log                true          :
          :   linear?                        false          :
          :   energy convergence         0.5000000E-05 Eh   :
          :   grad. convergence          0.1000000E-02 Eh/α :
          :   maxmium RF displ.          1.0000000          :
          :   Hlow (freq-cutoff)         0.1000000E-01      :
          :   Hmax (freq-cutoff)         5.0000000          :
          :   S6 in model hess.         20.0000000          :
          ...................................................

generating ANC from exact Hessian ...
Using Lindh-Hessian (1995)
 Shifting diagonal of input Hessian by    9.6495064823513572E-003
 Lowest  eigenvalues of input Hessian
    0.000000    0.000000    0.000000    0.000000    0.000000    0.000000
    0.010000    0.010428    0.010890    0.011750    0.011930    0.013221
    0.015714    0.017057    0.017920    0.018219    0.018434    0.018983
 Highest eigenvalues
    1.557117    1.691337    1.822989    1.895585    1.935036    2.242424


........................................................................
.............................. CYCLE    1 ..............................
........................................................................

 iter      E             dE          RMSdq      gap      omega  full diag
   1    -45.7875900 -0.457876E+02  0.192E-04    3.87       0.0  T
   2    -45.7875900 -0.318160E-09  0.124E-04    3.87     140.8  T
   3    -45.7875900 -0.215671E-09  0.755E-05    3.87     230.6  T
     SCC iter.                  ...        0 min,  0.004 sec
     gradient                   ...        0 min,  0.012 sec
 * total energy  :   -45.1646270 Eh     change       -0.1443908E-08 Eh
   gradient norm :     0.0530648 Eh/α   predicted     0.0000000E+00 (-100.00%)
   displ. norm   :     0.2519208 α      lambda       -0.6663254E-02
   maximum displ.:     0.0874703 α      in ANC's #54, #6, #18, ...

........................................................................
.............................. CYCLE    2 ..............................
........................................................................

 iter      E             dE          RMSdq      gap      omega  full diag
   1    -45.8217075 -0.458217E+02  0.165E-01    4.06       0.0  T
   2    -45.8217553 -0.477304E-04  0.977E-02    4.03       1.0  T
   3    -45.8217487  0.658066E-05  0.303E-02    4.04       1.0  T
   4    -45.8217605 -0.118116E-04  0.447E-03    4.03       3.9  T
   5    -45.8217607 -0.219112E-06  0.252E-03    4.03       6.9  T
   6    -45.8217607 -0.318906E-07  0.143E-03    4.03      12.1  T
   7    -45.8217608 -0.202974E-07  0.367E-04    4.03      47.4  T
   8    -45.8217608 -0.143599E-08  0.163E-04    4.03     107.1  T
     SCC iter.                  ...        0 min,  0.035 sec
     gradient                   ...        0 min,  0.012 sec
 * total energy  :   -45.1688181 Eh     change       -0.4191127E-02 Eh
   gradient norm :     0.0161075 Eh/α   predicted    -0.3543779E-02 ( -15.45%)
   displ. norm   :     0.2382945 α      lambda       -0.1666249E-02
   maximum displ.:     0.1388209 α      in ANC's #6, #5, #19, ...

........................................................................
.............................. CYCLE    3 ..............................
........................................................................

 iter      E             dE          RMSdq      gap      omega  full diag
   1    -45.8368580 -0.458369E+02  0.873E-02    4.09       0.0  T
   2    -45.8368705 -0.125326E-04  0.515E-02    4.08       1.0  T
   3    -45.8368687  0.182471E-05  0.154E-02    4.08       1.1  T
   4    -45.8368719 -0.319086E-05  0.314E-03    4.08       5.5  T
   5    -45.8368720 -0.185321E-06  0.166E-03    4.08      10.5  T
   6    -45.8368721 -0.324478E-07  0.872E-04    4.08      20.0  T
   7    -45.8368721 -0.718464E-08  0.248E-04    4.08      70.2  T
     SCC iter.                  ...        0 min,  0.008 sec
     gradient                   ...        0 min,  0.012 sec
 * total energy  :   -45.1697835 Eh     change       -0.9653679E-03 Eh
   gradient norm :     0.0091541 Eh/α   predicted    -0.8804368E-03 (  -8.80%)
   displ. norm   :     0.1910225 α      lambda       -0.5732176E-03
   maximum displ.:     0.1150437 α      in ANC's #6, #5, #12, ...

........................................................................
.............................. CYCLE    4 ..............................
........................................................................

 iter      E             dE          RMSdq      gap      omega  full diag
   1    -45.8385599 -0.458386E+02  0.606E-02    4.08       0.0  T
   2    -45.8385611 -0.120532E-05  0.358E-02    4.08       1.0  T
   3    -45.8385608  0.337650E-06  0.568E-03    4.08       3.1  T
   4    -45.8385615 -0.733715E-06  0.173E-03    4.08      10.1  T
   5    -45.8385615 -0.288620E-08  0.960E-04    4.08      18.1  T
   6    -45.8385615 -0.136039E-07  0.364E-04    4.08      47.8  T
     SCC iter.                  ...        0 min,  0.007 sec
     gradient                   ...        0 min,  0.013 sec
 * total energy  :   -45.1701549 Eh     change       -0.3714134E-03 Eh
   gradient norm :     0.0061299 Eh/α   predicted    -0.2970767E-03 ( -20.01%)
   displ. norm   :     0.1911953 α      lambda       -0.2894638E-03
   maximum displ.:     0.1256532 α      in ANC's #6, #5, #1, ...

........................................................................
.............................. CYCLE    5 ..............................
........................................................................

 iter      E             dE          RMSdq      gap      omega  full diag
   1    -45.8362092 -0.458362E+02  0.515E-02    4.06       0.0  T
   2    -45.8362097 -0.488749E-06  0.305E-02    4.06       1.0  T
   3    -45.8362097 -0.652517E-08  0.279E-03    4.06       6.2  T
   4    -45.8362098 -0.169333E-06  0.130E-03    4.06      13.4  T
   5    -45.8362099 -0.108847E-07  0.621E-04    4.06      28.1  T
   6    -45.8362099 -0.326303E-08  0.243E-04    4.06      71.7  T
     SCC iter.                  ...        0 min,  0.007 sec
     gradient                   ...        0 min,  0.036 sec
 * total energy  :   -45.1703456 Eh     change       -0.1907118E-03 Eh
   gradient norm :     0.0033539 Eh/α   predicted    -0.1500232E-03 ( -21.34%)
   displ. norm   :     0.1422048 α      lambda       -0.1160809E-03
   maximum displ.:     0.0816761 α      in ANC's #6, #5, #1, ...

........................................................................
.............................. CYCLE    6 ..............................
........................................................................

 iter      E             dE          RMSdq      gap      omega  full diag
   1    -45.8350076 -0.458350E+02  0.360E-02    4.06       0.0  T
   2    -45.8350078 -0.190496E-06  0.212E-02    4.06       1.0  T
   3    -45.8350078  0.245227E-07  0.201E-03    4.06       8.7  T
   4    -45.8350079 -0.903727E-07  0.767E-04    4.06      22.7  T
   5    -45.8350079 -0.310779E-08  0.392E-04    4.06      44.4  T
     SCC iter.                  ...        0 min,  0.006 sec
     gradient                   ...        0 min,  0.012 sec
 * total energy  :   -45.1704292 Eh     change       -0.8357659E-04 Eh
   gradient norm :     0.0022352 Eh/α   predicted    -0.5921475E-04 ( -29.15%)
   displ. norm   :     0.1425836 α      lambda       -0.8485222E-04
   maximum displ.:     0.0832818 α      in ANC's #5, #1, #6, ...

........................................................................
.............................. CYCLE    7 ..............................
........................................................................

 iter      E             dE          RMSdq      gap      omega  full diag
   1    -45.8348726 -0.458349E+02  0.350E-02    4.06       0.0  T
   2    -45.8348727 -0.137488E-06  0.205E-02    4.06       1.0  T
   3    -45.8348727  0.415997E-07  0.197E-03    4.06       8.9  T
   4    -45.8348728 -0.916124E-07  0.628E-04    4.06      27.7  T
   5    -45.8348728 -0.188980E-08  0.317E-04    4.06      54.9  T
     SCC iter.                  ...        0 min,  0.006 sec
     gradient                   ...        0 min,  0.012 sec
 * total energy  :   -45.1704942 Eh     change       -0.6495327E-04 Eh
   gradient norm :     0.0023718 Eh/α   predicted    -0.4329133E-04 ( -33.35%)
   displ. norm   :     0.1621288 α      lambda       -0.8036139E-04
   maximum displ.:     0.0945913 α      in ANC's #5, #1, #2, ...

........................................................................
.............................. CYCLE    8 ..............................
........................................................................

 iter      E             dE          RMSdq      gap      omega  full diag
   1    -45.8353250 -0.458353E+02  0.420E-02    4.07       0.0  T
   2    -45.8353252 -0.186625E-06  0.246E-02    4.07       1.0  T
   3    -45.8353251  0.455848E-07  0.220E-03    4.07       7.9  T
   4    -45.8353253 -0.116176E-06  0.699E-04    4.07      24.9  T
   5    -45.8353253 -0.187224E-08  0.380E-04    4.07      45.8  T
     SCC iter.                  ...        0 min,  0.006 sec
     gradient                   ...        0 min,  0.040 sec
 * total energy  :   -45.1705572 Eh     change       -0.6301098E-04 Eh
   gradient norm :     0.0026202 Eh/α   predicted    -0.4124085E-04 ( -34.55%)
   displ. norm   :     0.1885485 α      lambda       -0.7879330E-04
   maximum displ.:     0.1091583 α      in ANC's #5, #1, #2, ...

........................................................................
.............................. CYCLE    9 ..............................
........................................................................

 iter      E             dE          RMSdq      gap      omega  full diag
   1    -45.8359009 -0.458359E+02  0.518E-02    4.07       0.0  T
   2    -45.8359012 -0.313075E-06  0.304E-02    4.07       1.0  T
   3    -45.8359011  0.114905E-06  0.292E-03    4.07       6.0  T
   4    -45.8359013 -0.240602E-06  0.876E-04    4.07      19.9  T
   5    -45.8359013 -0.267527E-08  0.495E-04    4.07      35.2  T
     SCC iter.                  ...        0 min,  0.006 sec
     gradient                   ...        0 min,  0.013 sec
 * total energy  :   -45.1706170 Eh     change       -0.5980679E-04 Eh
   gradient norm :     0.0022876 Eh/α   predicted    -0.4080106E-04 ( -31.78%)
   displ. norm   :     0.1762054 α      lambda       -0.5877892E-04
   maximum displ.:     0.0997261 α      in ANC's #1, #5, #2, ...

........................................................................
.............................. CYCLE   10 ..............................
........................................................................

 iter      E             dE          RMSdq      gap      omega  full diag
   1    -45.8363099 -0.458363E+02  0.504E-02    4.07       0.0  T
   2    -45.8363102 -0.285818E-06  0.295E-02    4.07       1.0  T
   3    -45.8363099  0.213006E-06  0.313E-03    4.07       5.6  T
   4    -45.8363103 -0.348461E-06  0.897E-04    4.07      19.4  T
   5    -45.8363103 -0.372206E-08  0.506E-04    4.07      34.4  T
     SCC iter.                  ...        0 min,  0.006 sec
     gradient                   ...        0 min,  0.013 sec
 * total energy  :   -45.1706595 Eh     change       -0.4253389E-04 Eh
   gradient norm :     0.0018192 Eh/α   predicted    -0.3030342E-04 ( -28.75%)
   displ. norm   :     0.1944388 α      lambda       -0.3486010E-04
   maximum displ.:     0.1116675 α      in ANC's #1, #5, #2, ...

........................................................................
.............................. CYCLE   11 ..............................
........................................................................

 iter      E             dE          RMSdq      gap      omega  full diag
   1    -45.8366045 -0.458366E+02  0.559E-02    4.07       0.0  T
   2    -45.8366050 -0.442867E-06  0.328E-02    4.07       1.0  T
   3    -45.8366044  0.589281E-06  0.443E-03    4.07       3.9  T
   4    -45.8366052 -0.794854E-06  0.101E-03    4.07      17.2  T
   5    -45.8366052 -0.696001E-08  0.559E-04    4.07      31.1  T
   6    -45.8366052 -0.319638E-09  0.203E-04    4.07      85.7  T
     SCC iter.                  ...        0 min,  0.007 sec
     gradient                   ...        0 min,  0.040 sec
 * total energy  :   -45.1706900 Eh     change       -0.3050829E-04 Eh
   gradient norm :     0.0018755 Eh/α   predicted    -0.1772772E-04 ( -41.89%)
   displ. norm   :     0.0559315 α      lambda       -0.1293934E-04
   maximum displ.:     0.0275479 α      in ANC's #1, #6, #4, ...

........................................................................
.............................. CYCLE   12 ..............................
........................................................................

 iter      E             dE          RMSdq      gap      omega  full diag
   1    -45.8366326 -0.458366E+02  0.130E-02    4.07       0.0  T
   2    -45.8366327 -0.122556E-06  0.770E-03    4.07       2.3  T
   3    -45.8366326  0.976613E-07  0.225E-03    4.07       7.7  T
   4    -45.8366328 -0.129679E-06  0.381E-04    4.07      45.6  T
   5    -45.8366328 -0.277127E-08  0.206E-04    4.07      84.5  T
     SCC iter.                  ...        0 min,  0.006 sec
     gradient                   ...        0 min,  0.013 sec
 * total energy  :   -45.1707049 Eh     change       -0.1490203E-04 Eh
   gradient norm :     0.0012681 Eh/α   predicted    -0.6478830E-05 ( -56.52%)
   displ. norm   :     0.0898252 α      lambda       -0.1373614E-04
   maximum displ.:     0.0475654 α      in ANC's #1, #4, #13, ...

........................................................................
.............................. CYCLE   13 ..............................
........................................................................

 iter      E             dE          RMSdq      gap      omega  full diag
   1    -45.8360038 -0.458360E+02  0.214E-02    4.07       0.0  T
   2    -45.8360038 -0.955667E-07  0.126E-02    4.07       1.4  T
   3    -45.8360037  0.150115E-06  0.220E-03    4.07       7.9  T
   4    -45.8360039 -0.196043E-06  0.524E-04    4.07      33.2  T
   5    -45.8360039 -0.158880E-08  0.291E-04    4.07      59.8  T
     SCC iter.                  ...        0 min,  0.006 sec
     gradient                   ...        0 min,  0.013 sec
 * total energy  :   -45.1707170 Eh     change       -0.1210751E-04 Eh
   gradient norm :     0.0009006 Eh/α   predicted    -0.6894231E-05 ( -43.06%)
   displ. norm   :     0.0363596 α      lambda       -0.3619637E-05
   maximum displ.:     0.0198745 α      in ANC's #1, #10, #9, ...

........................................................................
.............................. CYCLE   14 ..............................
........................................................................

 iter      E             dE          RMSdq      gap      omega  full diag
   1    -45.8363065 -0.458363E+02  0.712E-03    4.07       0.0  T
   2    -45.8363065 -0.631476E-07  0.424E-03    4.07       4.1  T
   3    -45.8363065  0.688674E-08  0.903E-04    4.07      19.3  T
   4    -45.8363066 -0.105162E-07  0.221E-04    4.07      78.7  T
     SCC iter.                  ...        0 min,  0.004 sec
     gradient                   ...        0 min,  0.046 sec
 * total energy  :   -45.1707209 Eh     change       -0.3902124E-05 Eh
   gradient norm :     0.0006851 Eh/α   predicted    -0.1814366E-05 ( -53.50%)
   displ. norm   :     0.0546673 α      lambda       -0.4205881E-05
   maximum displ.:     0.0298575 α      in ANC's #1, #10, #2, ...

   *** GEOMETRY OPTIMIZATION CONVERGED AFTER 14 ITERATIONS ***

------------------------------------------------------------------------
 total energy gain   :        -0.0060939 Eh       -3.8240 kcal/mol
 total RMSD          :         0.2663597 a0        0.1410 Å
 total power (kW/mol):        -1.1428281 (step)  -33.5776 (real)
------------------------------------------------------------------------

 ANCopt (total)                0 d,  0 h,  0 min,  0.477 sec
 optimizer setup                ...        0 min,  0.000 sec (  0.016%)
 model hessian                  ...        0 min,  0.011 sec (  2.365%)
 ANC generation                 ...        0 min,  0.001 sec (  0.203%)
 coordinate transformation      ...        0 min,  0.000 sec (  0.015%)
 single point calculation       ...        0 min,  0.461 sec ( 96.657%)
 optimization log               ...        0 min,  0.002 sec (  0.454%)
 hessian update                 ...        0 min,  0.000 sec (  0.027%)
 rational function              ...        0 min,  0.001 sec (  0.164%)

================
 final structure:
================
33
 xtb: 6.7.1 (edcfbbe)
C           -4.61129287762310       -0.65239036170113       -0.38054549424284
C           -3.11613891265725       -0.65375062435486       -0.07312205942178
C           -2.37349143482005        0.26570082714523       -1.05841590946108
C           -0.88452737725352        0.16665861374952       -0.90180564022409
C           -0.15915027295574        1.14801769073954       -0.23906131524069
C            1.20975330936746        1.03495995603241       -0.07834228653098
C            1.89092431013221       -0.06641151444286       -0.57952808192445
C            3.39254673999660       -0.19481846302631       -0.42542747759610
C            3.68814405359583       -0.28162383935420        1.05722163995660
O            3.77683058083755        0.91363530887651        1.65323844992810
O            3.80384477592040       -1.31028015338945        1.66850347703640
C            4.13417692138209        0.95723830788650       -1.10376924027934
C            1.16832129887610       -1.05383488780313       -1.23576627141861
C           -0.19930418896669       -0.93623399691512       -1.39655753094083
C           -2.86714471728256       -0.21728591734298        1.36740500460732
H           -4.79831517572272       -0.99994683410706       -1.39440885228535
H           -5.14224906141777       -1.30563069925047        0.30824719042976
H           -5.01820364262755        0.35211232034369       -0.28189103821388
H           -2.73222576380203       -1.67225288768399       -0.19829276678233
H           -2.64805606375285       -0.02051143331410       -2.07677055781142
H           -2.69826289962389        1.29547724537189       -0.89582048544612
H           -0.67130650659230        2.01357712581896        0.15669504474481
H            1.75056775208727        1.80833115985778        0.44648283979043
H            3.70607493445093       -1.14688686901479       -0.86428670519740
H            3.93207347618361        0.80073141094115        2.60414268949585
H            3.85973166185954        0.99697071447510       -2.15534918844996
H            5.20915543663608        0.80978471435346       -1.02790065966294
H            3.88046606437241        1.90586371408818       -0.64068109145421
H            1.68062301772532       -1.92074394974390       -1.62744741053543
H           -0.74355361608989       -1.71134492749710       -1.91708857255540
H           -3.37057097139049       -0.88793171614667        2.06003470990788
H           -3.24631781942817        0.78987735984171        1.52968053350651
H           -1.80312303141762       -0.22705739443384        1.59192705627079

 Bond Distances (Angstroems)
 ---------------------------
C1-C2=1.5264         C1-H16=1.0880        C1-H17=1.0877        C1-H18=1.0883        C2-C1=1.5264         C2-C3=1.5387         
C2-C15=1.5257        C2-H19=1.0956        C3-C2=1.5387         C3-C4=1.5005         C3-H20=1.0929        C3-H21=1.0919        
C4-C3=1.5005         C4-C5=1.3887         C4-C14=1.3895        C5-C4=1.3887         C5-C6=1.3829         C5-H22=1.0808        
C6-C5=1.3829         C6-C7=1.3886         C6-H23=1.0798        C7-C6=1.3886         C7-C8=1.5150         C7-C13=1.3885        
C8-C7=1.5150         C8-C9=1.5143         C8-C12=1.5289        C8-H24=1.0942        C9-C8=1.5143         C9-O10=1.3386        
C9-O11=1.2022        O10-C9=1.3386        O10-H25=0.9701       O11-C9=1.2022        C12-C8=1.5289        C12-H26=1.0875       
C12-H27=1.0877       C12-H28=1.0857       C13-C7=1.3885        C13-C14=1.3821       C13-H29=1.0805       C14-C4=1.3895        
C14-C13=1.3821       C14-H30=1.0807       C15-C2=1.5257        C15-H31=1.0876       C15-H32=1.0883       C15-H33=1.0875       
H16-C1=1.0880        H17-C1=1.0877        H18-C1=1.0883        H19-C2=1.0956        H20-C3=1.0929        H21-C3=1.0919        
H22-C5=1.0808        H23-C6=1.0798        H24-C8=1.0942        H25-O10=0.9701       H26-C12=1.0875       H27-C12=1.0877       
H28-C12=1.0857       H29-C13=1.0805       H30-C14=1.0807       H31-C15=1.0876       H32-C15=1.0883       H33-C15=1.0875       
 C  H  Rav=1.0873 sigma=0.0046  Rmin=1.0798  Rmax=1.0956    17
 C  C  Rav=1.4592 sigma=0.0677  Rmin=1.3821  Rmax=1.5387    13
 O  H  Rav=0.9701 sigma=0.0000  Rmin=0.9701  Rmax=0.9701     1
 O  C  Rav=1.2704 sigma=0.0682  Rmin=1.2022  Rmax=1.3386     2

 selected bond angles (degree)
 --------------------
H16-C1-C2=110.84               H17-C1-C2=110.49               H17-C1-H16=108.32              H18-C1-C2=110.41               
H18-C1-H16=108.36              H18-C1-H17=108.33              C3-C2-C1=110.07                C15-C2-C1=110.47               
C15-C2-C3=110.79               H19-C2-C1=108.73               H19-C2-C3=108.25               H19-C2-C15=108.46              
C4-C3-C2=111.88                H20-C3-C2=108.60               H20-C3-C4=109.23               H21-C3-C2=108.94               
H21-C3-C4=109.99               H21-C3-H20=108.12              C5-C4-C3=121.43                C14-C4-C3=120.30               
C14-C4-C5=118.25               C6-C5-C4=120.98                H22-C5-C4=119.55               H22-C5-C6=119.47               
C7-C6-C5=120.56                H23-C6-C5=119.58               H23-C6-C7=119.85               C8-C7-C6=121.11                
C13-C7-C6=118.64               C13-C7-C8=120.24               C9-C8-C7=107.33                C12-C8-C7=111.83               
C12-C8-C9=112.51               H24-C8-C7=108.48               H24-C8-C9=106.67               H24-C8-C12=109.80              
O10-C9-C8=113.43               O11-C9-C8=124.45               O11-C9-O10=122.09              H25-O10-C9=110.07              

 selected dihedral angles (degree)
 ---------------------------------
C3-C2-C1-H16= 59.54           C3-C2-C1-H17=179.63           C3-C2-C1-H18=299.45           C15-C2-C1-H16=182.21          
C15-C2-C1-H17=302.30          C15-C2-C1-H18= 62.12          H19-C2-C1-H16=301.12          H19-C2-C1-H17= 61.21          
H19-C2-C1-H18=181.02          C4-C3-C2-C1=186.95            C4-C3-C2-C15= 64.47           C4-C3-C2-H19=305.67           
H20-C3-C2-C1=307.59           H20-C3-C2-C15=185.10          H20-C3-C2-H19= 66.30          H21-C3-C2-C1= 65.13           
H21-C3-C2-C15=302.65          H21-C3-C2-H19=183.85          C5-C4-C3-C2=257.27            C5-C4-C3-H20=137.01           
C5-C4-C3-H21= 18.49           C14-C4-C3-C2= 75.82           C14-C4-C3-H20=315.55          C14-C4-C3-H21=197.04          
C6-C5-C4-C3=178.78            C6-C5-C4-C14=  0.21           H22-C5-C4-C3=358.74           H22-C5-C4-C14=180.17          
C7-C6-C5-C4=  0.06            C7-C6-C5-H22=180.10           H23-C6-C5-C4=180.40           H23-C6-C5-H22=  0.44          
C8-C7-C6-C5=179.24            C8-C7-C6-H23=358.90           C13-C7-C6-C5=359.56           C13-C7-C6-H23=179.22          
C9-C8-C7-C6= 63.39            C9-C8-C7-C13=243.07           C12-C8-C7-C6=299.53           C12-C8-C7-C13=119.21          
H24-C8-C7-C6=178.29           H24-C8-C7-C13=357.98          O10-C9-C8-C7=275.45           O10-C9-C8-C12= 38.89          
O10-C9-C8-H24=159.34          O11-C9-C8-C7= 93.72           O11-C9-C8-C12=217.16          O11-C9-C8-H24=337.61          
H25-O10-C9-C8=177.80          H25-O10-C9-O11=359.48         
           -------------------------------------------------
          |                Final Singlepoint                |
           -------------------------------------------------

          ...................................................
          :                      SETUP                      :
          :.................................................:
          :  # basis functions                  78          :
          :  # atomic orbitals                  78          :
          :  # shells                           48          :
          :  # electrons                        82          :
          :  max. iterations                   250          :
          :  Hamiltonian                  GFN2-xTB          :
          :  restarted?                      false          :
          :  GBSA solvation                  false          :
          :  PC potential                    false          :
          :  electronic temp.          300.0000000     K    :
          :  accuracy                    1.0000000          :
          :  -> integral cutoff          0.2500000E+02      :
          :  -> integral neglect         0.1000000E-07      :
          :  -> SCF convergence          0.1000000E-05 Eh   :
          :  -> wf. convergence          0.1000000E-03 e    :
          :  Broyden damping             0.4000000          :
          :  net charge                          0          :
          :  unpaired electrons                  0          :
          ...................................................

 iter      E             dE          RMSdq      gap      omega  full diag
   1    -45.8363066 -0.458363E+02  0.101E-04    4.07       0.0  T
   2    -45.8363066 -0.783160E-10  0.639E-05    4.07     272.6  T
   3    -45.8363066 -0.662865E-10  0.379E-05    4.07     458.9  T

   *** convergence criteria satisfied after 3 iterations ***

         #    Occupation            Energy/Eh            Energy/eV
      -------------------------------------------------------------
         1        2.0000           -0.7446459             -20.2628
       ...           ...                  ...                  ...
        35        2.0000           -0.4375027             -11.9051
        36        2.0000           -0.4267729             -11.6131
        37        2.0000           -0.4237170             -11.5299
        38        2.0000           -0.4181748             -11.3791
        39        2.0000           -0.4130284             -11.2391
        40        2.0000           -0.4027429             -10.9592
        41        2.0000           -0.3879238             -10.5559 (HOMO)
        42                         -0.2382536              -6.4832 (LUMO)
        43                         -0.2212968              -6.0218
        44                         -0.2148733              -5.8470
        45                         -0.0947098              -2.5772
        46                          0.0561784               1.5287
       ...                                ...                  ...
        78                          0.6573853              17.8884
      -------------------------------------------------------------
                  HL-Gap            0.1496702 Eh            4.0727 eV
             Fermi-level           -0.3130887 Eh           -8.5196 eV

 SCC (total)                   0 d,  0 h,  0 min,  0.021 sec
 SCC setup                      ...        0 min,  0.000 sec (  0.895%)
 Dispersion                     ...        0 min,  0.000 sec (  0.868%)
 classical contributions        ...        0 min,  0.000 sec (  0.408%)
 integral evaluation            ...        0 min,  0.004 sec ( 20.429%)
 iterations                     ...        0 min,  0.003 sec ( 16.271%)
 molecular gradient             ...        0 min,  0.013 sec ( 60.664%)
 printout                       ...        0 min,  0.000 sec (  0.434%)

         :::::::::::::::::::::::::::::::::::::::::::::::::::::
         ::                     SUMMARY                     ::
         :::::::::::::::::::::::::::::::::::::::::::::::::::::
         :: total energy             -45.170720941977 Eh    ::
         :: gradient norm              0.000683406911 Eh/a0 ::
         :: HOMO-LUMO gap              4.072734356972 eV    ::
         ::.................................................::
         :: SCC energy               -45.836146192784 Eh    ::
         :: -> isotropic ES            0.052409144937 Eh    ::
         :: -> anisotropic ES          0.006463570321 Eh    ::
         :: -> anisotropic XC          0.018367786742 Eh    ::
         :: -> dispersion             -0.029469214964 Eh    ::
         :: repulsion energy           0.665425250807 Eh    ::
         :: add. restraining           0.000000000000 Eh    ::
         :: total charge               0.000000000000 e     ::
         :::::::::::::::::::::::::::::::::::::::::::::::::::::

           -------------------------------------------------
          |                Property Printout                |
           -------------------------------------------------

    * Orbital Energies and Occupations

         #    Occupation            Energy/Eh            Energy/eV
      -------------------------------------------------------------
         1        2.0000           -0.7446459             -20.2628
       ...           ...                  ...                  ...
        29        2.0000           -0.4691387             -12.7659
        30        2.0000           -0.4643876             -12.6366
        31        2.0000           -0.4621707             -12.5763
        32        2.0000           -0.4522929             -12.3075
        33        2.0000           -0.4479428             -12.1891
        34        2.0000           -0.4400278             -11.9738
        35        2.0000           -0.4375027             -11.9051
        36        2.0000           -0.4267729             -11.6131
        37        2.0000           -0.4237170             -11.5299
        38        2.0000           -0.4181748             -11.3791
        39        2.0000           -0.4130284             -11.2391
        40        2.0000           -0.4027429             -10.9592
        41        2.0000           -0.3879238             -10.5559 (HOMO)
        42                         -0.2382536              -6.4832 (LUMO)
        43                         -0.2212968              -6.0218
        44                         -0.2148733              -5.8470
        45                         -0.0947098              -2.5772
        46                          0.0561784               1.5287
        47                          0.0805316               2.1914
        48                          0.0831050               2.2614
        49                          0.0974220               2.6510
        50                          0.1040389               2.8310
        51                          0.1087292               2.9587
        52                          0.1270352               3.4568
       ...                                ...                  ...
        78                          0.6573853              17.8884
      -------------------------------------------------------------
                  HL-Gap            0.1496702 Eh            4.0727 eV
             Fermi-level           -0.3130887 Eh           -8.5196 eV

     #   Z          covCN         q      C6AA      α(0)
     1   6 C        3.756    -0.106    22.586     6.776
     2   6 C        3.851    -0.006    20.645     6.463
     3   6 C        3.811    -0.068    21.800     6.646
     4   6 C        2.969     0.014    27.699     8.633
     5   6 C        2.925    -0.039    28.964     8.826
     6   6 C        2.922    -0.039    28.977     8.828
     7   6 C        2.979     0.010    27.793     8.648
     8   6 C        3.857    -0.042    21.282     6.561
     9   6 C        2.698     0.362    20.863     7.476
    10   8 O        1.659    -0.372    20.309     6.084
    11   8 O        0.856    -0.415    21.990     6.287
    12   6 C        3.755    -0.104    22.536     6.769
    13   6 C        2.923    -0.037    28.930     8.820
    14   6 C        2.925    -0.038    28.945     8.823
    15   6 C        3.756    -0.106    22.572     6.774
    16   1 H        0.925     0.032     2.551     2.498
    17   1 H        0.925     0.036     2.501     2.473
    18   1 H        0.925     0.036     2.508     2.477
    19   1 H        0.924     0.029     2.594     2.519
    20   1 H        0.924     0.039     2.466     2.456
    21   1 H        0.924     0.038     2.473     2.459
    22   1 H        0.926     0.033     2.549     2.497
    23   1 H        0.926     0.041     2.438     2.442
    24   1 H        0.924     0.060     2.200     2.319
    25   1 H        0.804     0.326     0.647     1.263
    26   1 H        0.925     0.045     2.379     2.412
    27   1 H        0.925     0.042     2.416     2.431
    28   1 H        0.925     0.057     2.229     2.335
    29   1 H        0.926     0.033     2.538     2.491
    30   1 H        0.926     0.033     2.543     2.494
    31   1 H        0.925     0.034     2.530     2.487
    32   1 H        0.925     0.035     2.516     2.480
    33   1 H        0.925     0.035     2.514     2.479

 Mol. C6AA /au·bohr⁶  :      10237.387460
 Mol. C8AA /au·bohr⁸  :     234139.620152
 Mol. α(0) /au        :        155.424315


Wiberg/Mayer (AO) data.
largest (>0.10) Wiberg bond orders for each atom

 ---------------------------------------------------------------------------
     #   Z sym  total        # sym  WBO       # sym  WBO       # sym  WBO
 ---------------------------------------------------------------------------
     1   6 C    3.996 --     2 C    1.008    16 H    0.987    18 H    0.987
                            17 H    0.986
     2   6 C    3.995 --    15 C    1.011     1 C    1.008     3 C    0.977
                            19 H    0.969
     3   6 C    3.996 --     4 C    1.015     2 C    0.977    21 H    0.974
                            20 H    0.968
     4   6 C    3.986 --     5 C    1.409    14 C    1.406     3 C    1.015
                             7 C    0.105
     5   6 C    3.991 --     6 C    1.448     4 C    1.409    22 H    0.969
                            13 C    0.107
     6   6 C    3.992 --     5 C    1.448     7 C    1.410    23 H    0.966
                            14 C    0.109
     7   6 C    3.985 --     6 C    1.410    13 C    1.408     8 C    0.967
                             4 C    0.105
     8   6 C    3.992 --    12 C    0.992     7 C    0.967    24 H    0.961
                             9 C    0.955
     9   6 C    3.909 --    11 O    1.763    10 O    1.131     8 C    0.955
    10   8 O    2.202 --     9 C    1.131    25 H    0.868    11 O    0.170
    11   8 O    2.035 --     9 C    1.763    10 O    0.170
    12   6 C    3.992 --     8 C    0.992    27 H    0.986    26 H    0.986
                            28 H    0.983
    13   6 C    3.991 --    14 C    1.451     7 C    1.408    29 H    0.968
                             5 C    0.107
    14   6 C    3.991 --    13 C    1.451     4 C    1.406    30 H    0.969
                             6 C    0.109
    15   6 C    3.997 --     2 C    1.011    32 H    0.987    31 H    0.986
                            33 H    0.985
    16   1 H    0.999 --     1 C    0.987
    17   1 H    0.998 --     1 C    0.986
    18   1 H    0.999 --     1 C    0.987
    19   1 H    0.999 --     2 C    0.969
    20   1 H    0.998 --     3 C    0.968
    21   1 H    0.998 --     3 C    0.974
    22   1 H    0.999 --     5 C    0.969
    23   1 H    0.998 --     6 C    0.966
    24   1 H    0.996 --     8 C    0.961
    25   1 H    0.893 --    10 O    0.868
    26   1 H    0.998 --    12 C    0.986
    27   1 H    0.997 --    12 C    0.986
    28   1 H    0.997 --    12 C    0.983
    29   1 H    0.999 --    13 C    0.968
    30   1 H    0.998 --    14 C    0.969
    31   1 H    0.999 --    15 C    0.986
    32   1 H    0.999 --    15 C    0.987
    33   1 H    0.999 --    15 C    0.985
 ---------------------------------------------------------------------------

Topologies differ in total number of bonds
Writing topology from bond orders to xtbtopo.mol

molecular dipole:
                 x           y           z       tot (Debye)
 q only:       -0.398       0.762      -0.360
   full:       -0.342       0.783      -0.237       2.253
molecular quadrupole (traceless):
                xx          xy          yy          xz          yz          zz
 q only:        0.875       8.595      -3.101      -2.715       5.556       2.226
  q+dip:        2.099       8.121      -3.405      -0.885       9.376       1.305
   full:        1.977       8.720      -4.578      -1.469       7.588       2.601

           -------------------------------------------------
          |                Geometry Summary                 |
           -------------------------------------------------

      molecular mass/u    :      206.2813100
   center of mass at/Å    :        0.6188150      -0.0546300      -0.0576805
  moments of inertia/u·Å² :        0.3731596E+03   0.1893747E+04   0.1984551E+04
rotational constants/cm⁻¹ :        0.4517540E-01   0.8901735E-02   0.8494432E-02

 * 30 selected distances

     #   Z          #   Z                                           value/Å
     1   6 C        2   6 C                                       1.5264327
     2   6 C        3   6 C                                       1.5387400 (max)
     4   6 C        5   6 C                                       1.3886929
     5   6 C        6   6 C                                       1.3829353
     6   6 C        7   6 C                                       1.3885966
     9   6 C       10   8 O                                       1.3385612
     9   6 C       11   8 O                                       1.2021590
     8   6 C       12   6 C                                       1.5288552
     7   6 C       13   6 C                                       1.3884556
     4   6 C       14   6 C                                       1.3894901
    13   6 C       14   6 C                                       1.3820578
     2   6 C       15   6 C                                       1.5256534
     1   6 C       16   1 H                                       1.0879761
     1   6 C       17   1 H                                       1.0876916
     1   6 C       18   1 H                                       1.0882715
     2   6 C       19   1 H                                       1.0956295
     3   6 C       20   1 H                                       1.0928630
     3   6 C       21   1 H                                       1.0919494
     5   6 C       22   1 H                                       1.0807962
     6   6 C       23   1 H                                       1.0798263
     8   6 C       24   1 H                                       1.0942266
    10   8 O       25   1 H                                       0.9700859 (min)
    12   6 C       26   1 H                                       1.0875291
    12   6 C       27   1 H                                       1.0876937
    12   6 C       28   1 H                                       1.0856842
    13   6 C       29   1 H                                       1.0804623
    14   6 C       30   1 H                                       1.0807207
    15   6 C       31   1 H                                       1.0876304
    15   6 C       32   1 H                                       1.0883399
    15   6 C       33   1 H                                       1.0874962

 * 4 distinct bonds (by element types)

   Z      Z             #   av. dist./Å        max./Å        min./Å
   1 H    6 C          17     1.0873404     1.0956295     1.0798263
   6 C    6 C          10     1.4439909     1.5387400     1.3820578
   1 H    8 O           1     0.9700859     0.9700859     0.9700859
   6 C    8 O           2     1.2703601     1.3385612     1.2021590


optimized geometry written to: xtbopt.xyz


           -------------------------------------------------
          | TOTAL ENERGY              -45.170720941977 Eh   |
          | GRADIENT NORM               0.000683406911 Eh/α |
          | HOMO-LUMO GAP               4.072734356972 eV   |
           -------------------------------------------------

------------------------------------------------------------------------
 * finished run on 2025/05/15 at 16:33:27.513     
------------------------------------------------------------------------
 total:
 * wall-time:     0 d,  0 h,  0 min,  0.548 sec
 *  cpu-time:     0 d,  0 h,  0 min,  0.399 sec
 * ratio c/w:     0.728 speedup
 SCF:
 * wall-time:     0 d,  0 h,  0 min,  0.036 sec
 *  cpu-time:     0 d,  0 h,  0 min,  0.031 sec
 * ratio c/w:     0.857 speedup
 ANC optimizer:
 * wall-time:     0 d,  0 h,  0 min,  0.501 sec
 *  cpu-time:     0 d,  0 h,  0 min,  0.359 sec
 * ratio c/w:     0.717 speedup



----- Single-point -----
      -----------------------------------------------------------      
     |                   =====================                   |     
     |                           x T B                           |     
     |                   =====================                   |     
     |                         S. Grimme                         |     
     |          Mulliken Center for Theoretical Chemistry        |     
     |                    University of Bonn                     |     
      -----------------------------------------------------------      

   * xtb version 6.7.1 (edcfbbe) compiled by 'conda@3ef47c1a292c' on 2024-11-25

   xtb is free software: you can redistribute it and/or modify it under
   the terms of the GNU Lesser General Public License as published by
   the Free Software Foundation, either version 3 of the License, or
   (at your option) any later version.
   
   xtb is distributed in the hope that it will be useful,
   but WITHOUT ANY WARRANTY; without even the implied warranty of
   MERCHANTABILITY or FITNESS FOR A PARTICULAR PURPOSE.  See the
   GNU Lesser General Public License for more details.
   
   Cite this work as:
   * C. Bannwarth, E. Caldeweyher, S. Ehlert, A. Hansen, P. Pracht,
     J. Seibert, S. Spicher, S. Grimme, WIREs Comput. Mol. Sci., 2020, 11,
     e01493. DOI: 10.1002/wcms.1493
   
   for GFN2-xTB:
   * C. Bannwarth, S. Ehlert and S. Grimme., J. Chem. Theory Comput., 2019,
     15, 1652-1671. DOI: 10.1021/acs.jctc.8b01176
   for GFN1-xTB:
   * S. Grimme, C. Bannwarth, P. Shushkov, J. Chem. Theory Comput., 2017,
     13, 1989-2009. DOI: 10.1021/acs.jctc.7b00118
   for GFN0-xTB:
   * P. Pracht, E. Caldeweyher, S. Ehlert, S. Grimme, ChemRxiv, 2019, preprint.
     DOI: 10.26434/chemrxiv.8326202.v1
   for GFN-FF:
   * S. Spicher and S. Grimme, Angew. Chem. Int. Ed., 2020, 59, 15665-15673.
     DOI: 10.1002/anie.202004239
   
   for ALPB and GBSA implicit solvation:
   * S. Ehlert, M. Stahn, S. Spicher, S. Grimme, J. Chem. Theory Comput.,
     2021, 17, 4250-4261. DOI: 10.1021/acs.jctc.1c00471
   
   for ddCOSMO and CPCM-X implicit solvation:
   * M. Stahn, S. Ehlert, S. Grimme, J. Phys. Chem. A,
     2023, XX, XXXX-XXXX. DOI: 10.1021/acs.jpca.3c04382
   
   for DFT-D4:
   * E. Caldeweyher, C. Bannwarth and S. Grimme, J. Chem. Phys., 2017,
     147, 034112. DOI: 10.1063/1.4993215
   * E. Caldeweyher, S. Ehlert, A. Hansen, H. Neugebauer, S. Spicher,
     C. Bannwarth and S. Grimme, J. Chem. Phys., 2019, 150, 154122.
     DOI: 10.1063/1.5090222
   * E. Caldeweyher, J.-M. Mewes, S. Ehlert and S. Grimme, Phys. Chem. Chem. Phys.
     2020, 22, 8499-8512. DOI: 10.1039/D0CP00502A
   
   for sTDA-xTB:
   * S. Grimme and C. Bannwarth, J. Chem. Phys., 2016, 145, 054103.
     DOI: 10.1063/1.4959605
   
   in the mass-spec context:
   * V. Asgeirsson, C. Bauer and S. Grimme, Chem. Sci., 2017, 8, 4879.
     DOI: 10.1039/c7sc00601b
   * J. Koopman and S. Grimme, ACS Omega 2019, 4, 12, 15120-15133.
     DOI: 10.1021/acsomega.9b02011
   
   for metadynamics refer to:
   * S. Grimme, J. Chem. Theory Comput., 2019, 155, 2847-2862
     DOI: 10.1021/acs.jctc.9b00143
   
   for SPH calculations refer to:
   * S. Spicher and S. Grimme, J. Chem. Theory Comput., 2021, 17, 1701-1714
     DOI: 10.1021/acs.jctc.0c01306
   
   for ONIOM refer to:
   * C. Plett, A. Katbashev, S. Ehlert, S. Grimme, M. Bursch,
     Phys. Chem. Chem. Phys., 2023, 25, 17860-17868. DOI: 10.1039/D3CP02178E
   
   for DIPRO refer to:
   * J. Kohn, N. Gildemeister, S. Grimme, D. Fazzi, A. Hansen,
     J. Chem. Phys., 2023, just accepted.
   
   for PTB refer to:
   * S. Grimme, M. Mueller, A. Hansen, J. Chem. Phys., 2023, 158, 124111.
     DOI: 10.1063/5.0137838
   
   with help from (in alphabetical order)
   P. Atkinson, C. Bannwarth, F. Bohle, G. Brandenburg, E. Caldeweyher
   M. Checinski, S. Dohm, S. Ehlert, S. Ehrlich, I. Gerasimov, C. Hölzer
   A. Katbashev, J. Kohn, J. Koopman, C. Lavigne, S. Lehtola, F. März, M. Müller,
   F. Musil, H. Neugebauer, J. Pisarek, C. Plett, P. Pracht, F. Pultar,
   J. Seibert, P. Shushkov, S. Spicher, M. Stahn, M. Steiner, T. Strunk,
   J. Stückrath, T. Rose, and J. Unsleber
   
 * started run on 2025/05/15 at 16:33:27.525     
   ID    Z sym.   atoms
    1    6 C      1-9, 12-15
    2    8 O      10, 11
    3    1 H      16-33

           -------------------------------------------------
          |                Calculation Setup                |
           -------------------------------------------------

          program call               : xtb /rds/general/user/hgt20/home/callum/QDESCP/Ibuprofen_rdkit_conf_13/Ibuprofen_rdkit_conf_13.xyz --acc 1 --gfn 2 --chrg 0 --uhf 0 --etemp 300 --input /rds/general/user/hgt20/home/callum/QDESCP/Ibuprofen_rdkit_conf_13/Ibuprofen_rdkit_conf_13_xtb.inp -P 1
          hostname                   : login-c
          coordinate file            : /rds/general/user/hgt20/home/callum/QDESCP/Ibuprofen_rdkit_conf_13/Ibuprofen_rdkit_conf_13.xyz
          omp threads                :                     1


           -------------------------------------------------
          |                 G F N 2 - x T B                 |
           -------------------------------------------------

        Reference                      10.1021/acs.jctc.8b01176
      * Hamiltonian:
        H0-scaling (s, p, d)           1.850000    2.230000    2.230000
        zeta-weighting                 0.500000
      * Dispersion:
        s8                             2.700000
        a1                             0.520000
        a2                             5.000000
        s9                             5.000000
      * Repulsion:
        kExp                           1.500000    1.000000
        rExp                           1.000000
      * Coulomb:
        alpha                          2.000000
        third order                    shell-resolved
        anisotropic                    true
        a3                             3.000000
        a5                             4.000000
        cn-shift                       1.200000
        cn-exp                         4.000000
        max-rad                        5.000000

q/qsh data taken from xtbrestart
CAMM data taken from xtbrestart

          ...................................................
          :                      SETUP                      :
          :.................................................:
          :  # basis functions                  78          :
          :  # atomic orbitals                  78          :
          :  # shells                           48          :
          :  # electrons                        82          :
          :  max. iterations                   250          :
          :  Hamiltonian                  GFN2-xTB          :
          :  restarted?                       true          :
          :  GBSA solvation                  false          :
          :  PC potential                    false          :
          :  electronic temp.          300.0000000     K    :
          :  accuracy                    1.0000000          :
          :  -> integral cutoff          0.2500000E+02      :
          :  -> integral neglect         0.1000000E-07      :
          :  -> SCF convergence          0.1000000E-05 Eh   :
          :  -> wf. convergence          0.1000000E-03 e    :
          :  Broyden damping             0.4000000          :
          :  net charge                          0          :
          :  unpaired electrons                  0          :
          ...................................................

 iter      E             dE          RMSdq      gap      omega  full diag
   1    -45.8363066 -0.458363E+02  0.756E-06    4.07       0.0  T
   2    -45.8363066 -0.220268E-12  0.467E-06    4.07    3728.4  T
   3    -45.8363066 -0.213163E-12  0.311E-06    4.07    5597.2  T

   *** convergence criteria satisfied after 3 iterations ***

         #    Occupation            Energy/Eh            Energy/eV
      -------------------------------------------------------------
         1        2.0000           -0.7446453             -20.2628
       ...           ...                  ...                  ...
        35        2.0000           -0.4375027             -11.9051
        36        2.0000           -0.4267729             -11.6131
        37        2.0000           -0.4237170             -11.5299
        38        2.0000           -0.4181749             -11.3791
        39        2.0000           -0.4130283             -11.2391
        40        2.0000           -0.4027429             -10.9592
        41        2.0000           -0.3879238             -10.5559 (HOMO)
        42                         -0.2382533              -6.4832 (LUMO)
        43                         -0.2212968              -6.0218
        44                         -0.2148732              -5.8470
        45                         -0.0947098              -2.5772
        46                          0.0561788               1.5287
       ...                                ...                  ...
        78                          0.6573854              17.8884
      -------------------------------------------------------------
                  HL-Gap            0.1496705 Eh            4.0727 eV
             Fermi-level           -0.3130885 Eh           -8.5196 eV

 SCC (total)                   0 d,  0 h,  0 min,  0.067 sec
 SCC setup                      ...        0 min,  0.000 sec (  0.377%)
 Dispersion                     ...        0 min,  0.000 sec (  0.451%)
 classical contributions        ...        0 min,  0.000 sec (  0.137%)
 integral evaluation            ...        0 min,  0.004 sec (  6.621%)
 iterations                     ...        0 min,  0.049 sec ( 72.734%)
 molecular gradient             ...        0 min,  0.013 sec ( 19.460%)
 printout                       ...        0 min,  0.000 sec (  0.210%)

         :::::::::::::::::::::::::::::::::::::::::::::::::::::
         ::                     SUMMARY                     ::
         :::::::::::::::::::::::::::::::::::::::::::::::::::::
         :: total energy             -45.170720941989 Eh    ::
         :: gradient norm              0.000683315834 Eh/a0 ::
         :: HOMO-LUMO gap              4.072741309402 eV    ::
         ::.................................................::
         :: SCC energy               -45.836146192796 Eh    ::
         :: -> isotropic ES            0.052409064311 Eh    ::
         :: -> anisotropic ES          0.006463612754 Eh    ::
         :: -> anisotropic XC          0.018367781997 Eh    ::
         :: -> dispersion             -0.029469216041 Eh    ::
         :: repulsion energy           0.665425250807 Eh    ::
         :: add. restraining           0.000000000000 Eh    ::
         :: total charge              -0.000000000000 e     ::
         :::::::::::::::::::::::::::::::::::::::::::::::::::::

           -------------------------------------------------
          |                Property Printout                |
           -------------------------------------------------

    * Orbital Energies and Occupations

         #    Occupation            Energy/Eh            Energy/eV
      -------------------------------------------------------------
         1        2.0000           -0.7446453             -20.2628
       ...           ...                  ...                  ...
        29        2.0000           -0.4691387             -12.7659
        30        2.0000           -0.4643877             -12.6366
        31        2.0000           -0.4621708             -12.5763
        32        2.0000           -0.4522929             -12.3075
        33        2.0000           -0.4479428             -12.1891
        34        2.0000           -0.4400277             -11.9738
        35        2.0000           -0.4375027             -11.9051
        36        2.0000           -0.4267729             -11.6131
        37        2.0000           -0.4237170             -11.5299
        38        2.0000           -0.4181749             -11.3791
        39        2.0000           -0.4130283             -11.2391
        40        2.0000           -0.4027429             -10.9592
        41        2.0000           -0.3879238             -10.5559 (HOMO)
        42                         -0.2382533              -6.4832 (LUMO)
        43                         -0.2212968              -6.0218
        44                         -0.2148732              -5.8470
        45                         -0.0947098              -2.5772
        46                          0.0561788               1.5287
        47                          0.0805317               2.1914
        48                          0.0831049               2.2614
        49                          0.0974219               2.6510
        50                          0.1040390               2.8310
        51                          0.1087292               2.9587
        52                          0.1270353               3.4568
       ...                                ...                  ...
        78                          0.6573854              17.8884
      -------------------------------------------------------------
                  HL-Gap            0.1496705 Eh            4.0727 eV
             Fermi-level           -0.3130885 Eh           -8.5196 eV

     #   Z          covCN         q      C6AA      α(0)
     1   6 C        3.756    -0.106    22.586     6.776
     2   6 C        3.851    -0.006    20.645     6.463
     3   6 C        3.811    -0.068    21.800     6.646
     4   6 C        2.969     0.014    27.699     8.633
     5   6 C        2.925    -0.039    28.964     8.826
     6   6 C        2.922    -0.039    28.977     8.828
     7   6 C        2.979     0.010    27.793     8.648
     8   6 C        3.857    -0.042    21.282     6.561
     9   6 C        2.698     0.362    20.863     7.476
    10   8 O        1.659    -0.372    20.309     6.084
    11   8 O        0.856    -0.415    21.990     6.287
    12   6 C        3.755    -0.104    22.536     6.769
    13   6 C        2.923    -0.037    28.930     8.820
    14   6 C        2.925    -0.038    28.945     8.823
    15   6 C        3.756    -0.106    22.572     6.774
    16   1 H        0.925     0.032     2.551     2.498
    17   1 H        0.925     0.036     2.501     2.473
    18   1 H        0.925     0.036     2.508     2.477
    19   1 H        0.924     0.029     2.594     2.519
    20   1 H        0.924     0.039     2.466     2.456
    21   1 H        0.924     0.038     2.473     2.459
    22   1 H        0.926     0.033     2.549     2.497
    23   1 H        0.926     0.041     2.438     2.442
    24   1 H        0.924     0.060     2.200     2.319
    25   1 H        0.804     0.326     0.647     1.263
    26   1 H        0.925     0.045     2.379     2.412
    27   1 H        0.925     0.042     2.416     2.431
    28   1 H        0.925     0.057     2.229     2.335
    29   1 H        0.926     0.033     2.538     2.491
    30   1 H        0.926     0.033     2.543     2.494
    31   1 H        0.925     0.034     2.530     2.487
    32   1 H        0.925     0.035     2.516     2.480
    33   1 H        0.925     0.035     2.514     2.479

 Mol. C6AA /au·bohr⁶  :      10237.387900
 Mol. C8AA /au·bohr⁸  :     234139.620898
 Mol. α(0) /au        :        155.424320


Wiberg/Mayer (AO) data.
largest (>0.10) Wiberg bond orders for each atom

 ---------------------------------------------------------------------------
     #   Z sym  total        # sym  WBO       # sym  WBO       # sym  WBO
 ---------------------------------------------------------------------------
     1   6 C    3.996 --     2 C    1.008    16 H    0.987    18 H    0.987
                            17 H    0.986
     2   6 C    3.995 --    15 C    1.011     1 C    1.008     3 C    0.977
                            19 H    0.969
     3   6 C    3.996 --     4 C    1.015     2 C    0.977    21 H    0.974
                            20 H    0.968
     4   6 C    3.986 --     5 C    1.409    14 C    1.406     3 C    1.015
                             7 C    0.105
     5   6 C    3.991 --     6 C    1.448     4 C    1.409    22 H    0.969
                            13 C    0.107
     6   6 C    3.992 --     5 C    1.448     7 C    1.410    23 H    0.966
                            14 C    0.109
     7   6 C    3.985 --     6 C    1.410    13 C    1.408     8 C    0.967
                             4 C    0.105
     8   6 C    3.992 --    12 C    0.992     7 C    0.967    24 H    0.961
                             9 C    0.955
     9   6 C    3.909 --    11 O    1.763    10 O    1.131     8 C    0.955
    10   8 O    2.202 --     9 C    1.131    25 H    0.868    11 O    0.170
    11   8 O    2.035 --     9 C    1.763    10 O    0.170
    12   6 C    3.992 --     8 C    0.992    27 H    0.986    26 H    0.986
                            28 H    0.983
    13   6 C    3.991 --    14 C    1.451     7 C    1.408    29 H    0.968
                             5 C    0.107
    14   6 C    3.991 --    13 C    1.451     4 C    1.406    30 H    0.969
                             6 C    0.109
    15   6 C    3.997 --     2 C    1.011    32 H    0.987    31 H    0.986
                            33 H    0.985
    16   1 H    0.999 --     1 C    0.987
    17   1 H    0.998 --     1 C    0.986
    18   1 H    0.999 --     1 C    0.987
    19   1 H    0.999 --     2 C    0.969
    20   1 H    0.998 --     3 C    0.968
    21   1 H    0.998 --     3 C    0.974
    22   1 H    0.999 --     5 C    0.969
    23   1 H    0.998 --     6 C    0.966
    24   1 H    0.996 --     8 C    0.961
    25   1 H    0.893 --    10 O    0.868
    26   1 H    0.998 --    12 C    0.986
    27   1 H    0.997 --    12 C    0.986
    28   1 H    0.997 --    12 C    0.983
    29   1 H    0.999 --    13 C    0.968
    30   1 H    0.998 --    14 C    0.969
    31   1 H    0.999 --    15 C    0.986
    32   1 H    0.999 --    15 C    0.987
    33   1 H    0.999 --    15 C    0.985
 ---------------------------------------------------------------------------

Topologies differ in total number of bonds
Writing topology from bond orders to xtbtopo.mol

molecular dipole:
                 x           y           z       tot (Debye)
 q only:       -0.398       0.762      -0.360
   full:       -0.342       0.783      -0.237       2.253
molecular quadrupole (traceless):
                xx          xy          yy          xz          yz          zz
 q only:        0.875       8.595      -3.101      -2.715       5.556       2.226
  q+dip:        2.099       8.121      -3.405      -0.885       9.376       1.305
   full:        1.977       8.720      -4.578      -1.469       7.588       2.601


           -------------------------------------------------
          | TOTAL ENERGY              -45.170720941989 Eh   |
          | GRADIENT NORM               0.000683315834 Eh/α |
          | HOMO-LUMO GAP               4.072741309402 eV   |
           -------------------------------------------------

------------------------------------------------------------------------
 * finished run on 2025/05/15 at 16:33:27.603     
------------------------------------------------------------------------
 total:
 * wall-time:     0 d,  0 h,  0 min,  0.078 sec
 *  cpu-time:     0 d,  0 h,  0 min,  0.032 sec
 * ratio c/w:     0.413 speedup
 SCF:
 * wall-time:     0 d,  0 h,  0 min,  0.067 sec
 *  cpu-time:     0 d,  0 h,  0 min,  0.023 sec
 * ratio c/w:     0.341 speedup



----- FOD -----
      -----------------------------------------------------------      
     |                   =====================                   |     
     |                           x T B                           |     
     |                   =====================                   |     
     |                         S. Grimme                         |     
     |          Mulliken Center for Theoretical Chemistry        |     
     |                    University of Bonn                     |     
      -----------------------------------------------------------      

   * xtb version 6.7.1 (edcfbbe) compiled by 'conda@3ef47c1a292c' on 2024-11-25

   xtb is free software: you can redistribute it and/or modify it under
   the terms of the GNU Lesser General Public License as published by
   the Free Software Foundation, either version 3 of the License, or
   (at your option) any later version.
   
   xtb is distributed in the hope that it will be useful,
   but WITHOUT ANY WARRANTY; without even the implied warranty of
   MERCHANTABILITY or FITNESS FOR A PARTICULAR PURPOSE.  See the
   GNU Lesser General Public License for more details.
   
   Cite this work as:
   * C. Bannwarth, E. Caldeweyher, S. Ehlert, A. Hansen, P. Pracht,
     J. Seibert, S. Spicher, S. Grimme, WIREs Comput. Mol. Sci., 2020, 11,
     e01493. DOI: 10.1002/wcms.1493
   
   for GFN2-xTB:
   * C. Bannwarth, S. Ehlert and S. Grimme., J. Chem. Theory Comput., 2019,
     15, 1652-1671. DOI: 10.1021/acs.jctc.8b01176
   for GFN1-xTB:
   * S. Grimme, C. Bannwarth, P. Shushkov, J. Chem. Theory Comput., 2017,
     13, 1989-2009. DOI: 10.1021/acs.jctc.7b00118
   for GFN0-xTB:
   * P. Pracht, E. Caldeweyher, S. Ehlert, S. Grimme, ChemRxiv, 2019, preprint.
     DOI: 10.26434/chemrxiv.8326202.v1
   for GFN-FF:
   * S. Spicher and S. Grimme, Angew. Chem. Int. Ed., 2020, 59, 15665-15673.
     DOI: 10.1002/anie.202004239
   
   for ALPB and GBSA implicit solvation:
   * S. Ehlert, M. Stahn, S. Spicher, S. Grimme, J. Chem. Theory Comput.,
     2021, 17, 4250-4261. DOI: 10.1021/acs.jctc.1c00471
   
   for ddCOSMO and CPCM-X implicit solvation:
   * M. Stahn, S. Ehlert, S. Grimme, J. Phys. Chem. A,
     2023, XX, XXXX-XXXX. DOI: 10.1021/acs.jpca.3c04382
   
   for DFT-D4:
   * E. Caldeweyher, C. Bannwarth and S. Grimme, J. Chem. Phys., 2017,
     147, 034112. DOI: 10.1063/1.4993215
   * E. Caldeweyher, S. Ehlert, A. Hansen, H. Neugebauer, S. Spicher,
     C. Bannwarth and S. Grimme, J. Chem. Phys., 2019, 150, 154122.
     DOI: 10.1063/1.5090222
   * E. Caldeweyher, J.-M. Mewes, S. Ehlert and S. Grimme, Phys. Chem. Chem. Phys.
     2020, 22, 8499-8512. DOI: 10.1039/D0CP00502A
   
   for sTDA-xTB:
   * S. Grimme and C. Bannwarth, J. Chem. Phys., 2016, 145, 054103.
     DOI: 10.1063/1.4959605
   
   in the mass-spec context:
   * V. Asgeirsson, C. Bauer and S. Grimme, Chem. Sci., 2017, 8, 4879.
     DOI: 10.1039/c7sc00601b
   * J. Koopman and S. Grimme, ACS Omega 2019, 4, 12, 15120-15133.
     DOI: 10.1021/acsomega.9b02011
   
   for metadynamics refer to:
   * S. Grimme, J. Chem. Theory Comput., 2019, 155, 2847-2862
     DOI: 10.1021/acs.jctc.9b00143
   
   for SPH calculations refer to:
   * S. Spicher and S. Grimme, J. Chem. Theory Comput., 2021, 17, 1701-1714
     DOI: 10.1021/acs.jctc.0c01306
   
   for ONIOM refer to:
   * C. Plett, A. Katbashev, S. Ehlert, S. Grimme, M. Bursch,
     Phys. Chem. Chem. Phys., 2023, 25, 17860-17868. DOI: 10.1039/D3CP02178E
   
   for DIPRO refer to:
   * J. Kohn, N. Gildemeister, S. Grimme, D. Fazzi, A. Hansen,
     J. Chem. Phys., 2023, just accepted.
   
   for PTB refer to:
   * S. Grimme, M. Mueller, A. Hansen, J. Chem. Phys., 2023, 158, 124111.
     DOI: 10.1063/5.0137838
   
   with help from (in alphabetical order)
   P. Atkinson, C. Bannwarth, F. Bohle, G. Brandenburg, E. Caldeweyher
   M. Checinski, S. Dohm, S. Ehlert, S. Ehrlich, I. Gerasimov, C. Hölzer
   A. Katbashev, J. Kohn, J. Koopman, C. Lavigne, S. Lehtola, F. März, M. Müller,
   F. Musil, H. Neugebauer, J. Pisarek, C. Plett, P. Pracht, F. Pultar,
   J. Seibert, P. Shushkov, S. Spicher, M. Stahn, M. Steiner, T. Strunk,
   J. Stückrath, T. Rose, and J. Unsleber
   
 * started run on 2025/05/15 at 16:33:28.097     
   ID    Z sym.   atoms
    1    6 C      1-9, 12-15
    2    8 O      10, 11
    3    1 H      16-33

           -------------------------------------------------
          |                Calculation Setup                |
           -------------------------------------------------

          program call               : xtb /rds/general/user/hgt20/home/callum/QDESCP/Ibuprofen_rdkit_conf_13/Ibuprofen_rdkit_conf_13.xyz --fod --gfn 2 --chrg 0 --acc 1 --uhf 0 --etemp 300 -P 1
          hostname                   : login-c
          coordinate file            : /rds/general/user/hgt20/home/callum/QDESCP/Ibuprofen_rdkit_conf_13/Ibuprofen_rdkit_conf_13.xyz
          omp threads                :                     1


           -------------------------------------------------
          |                 G F N 2 - x T B                 |
           -------------------------------------------------

        Reference                      10.1021/acs.jctc.8b01176
      * Hamiltonian:
        H0-scaling (s, p, d)           1.850000    2.230000    2.230000
        zeta-weighting                 0.500000
      * Dispersion:
        s8                             2.700000
        a1                             0.520000
        a2                             5.000000
        s9                             5.000000
      * Repulsion:
        kExp                           1.500000    1.000000
        rExp                           1.000000
      * Coulomb:
        alpha                          2.000000
        third order                    shell-resolved
        anisotropic                    true
        a3                             3.000000
        a5                             4.000000
        cn-shift                       1.200000
        cn-exp                         4.000000
        max-rad                        5.000000


          ...................................................
          :                      SETUP                      :
          :.................................................:
          :  # basis functions                  78          :
[...]
   the terms of the GNU Lesser General Public License as published by
   the Free Software Foundation, either version 3 of the License, or
   (at your option) any later version.
   
   xtb is distributed in the hope that it will be useful,
   but WITHOUT ANY WARRANTY; without even the implied warranty of
   MERCHANTABILITY or FITNESS FOR A PARTICULAR PURPOSE.  See the
   GNU Lesser General Public License for more details.
   
   Cite this work as:
   * C. Bannwarth, E. Caldeweyher, S. Ehlert, A. Hansen, P. Pracht,
     J. Seibert, S. Spicher, S. Grimme, WIREs Comput. Mol. Sci., 2020, 11,
     e01493. DOI: 10.1002/wcms.1493
   
   for GFN2-xTB:
   * C. Bannwarth, S. Ehlert and S. Grimme., J. Chem. Theory Comput., 2019,
     15, 1652-1671. DOI: 10.1021/acs.jctc.8b01176
   for GFN1-xTB:
   * S. Grimme, C. Bannwarth, P. Shushkov, J. Chem. Theory Comput., 2017,
     13, 1989-2009. DOI: 10.1021/acs.jctc.7b00118
   for GFN0-xTB:
   * P. Pracht, E. Caldeweyher, S. Ehlert, S. Grimme, ChemRxiv, 2019, preprint.
     DOI: 10.26434/chemrxiv.8326202.v1
   for GFN-FF:
   * S. Spicher and S. Grimme, Angew. Chem. Int. Ed., 2020, 59, 15665-15673.
     DOI: 10.1002/anie.202004239
   
   for ALPB and GBSA implicit solvation:
   * S. Ehlert, M. Stahn, S. Spicher, S. Grimme, J. Chem. Theory Comput.,
     2021, 17, 4250-4261. DOI: 10.1021/acs.jctc.1c00471
   
   for ddCOSMO and CPCM-X implicit solvation:
   * M. Stahn, S. Ehlert, S. Grimme, J. Phys. Chem. A,
     2023, XX, XXXX-XXXX. DOI: 10.1021/acs.jpca.3c04382
   
   for DFT-D4:
   * E. Caldeweyher, C. Bannwarth and S. Grimme, J. Chem. Phys., 2017,
     147, 034112. DOI: 10.1063/1.4993215
   * E. Caldeweyher, S. Ehlert, A. Hansen, H. Neugebauer, S. Spicher,
     C. Bannwarth and S. Grimme, J. Chem. Phys., 2019, 150, 154122.
     DOI: 10.1063/1.5090222
   * E. Caldeweyher, J.-M. Mewes, S. Ehlert and S. Grimme, Phys. Chem. Chem. Phys.
     2020, 22, 8499-8512. DOI: 10.1039/D0CP00502A
   
   for sTDA-xTB:
   * S. Grimme and C. Bannwarth, J. Chem. Phys., 2016, 145, 054103.
     DOI: 10.1063/1.4959605
   
   in the mass-spec context:
   * V. Asgeirsson, C. Bauer and S. Grimme, Chem. Sci., 2017, 8, 4879.
     DOI: 10.1039/c7sc00601b
   * J. Koopman and S. Grimme, ACS Omega 2019, 4, 12, 15120-15133.
     DOI: 10.1021/acsomega.9b02011
   
   for metadynamics refer to:
   * S. Grimme, J. Chem. Theory Comput., 2019, 155, 2847-2862
     DOI: 10.1021/acs.jctc.9b00143
   
   for SPH calculations refer to:
   * S. Spicher and S. Grimme, J. Chem. Theory Comput., 2021, 17, 1701-1714
     DOI: 10.1021/acs.jctc.0c01306
   
   for ONIOM refer to:
   * C. Plett, A. Katbashev, S. Ehlert, S. Grimme, M. Bursch,
     Phys. Chem. Chem. Phys., 2023, 25, 17860-17868. DOI: 10.1039/D3CP02178E
   
   for DIPRO refer to:
   * J. Kohn, N. Gildemeister, S. Grimme, D. Fazzi, A. Hansen,
     J. Chem. Phys., 2023, just accepted.
   
   for PTB refer to:
   * S. Grimme, M. Mueller, A. Hansen, J. Chem. Phys., 2023, 158, 124111.
     DOI: 10.1063/5.0137838
   
   with help from (in alphabetical order)
   P. Atkinson, C. Bannwarth, F. Bohle, G. Brandenburg, E. Caldeweyher
   M. Checinski, S. Dohm, S. Ehlert, S. Ehrlich, I. Gerasimov, C. Hölzer
   A. Katbashev, J. Kohn, J. Koopman, C. Lavigne, S. Lehtola, F. März, M. Müller,
   F. Musil, H. Neugebauer, J. Pisarek, C. Plett, P. Pracht, F. Pultar,
   J. Seibert, P. Shushkov, S. Spicher, M. Stahn, M. Steiner, T. Strunk,
   J. Stückrath, T. Rose, and J. Unsleber
   
 * started run on 2025/05/15 at 16:33:28.796     
   ID    Z sym.   atoms
    1    6 C      1-9, 12-15
    2    8 O      10, 11
    3    1 H      16-33

           -------------------------------------------------
          |                Calculation Setup                |
           -------------------------------------------------

          program call               : xtb /rds/general/user/hgt20/home/callum/QDESCP/Ibuprofen_rdkit_conf_13/Ibuprofen_rdkit_conf_13.xyz --acc 1 --gfn 2 --chrg 0 --uhf 2 --etemp 300 --input /rds/general/user/hgt20/home/callum/QDESCP/Ibuprofen_rdkit_conf_13/Ibuprofen_rdkit_conf_13_xtb.inp -P 1
          hostname                   : login-c
          coordinate file            : /rds/general/user/hgt20/home/callum/QDESCP/Ibuprofen_rdkit_conf_13/Ibuprofen_rdkit_conf_13.xyz
          omp threads                :                     1


           -------------------------------------------------
          |                 G F N 2 - x T B                 |
           -------------------------------------------------

        Reference                      10.1021/acs.jctc.8b01176
      * Hamiltonian:
        H0-scaling (s, p, d)           1.850000    2.230000    2.230000
        zeta-weighting                 0.500000
      * Dispersion:
        s8                             2.700000
        a1                             0.520000
        a2                             5.000000
        s9                             5.000000
      * Repulsion:
        kExp                           1.500000    1.000000
        rExp                           1.000000
      * Coulomb:
        alpha                          2.000000
        third order                    shell-resolved
        anisotropic                    true
        a3                             3.000000
        a5                             4.000000
        cn-shift                       1.200000
        cn-exp                         4.000000
        max-rad                        5.000000


          ...................................................
          :                      SETUP                      :
          :.................................................:
          :  # basis functions                  78          :
          :  # atomic orbitals                  78          :
          :  # shells                           48          :
          :  # electrons                        82          :
          :  max. iterations                   250          :
          :  Hamiltonian                  GFN2-xTB          :
          :  restarted?                      false          :
          :  GBSA solvation                  false          :
          :  PC potential                    false          :
          :  electronic temp.          300.0000000     K    :
          :  accuracy                    1.0000000          :
          :  -> integral cutoff          0.2500000E+02      :
          :  -> integral neglect         0.1000000E-07      :
          :  -> SCF convergence          0.1000000E-05 Eh   :
          :  -> wf. convergence          0.1000000E-03 e    :
          :  Broyden damping             0.4000000          :
          :  net charge                          0          :
          :  unpaired electrons                  2          :
          ...................................................

 iter      E             dE          RMSdq      gap      omega  full diag
   1    -45.5893903 -0.455894E+02  0.346E+00    0.01       0.0  T
   2    -45.4776882  0.111702E+00  0.308E+00    0.67       1.0  T
   3    -45.3762415  0.101447E+00  0.226E+00    0.21       1.0  T
   4    -45.5058281 -0.129587E+00  0.221E+00    0.88       1.0  T
   5    -45.6409312 -0.135103E+00  0.146E+00    0.49       1.0  T
   6    -45.6564091 -0.154778E-01  0.832E-01    0.37       1.0  T
   7    -45.6732879 -0.168788E-01  0.707E-01    0.28       1.0  T
   8    -45.6774850 -0.419711E-02  0.487E-01    0.25       1.0  T
   9    -45.6729873  0.449764E-02  0.365E-01    0.25       1.0  T
  10    -45.6787513 -0.576391E-02  0.113E-01    0.18       1.0  T
  11    -45.6789302 -0.178950E-03  0.803E-02    0.18       1.0  T
  12    -45.6791062 -0.176019E-03  0.412E-02    0.18       1.0  T
  13    -45.6791243 -0.181094E-04  0.185E-02    0.17       1.0  T
  14    -45.6791289 -0.459499E-05  0.428E-03    0.17       4.1  T
  15    -45.6791294 -0.457500E-06  0.258E-03    0.17       6.7  T
  16    -45.6791294 -0.451150E-07  0.125E-03    0.17      14.0  T
  17    -45.6791295 -0.647037E-07  0.644E-04    0.17      27.0  T
  18    -45.6791295 -0.331135E-08  0.359E-04    0.17      48.4  T

   *** convergence criteria satisfied after 18 iterations ***

         #    Occupation            Energy/Eh            Energy/eV
      -------------------------------------------------------------
         1        2.0000           -0.7287506             -19.8303
       ...           ...                  ...                  ...
        36        2.0000           -0.4327787             -11.7765
        37        2.0000           -0.4244083             -11.5487
        38        2.0000           -0.4195881             -11.4176
        39        2.0000           -0.4094019             -11.1404
        40        1.9998           -0.4043698             -11.0035
        41        1.0002           -0.3884231             -10.5695
        42        0.9643           -0.2291545              -6.2356 (HOMO)
        43        0.0357           -0.2228892              -6.0651 (LUMO)
        44                         -0.2073211              -5.6415
        45                         -0.0958693              -2.6087
        46                          0.0657315               1.7886
        47                          0.0769969               2.0952
       ...                                ...                  ...
        78                          0.6623329              18.0230
      -------------------------------------------------------------
                  HL-Gap            0.0062653 Eh            0.1705 eV
             Fermi-level           -0.3112080 Eh           -8.4684 eV

 transition dipole moment (au) for excitation:          41          42
     X       Y       Z   
   1.4849  -0.0602   0.2728  total (au/Debye):    1.511   3.840
 dE (eV)             :    4.334
 oscillator strength :  0.34279E+00

 SCC (total)                   0 d,  0 h,  0 min,  0.043 sec
 SCC setup                      ...        0 min,  0.000 sec (  0.518%)
 Dispersion                     ...        0 min,  0.000 sec (  0.646%)
 classical contributions        ...        0 min,  0.000 sec (  0.207%)
 integral evaluation            ...        0 min,  0.004 sec ( 10.158%)
 iterations                     ...        0 min,  0.021 sec ( 48.834%)
 molecular gradient             ...        0 min,  0.013 sec ( 30.334%)
 printout                       ...        0 min,  0.004 sec (  9.290%)

         :::::::::::::::::::::::::::::::::::::::::::::::::::::
         ::                     SUMMARY                     ::
         :::::::::::::::::::::::::::::::::::::::::::::::::::::
         :: total energy             -45.013543890186 Eh    ::
         :: gradient norm              0.153647696905 Eh/a0 ::
         :: HOMO-LUMO gap              0.170488704210 eV    ::
         ::.................................................::
         :: SCC energy               -45.678969140993 Eh    ::
         :: -> isotropic ES            0.052666401755 Eh    ::
         :: -> anisotropic ES          0.005053811975 Eh    ::
         :: -> anisotropic XC          0.017223199060 Eh    ::
         :: -> dispersion             -0.029395691905 Eh    ::
         :: repulsion energy           0.665425250807 Eh    ::
         :: add. restraining           0.000000000000 Eh    ::
         :: total charge               0.000000000002 e     ::
         :::::::::::::::::::::::::::::::::::::::::::::::::::::

           -------------------------------------------------
          |                Property Printout                |
           -------------------------------------------------

    * Orbital Energies and Occupations

         #    Occupation            Energy/Eh            Energy/eV
      -------------------------------------------------------------
         1        2.0000           -0.7287506             -19.8303
       ...           ...                  ...                  ...
        30        2.0000           -0.4666923             -12.6993
        31        2.0000           -0.4621198             -12.5749
        32        2.0000           -0.4569856             -12.4352
        33        2.0000           -0.4487133             -12.2101
        34        2.0000           -0.4433852             -12.0651
        35        2.0000           -0.4428042             -12.0493
        36        2.0000           -0.4327787             -11.7765
        37        2.0000           -0.4244083             -11.5487
        38        2.0000           -0.4195881             -11.4176
        39        2.0000           -0.4094019             -11.1404
        40        1.9998           -0.4043698             -11.0035
        41        1.0002           -0.3884231             -10.5695
        42        0.9643           -0.2291545              -6.2356 (HOMO)
        43        0.0357           -0.2228892              -6.0651 (LUMO)
        44                         -0.2073211              -5.6415
        45                         -0.0958693              -2.6087
        46                          0.0657315               1.7886
        47                          0.0769969               2.0952
        48                          0.0819954               2.2312
        49                          0.0910123               2.4766
        50                          0.1000923               2.7236
        51                          0.1076893               2.9304
        52                          0.1259471               3.4272
        53                          0.1341235               3.6497
       ...                                ...                  ...
        78                          0.6623329              18.0230
      -------------------------------------------------------------
                  HL-Gap            0.0062653 Eh            0.1705 eV
             Fermi-level           -0.3112080 Eh           -8.4684 eV

     #   Z          covCN         q      C6AA      α(0)
     1   6 C        3.756    -0.108    22.616     6.781
     2   6 C        3.851    -0.002    20.574     6.452
     3   6 C        3.811    -0.065    21.741     6.637
     4   6 C        2.969     0.011    27.774     8.644
     5   6 C        2.925    -0.040    28.993     8.830
     6   6 C        2.922    -0.037    28.929     8.820
     7   6 C        2.979     0.011    27.767     8.644
     8   6 C        3.857    -0.028    21.029     6.522
     9   6 C        2.698     0.328    21.421     7.575
    10   8 O        1.659    -0.389    20.638     6.133
    11   8 O        0.856    -0.422    22.125     6.306
    12   6 C        3.755    -0.104    22.539     6.770
    13   6 C        2.923    -0.040    28.992     8.830
    14   6 C        2.925    -0.036    28.885     8.814
    15   6 C        3.756    -0.106    22.579     6.775
    16   1 H        0.925     0.035     2.517     2.481
    17   1 H        0.925     0.040     2.445     2.445
    18   1 H        0.925     0.038     2.475     2.460
    19   1 H        0.924     0.034     2.533     2.489
    20   1 H        0.924     0.049     2.336     2.390
    21   1 H        0.924     0.042     2.416     2.431
    22   1 H        0.926     0.031     2.571     2.507
    23   1 H        0.926     0.044     2.400     2.423
    24   1 H        0.924     0.058     2.217     2.328
    25   1 H        0.804     0.321     0.662     1.278
    26   1 H        0.925     0.048     2.340     2.392
    27   1 H        0.925     0.046     2.365     2.405
    28   1 H        0.925     0.060     2.194     2.316
    29   1 H        0.926     0.032     2.559     2.501
    30   1 H        0.926     0.032     2.564     2.504
    31   1 H        0.925     0.038     2.475     2.460
    32   1 H        0.925     0.038     2.476     2.461
    33   1 H        0.925     0.039     2.462     2.454

 Mol. C6AA /au·bohr⁶  :      10215.965995
 Mol. C8AA /au·bohr⁸  :     233881.497192
 Mol. α(0) /au        :        155.257915


Wiberg/Mayer (AO) data.
largest (>0.10) Wiberg bond orders for each atom

 ---------------------------------------------------------------------------
     #   Z sym  total        # sym  WBO       # sym  WBO       # sym  WBO
 ---------------------------------------------------------------------------
     1   6 C    3.993 --     2 C    1.008    18 H    0.986    16 H    0.986
                            17 H    0.982
     2   6 C    3.973 --     1 C    1.008    15 C    1.008    19 H    0.968
                             3 C    0.944
     3   6 C    3.986 --     4 C    1.046    21 H    0.972    20 H    0.951
                             2 C    0.944
     4   6 C    3.715 --    14 C    1.187     5 C    1.183     3 C    1.046
     5   6 C    3.960 --     6 C    1.604     4 C    1.183    22 H    0.969
     6   6 C    3.948 --     5 C    1.604     7 C    1.170    23 H    0.966
     7   6 C    3.804 --     6 C    1.170    13 C    1.165     8 C    1.029
                             9 C    0.125    11 O    0.118
     8   6 C    3.978 --     7 C    1.029    12 C    0.971    24 H    0.962
                             9 C    0.883
     9   6 C    3.876 --    11 O    1.616    10 O    1.080     8 C    0.883
                             7 C    0.125
    10   8 O    2.135 --     9 C    1.080    25 H    0.873    11 O    0.123
    11   8 O    1.998 --     9 C    1.616    10 O    0.123     7 C    0.118
    12   6 C    3.986 --    27 H    0.985    28 H    0.982    26 H    0.979
                             8 C    0.971
    13   6 C    3.949 --    14 C    1.603     7 C    1.165    29 H    0.968
    14   6 C    3.953 --    13 C    1.603     4 C    1.187    30 H    0.969
    15   6 C    3.994 --     2 C    1.008    32 H    0.986    33 H    0.984
                            31 H    0.984
    16   1 H    0.998 --     1 C    0.986
    17   1 H    0.995 --     1 C    0.982
    18   1 H    0.998 --     1 C    0.986
    19   1 H    0.999 --     2 C    0.968
    20   1 H    0.988 --     3 C    0.951
    21   1 H    0.997 --     3 C    0.972
    22   1 H    0.999 --     5 C    0.969
    23   1 H    0.998 --     6 C    0.966
    24   1 H    0.996 --     8 C    0.962
    25   1 H    0.896 --    10 O    0.873
    26   1 H    0.997 --    12 C    0.979
    27   1 H    0.997 --    12 C    0.985
    28   1 H    0.996 --    12 C    0.982
    29   1 H    0.999 --    13 C    0.968
    30   1 H    0.999 --    14 C    0.969
    31   1 H    0.996 --    15 C    0.984
    32   1 H    0.998 --    15 C    0.986
    33   1 H    0.998 --    15 C    0.984
 ---------------------------------------------------------------------------

Topologies differ in total number of bonds
Writing topology from bond orders to xtbtopo.mol

molecular dipole:
                 x           y           z       tot (Debye)
 q only:       -0.929       0.770      -0.572
   full:       -0.927       0.767      -0.460       3.273
molecular quadrupole (traceless):
                xx          xy          yy          xz          yz          zz
 q only:        0.664       9.158      -2.848      -4.693       5.331       2.184
  q+dip:        2.195       8.462      -3.691      -2.860       8.627       1.496
   full:        1.338       9.105      -4.349      -3.401       7.102       3.011


           -------------------------------------------------
          | TOTAL ENERGY              -45.013543890186 Eh   |
          | GRADIENT NORM               0.153647696905 Eh/α |
          | HOMO-LUMO GAP               0.170488704210 eV   |
           -------------------------------------------------

------------------------------------------------------------------------
 * finished run on 2025/05/15 at 16:33:28.882     
------------------------------------------------------------------------
 total:
 * wall-time:     0 d,  0 h,  0 min,  0.086 sec
 *  cpu-time:     0 d,  0 h,  0 min,  0.051 sec
 * ratio c/w:     0.598 speedup
 SCF:
 * wall-time:     0 d,  0 h,  0 min,  0.044 sec
 *  cpu-time:     0 d,  0 h,  0 min,  0.043 sec
 * ratio c/w:     0.994 speedup


