33
 energy: -45.170720941977 gnorm: 0.000683406911 xtb: 6.7.1 (edcfbbe)
C           -4.61129287762310       -0.65239036170113       -0.38054549424284
C           -3.11613891265725       -0.65375062435486       -0.07312205942178
C           -2.37349143482005        0.26570082714523       -1.05841590946108
C           -0.88452737725352        0.16665861374952       -0.90180564022409
C           -0.15915027295574        1.14801769073954       -0.23906131524069
C            1.20975330936746        1.03495995603241       -0.07834228653098
C            1.89092431013221       -0.06641151444286       -0.57952808192445
C            3.39254673999660       -0.19481846302631       -0.42542747759610
C            3.68814405359583       -0.28162383935420        1.05722163995660
O            3.77683058083755        0.91363530887651        1.65323844992810
O            3.80384477592040       -1.31028015338945        1.66850347703640
C            4.13417692138209        0.95723830788650       -1.10376924027934
C            1.16832129887610       -1.05383488780313       -1.23576627141861
C           -0.19930418896669       -0.93623399691512       -1.39655753094083
C           -2.86714471728256       -0.21728591734298        1.36740500460732
H           -4.79831517572272       -0.99994683410706       -1.39440885228535
H           -5.14224906141777       -1.30563069925047        0.30824719042976
H           -5.01820364262755        0.35211232034369       -0.28189103821388
H           -2.73222576380203       -1.67225288768399       -0.19829276678233
H           -2.64805606375285       -0.02051143331410       -2.07677055781142
H           -2.69826289962389        1.29547724537189       -0.89582048544612
H           -0.67130650659230        2.01357712581896        0.15669504474481
H            1.75056775208727        1.80833115985778        0.44648283979043
H            3.70607493445093       -1.14688686901479       -0.86428670519740
H            3.93207347618361        0.80073141094115        2.60414268949585
H            3.85973166185954        0.99697071447510       -2.15534918844996
H            5.20915543663608        0.80978471435346       -1.02790065966294
H            3.88046606437241        1.90586371408818       -0.64068109145421
H            1.68062301772532       -1.92074394974390       -1.62744741053543
H           -0.74355361608989       -1.71134492749710       -1.91708857255540
H           -3.37057097139049       -0.88793171614667        2.06003470990788
H           -3.24631781942817        0.78987735984171        1.52968053350651
H           -1.80312303141762       -0.22705739443384        1.59192705627079
