42
 energy: -62.291110073603 gnorm: 0.000259822038 xtb: 6.7.1 (edcfbbe)
C            3.74669461192275        2.05126779799730        0.38289151740477
C            3.55374666759037        0.95223699581680        1.43009348340231
C            3.03531316298068       -0.30972925838666        0.79923918037924
C            3.86023749285918       -1.37779744173520        0.50245882660519
C            3.38177849889784       -2.53715822355913       -0.11321599713716
C            2.05654267808561       -2.67229607507427       -0.45635261629829
C            1.19046271873487       -1.61635980239768       -0.17355141746079
C            1.69271558040667       -0.44633425646945        0.44811344389411
N            0.64997511176680        0.42643872825951        0.60743042786840
C           -0.49072418485365       -0.15844204106426        0.11952929764817
C           -0.20371139221808       -1.39792719090895       -0.37511066234498
C           -1.26329860423352       -2.25250655392096       -0.98506739064339
C           -2.42772242759646       -1.33128118809107       -1.36771781782989
O           -2.81510285406233       -0.48303212825253       -0.30318143029330
C           -1.84683116816918        0.47358820943799        0.10351185950638
C           -2.26754408555544        0.94166991375948        1.50802724696683
C           -2.25550899465463       -0.20372124015612        2.51310668584496
C           -1.82199138101347        1.68783154258665       -0.88679617136184
C           -3.20978789420230        1.95295877687139       -1.41012011401481
O           -3.97329544025662        2.59988705328365       -0.52111101936777
O           -3.61225111192087        1.63443137177144       -2.49535268627578
H            4.47248079955669        1.73328290164383       -0.36177993463874
H            2.81145460450248        2.26710232815916       -0.12949022495744
H            4.10687062483517        2.96555635697175        0.84979699764260
H            2.85641449872967        1.29768830011087        2.19870693962737
H            4.50995893801682        0.74910448944470        1.91545289884898
H            4.90868082143630       -1.31562383357922        0.75703751650435
H            4.07420927112678       -3.34023128456097       -0.31935777261745
H            1.68970500841539       -3.57007135791694       -0.93035406127804
H            0.70411054989662        1.32877317491805        1.04536798991857
H           -0.89373326036688       -2.77325585733723       -1.86976951611192
H           -1.60276303516502       -3.00199985006995       -0.26373189653559
H           -2.15742850566665       -0.73488853386472       -2.24815546065965
H           -3.32548848754551       -1.90709937023298       -1.60128678988816
H           -1.59379343279076        1.73516419169833        1.83752750781647
H           -3.27304697551797        1.35523109474899        1.43654534866577
H           -1.25283770261428       -0.61057377394601        2.62598188439256
H           -2.60181912807830        0.14539888706015        3.48277697280757
H           -2.91275246648216       -0.99728558814948        2.17022372515196
H           -1.45287124476736        2.56994999900438       -0.36607479029368
H           -1.17516941962438        1.45981433101877       -1.73467742318812
H           -4.87207844240639        2.71013840510901       -0.86996455770088
