----- Optimization -----
      -----------------------------------------------------------      
     |                   =====================                   |     
     |                           x T B                           |     
     |                   =====================                   |     
     |                         S. Grimme                         |     
     |          Mulliken Center for Theoretical Chemistry        |     
     |                    University of Bonn                     |     
      -----------------------------------------------------------      

   * xtb version 6.7.1 (edcfbbe) compiled by 'conda@3ef47c1a292c' on 2024-11-25

   xtb is free software: you can redistribute it and/or modify it under
   the terms of the GNU Lesser General Public License as published by
   the Free Software Foundation, either version 3 of the License, or
   (at your option) any later version.
   
   xtb is distributed in the hope that it will be useful,
   but WITHOUT ANY WARRANTY; without even the implied warranty of
   MERCHANTABILITY or FITNESS FOR A PARTICULAR PURPOSE.  See the
   GNU Lesser General Public License for more details.
   
   Cite this work as:
   * C. Bannwarth, E. Caldeweyher, S. Ehlert, A. Hansen, P. Pracht,
     J. Seibert, S. Spicher, S. Grimme, WIREs Comput. Mol. Sci., 2020, 11,
     e01493. DOI: 10.1002/wcms.1493
   
   for GFN2-xTB:
   * C. Bannwarth, S. Ehlert and S. Grimme., J. Chem. Theory Comput., 2019,
     15, 1652-1671. DOI: 10.1021/acs.jctc.8b01176
   for GFN1-xTB:
   * S. Grimme, C. Bannwarth, P. Shushkov, J. Chem. Theory Comput., 2017,
     13, 1989-2009. DOI: 10.1021/acs.jctc.7b00118
   for GFN0-xTB:
   * P. Pracht, E. Caldeweyher, S. Ehlert, S. Grimme, ChemRxiv, 2019, preprint.
     DOI: 10.26434/chemrxiv.8326202.v1
   for GFN-FF:
   * S. Spicher and S. Grimme, Angew. Chem. Int. Ed., 2020, 59, 15665-15673.
     DOI: 10.1002/anie.202004239
   
   for ALPB and GBSA implicit solvation:
   * S. Ehlert, M. Stahn, S. Spicher, S. Grimme, J. Chem. Theory Comput.,
     2021, 17, 4250-4261. DOI: 10.1021/acs.jctc.1c00471
   
   for ddCOSMO and CPCM-X implicit solvation:
   * M. Stahn, S. Ehlert, S. Grimme, J. Phys. Chem. A,
     2023, XX, XXXX-XXXX. DOI: 10.1021/acs.jpca.3c04382
   
   for DFT-D4:
   * E. Caldeweyher, C. Bannwarth and S. Grimme, J. Chem. Phys., 2017,
     147, 034112. DOI: 10.1063/1.4993215
   * E. Caldeweyher, S. Ehlert, A. Hansen, H. Neugebauer, S. Spicher,
     C. Bannwarth and S. Grimme, J. Chem. Phys., 2019, 150, 154122.
     DOI: 10.1063/1.5090222
   * E. Caldeweyher, J.-M. Mewes, S. Ehlert and S. Grimme, Phys. Chem. Chem. Phys.
     2020, 22, 8499-8512. DOI: 10.1039/D0CP00502A
   
   for sTDA-xTB:
   * S. Grimme and C. Bannwarth, J. Chem. Phys., 2016, 145, 054103.
     DOI: 10.1063/1.4959605
   
   in the mass-spec context:
   * V. Asgeirsson, C. Bauer and S. Grimme, Chem. Sci., 2017, 8, 4879.
     DOI: 10.1039/c7sc00601b
   * J. Koopman and S. Grimme, ACS Omega 2019, 4, 12, 15120-15133.
     DOI: 10.1021/acsomega.9b02011
   
   for metadynamics refer to:
   * S. Grimme, J. Chem. Theory Comput., 2019, 155, 2847-2862
     DOI: 10.1021/acs.jctc.9b00143
   
   for SPH calculations refer to:
   * S. Spicher and S. Grimme, J. Chem. Theory Comput., 2021, 17, 1701-1714
     DOI: 10.1021/acs.jctc.0c01306
   
   for ONIOM refer to:
   * C. Plett, A. Katbashev, S. Ehlert, S. Grimme, M. Bursch,
     Phys. Chem. Chem. Phys., 2023, 25, 17860-17868. DOI: 10.1039/D3CP02178E
   
   for DIPRO refer to:
   * J. Kohn, N. Gildemeister, S. Grimme, D. Fazzi, A. Hansen,
     J. Chem. Phys., 2023, just accepted.
   
   for PTB refer to:
   * S. Grimme, M. Mueller, A. Hansen, J. Chem. Phys., 2023, 158, 124111.
     DOI: 10.1063/5.0137838
   
   with help from (in alphabetical order)
   P. Atkinson, C. Bannwarth, F. Bohle, G. Brandenburg, E. Caldeweyher
   M. Checinski, S. Dohm, S. Ehlert, S. Ehrlich, I. Gerasimov, C. Hölzer
   A. Katbashev, J. Kohn, J. Koopman, C. Lavigne, S. Lehtola, F. März, M. Müller,
   F. Musil, H. Neugebauer, J. Pisarek, C. Plett, P. Pracht, F. Pultar,
   J. Seibert, P. Shushkov, S. Spicher, M. Stahn, M. Steiner, T. Strunk,
   J. Stückrath, T. Rose, and J. Unsleber
   
 * started run on 2025/05/15 at 16:25:23.474     
   ID    Z sym.   atoms
    1    6 C      1-8, 10-13, 15-19
    2    7 N      9
    3    8 O      14, 20, 21
    4    1 H      22-42

           -------------------------------------------------
          |                Calculation Setup                |
           -------------------------------------------------

          program call               : xtb /rds/general/user/hgt20/home/callum/QDESCP/Etodolac_rdkit_conf_17/Etodolac_rdkit_conf_17.xyz --opt normal --acc 1 --gfn 2 --chrg 0 --uhf 0 -P 1
          hostname                   : login-c
          coordinate file            : /rds/general/user/hgt20/home/callum/QDESCP/Etodolac_rdkit_conf_17/Etodolac_rdkit_conf_17.xyz
          omp threads                :                     1


           -------------------------------------------------
          |                 G F N 2 - x T B                 |
           -------------------------------------------------

        Reference                      10.1021/acs.jctc.8b01176
      * Hamiltonian:
        H0-scaling (s, p, d)           1.850000    2.230000    2.230000
        zeta-weighting                 0.500000
      * Dispersion:
        s8                             2.700000
        a1                             0.520000
        a2                             5.000000
        s9                             5.000000
      * Repulsion:
        kExp                           1.500000    1.000000
        rExp                           1.000000
      * Coulomb:
        alpha                          2.000000
        third order                    shell-resolved
        anisotropic                    true
        a3                             3.000000
        a5                             4.000000
        cn-shift                       1.200000
        cn-exp                         4.000000
        max-rad                        5.000000


          ...................................................
          :                      SETUP                      :
          :.................................................:
          :  # basis functions                 105          :
          :  # atomic orbitals                 105          :
          :  # shells                           63          :
          :  # electrons                       112          :
          :  max. iterations                   250          :
          :  Hamiltonian                  GFN2-xTB          :
          :  restarted?                      false          :
          :  GBSA solvation                  false          :
          :  PC potential                    false          :
          :  electronic temp.          300.0000000     K    :
          :  accuracy                    1.0000000          :
          :  -> integral cutoff          0.2500000E+02      :
          :  -> integral neglect         0.1000000E-07      :
          :  -> SCF convergence          0.1000000E-05 Eh   :
          :  -> wf. convergence          0.1000000E-03 e    :
          :  Broyden damping             0.4000000          :
          :  net charge                          0          :
          :  unpaired electrons                  0          :
          ...................................................

 iter      E             dE          RMSdq      gap      omega  full diag
   1    -62.9587456 -0.629587E+02  0.373E+00    3.10       0.0  T
   2    -63.0781686 -0.119423E+00  0.219E+00    3.00       1.0  T
   3    -63.0841493 -0.598060E-02  0.122E+00    3.31       1.0  T
   4    -63.0916270 -0.747775E-02  0.543E-01    2.94       1.0  T
   5    -63.1010620 -0.943495E-02  0.129E-01    2.88       1.0  T
   6    -63.1014204 -0.358434E-03  0.583E-02    2.90       1.0  T
   7    -63.1014551 -0.346999E-04  0.255E-02    2.90       1.0  T
   8    -63.1014569 -0.181298E-05  0.121E-02    2.91       1.3  T
   9    -63.1014606 -0.366112E-05  0.291E-03    2.92       5.3  T
  10    -63.1014606 -0.381657E-07  0.143E-03    2.91      10.8  T
  11    -63.1014606 -0.266888E-07  0.589E-04    2.91      26.2  T
  12    -63.1014606 -0.539977E-08  0.239E-04    2.91      64.4  T

   *** convergence criteria satisfied after 12 iterations ***

         #    Occupation            Energy/Eh            Energy/eV
      -------------------------------------------------------------
         1        2.0000           -0.7493612             -20.3912
       ...           ...                  ...                  ...
        50        2.0000           -0.4252072             -11.5705
        51        2.0000           -0.4204343             -11.4406
        52        2.0000           -0.4135417             -11.2530
        53        2.0000           -0.4030755             -10.9682
        54        2.0000           -0.3963279             -10.7846
        55        2.0000           -0.3799879             -10.3400
        56        2.0000           -0.3549524              -9.6587 (HOMO)
        57                         -0.2478958              -6.7456 (LUMO)
        58                         -0.2312294              -6.2921
        59                         -0.1959498              -5.3321
        60                         -0.1595878              -4.3426
        61                         -0.0745171              -2.0277
       ...                                ...                  ...
       105                          0.7054229              19.1955
      -------------------------------------------------------------
                  HL-Gap            0.1070566 Eh            2.9132 eV
             Fermi-level           -0.3014241 Eh           -8.2022 eV

 SCC (total)                   0 d,  0 h,  0 min,  0.056 sec
 SCC setup                      ...        0 min,  0.000 sec (  0.617%)
 Dispersion                     ...        0 min,  0.000 sec (  0.788%)
 classical contributions        ...        0 min,  0.000 sec (  0.252%)
 integral evaluation            ...        0 min,  0.007 sec ( 13.259%)
 iterations                     ...        0 min,  0.024 sec ( 41.835%)
 molecular gradient             ...        0 min,  0.024 sec ( 42.965%)
 printout                       ...        0 min,  0.000 sec (  0.273%)

         :::::::::::::::::::::::::::::::::::::::::::::::::::::
         ::                     SUMMARY                     ::
         :::::::::::::::::::::::::::::::::::::::::::::::::::::
         :: total energy             -62.281068484277 Eh    ::
         :: gradient norm              0.079513788240 Eh/a0 ::
         :: HOMO-LUMO gap              2.913157285885 eV    ::
         ::.................................................::
         :: SCC energy               -63.100859435897 Eh    ::
         :: -> isotropic ES            0.075547801232 Eh    ::
         :: -> anisotropic ES          0.011648094411 Eh    ::
         :: -> anisotropic XC          0.018698233364 Eh    ::
         :: -> dispersion             -0.044512877101 Eh    ::
         :: repulsion energy           0.819790951620 Eh    ::
         :: add. restraining           0.000000000000 Eh    ::
         :: total charge              -0.000000000000 e     ::
         :::::::::::::::::::::::::::::::::::::::::::::::::::::

      ----------------------------------------------------------- 
     |                   =====================                   |
     |                        A N C O P T                        |
     |                   =====================                   |
     |               Approximate Normal Coordinate               |
     |                Rational Function Optimizer                |
      ----------------------------------------------------------- 
      ----------------------------------------------------------- 
     |                   =====================                   |
     |                        A N C O P T                        |
     |                   =====================                   |
     |               Approximate Normal Coordinate               |
     |                Rational Function Optimizer                |
      ----------------------------------------------------------- 

          ...................................................
          :                      SETUP                      :
          :.................................................:
          :   optimization level            normal          :
          :   max. optcycles                   200          :
          :   ANC micro-cycles                  20          :
          :   degrees of freedom               120          :
          :.................................................:
          :   RF solver                   davidson          :
          :   write xtbopt.log                true          :
          :   linear?                        false          :
          :   energy convergence         0.5000000E-05 Eh   :
          :   grad. convergence          0.1000000E-02 Eh/α :
          :   maxmium RF displ.          1.0000000          :
          :   Hlow (freq-cutoff)         0.1000000E-01      :
          :   Hmax (freq-cutoff)         5.0000000          :
          :   S6 in model hess.         20.0000000          :
          ...................................................

generating ANC from exact Hessian ...
Using Lindh-Hessian (1995)
 Shifting diagonal of input Hessian by    9.4734238256880439E-003
 Lowest  eigenvalues of input Hessian
    0.000000    0.000000    0.000000    0.000000    0.000000    0.000000
    0.010000    0.010198    0.010682    0.011180    0.011691    0.012050
    0.013149    0.013842    0.013891    0.015457    0.015937    0.016917
 Highest eigenvalues
    1.832527    1.930699    1.985237    2.025463    2.126858    2.275185


........................................................................
.............................. CYCLE    1 ..............................
........................................................................

 iter      E             dE          RMSdq      gap      omega  full diag
   1    -63.1014606 -0.631015E+02  0.117E-04    2.91       0.0  T
   2    -63.1014606 -0.972094E-10  0.744E-05    2.91     207.5  T
   3    -63.1014606 -0.503775E-10  0.490E-05    2.91     314.9  T
     SCC iter.                  ...        0 min,  0.006 sec
     gradient                   ...        0 min,  0.030 sec
 * total energy  :   -62.2810685 Eh     change       -0.6790302E-09 Eh
   gradient norm :     0.0795157 Eh/α   predicted     0.0000000E+00 (-100.00%)
   displ. norm   :     0.2860710 α      lambda       -0.1029430E-01
   maximum displ.:     0.1093383 α      in ANC's #23, #34, #12, ...

........................................................................
.............................. CYCLE    2 ..............................
........................................................................

 iter      E             dE          RMSdq      gap      omega  full diag
   1    -63.1335853 -0.631336E+02  0.186E-01    3.13       0.0  T
   2    -63.1336813 -0.959839E-04  0.110E-01    3.11       1.0  T
   3    -63.1336734  0.795376E-05  0.322E-02    3.11       1.0  T
   4    -63.1336870 -0.136581E-04  0.889E-03    3.11       1.7  T
   5    -63.1336892 -0.218529E-05  0.324E-03    3.11       4.8  T
   6    -63.1336894 -0.153836E-06  0.168E-03    3.11       9.2  T
   7    -63.1336894 -0.305862E-07  0.725E-04    3.11      21.3  T
   8    -63.1336894 -0.807236E-08  0.265E-04    3.11      58.1  T
     SCC iter.                  ...        0 min,  0.015 sec
     gradient                   ...        0 min,  0.024 sec
 * total energy  :   -62.2880133 Eh     change       -0.6944817E-02 Eh
   gradient norm :     0.0304561 Eh/α   predicted    -0.5570714E-02 ( -19.79%)
   displ. norm   :     0.2348976 α      lambda       -0.2811857E-02
   maximum displ.:     0.0971118 α      in ANC's #12, #8, #23, ...

........................................................................
.............................. CYCLE    3 ..............................
........................................................................

 iter      E             dE          RMSdq      gap      omega  full diag
   1    -63.1489576 -0.631490E+02  0.102E-01    3.21       0.0  T
   2    -63.1489980 -0.403749E-04  0.606E-02    3.20       1.0  T
   3    -63.1489961  0.186802E-05  0.204E-02    3.20       1.0  T
   4    -63.1490002 -0.410771E-05  0.604E-03    3.20       2.6  T
   5    -63.1490013 -0.109575E-05  0.262E-03    3.20       5.9  T
   6    -63.1490015 -0.195253E-06  0.103E-03    3.20      15.0  T
   7    -63.1490015 -0.868329E-08  0.511E-04    3.20      30.2  T
   8    -63.1490015 -0.181715E-08  0.160E-04    3.20      96.4  T
     SCC iter.                  ...        0 min,  0.031 sec
     gradient                   ...        0 min,  0.024 sec
 * total energy  :   -62.2896891 Eh     change       -0.1675797E-02 Eh
   gradient norm :     0.0094068 Eh/α   predicted    -0.1484121E-02 ( -11.44%)
   displ. norm   :     0.1520448 α      lambda       -0.4613629E-03
   maximum displ.:     0.0712068 α      in ANC's #12, #8, #4, ...

........................................................................
.............................. CYCLE    4 ..............................
........................................................................

 iter      E             dE          RMSdq      gap      omega  full diag
   1    -63.1503905 -0.631504E+02  0.334E-02    3.21       0.0  T
   2    -63.1503941 -0.356481E-05  0.204E-02    3.21       1.0  T
   3    -63.1503924  0.165041E-05  0.903E-03    3.21       1.7  T
   4    -63.1503947 -0.222505E-05  0.285E-03    3.21       5.4  T
   5    -63.1503949 -0.241118E-06  0.893E-04    3.21      17.3  T
   6    -63.1503949 -0.127627E-07  0.397E-04    3.21      38.9  T
     SCC iter.                  ...        0 min,  0.011 sec
     gradient                   ...        0 min,  0.024 sec
 * total energy  :   -62.2900174 Eh     change       -0.3282913E-03 Eh
   gradient norm :     0.0054570 Eh/α   predicted    -0.2360169E-03 ( -28.11%)
   displ. norm   :     0.1798140 α      lambda       -0.2752424E-03
   maximum displ.:     0.1048777 α      in ANC's #4, #8, #12, ...

........................................................................
.............................. CYCLE    5 ..............................
........................................................................

 iter      E             dE          RMSdq      gap      omega  full diag
   1    -63.1498927 -0.631499E+02  0.331E-02    3.22       0.0  T
   2    -63.1498939 -0.126187E-05  0.200E-02    3.21       1.0  T
   3    -63.1498915  0.239573E-05  0.906E-03    3.22       1.7  T
   4    -63.1498945 -0.294947E-05  0.174E-03    3.21       8.9  T
   5    -63.1498946 -0.883813E-07  0.666E-04    3.21      23.2  T
   6    -63.1498946 -0.203572E-08  0.311E-04    3.21      49.6  T
     SCC iter.                  ...        0 min,  0.025 sec
     gradient                   ...        0 min,  0.024 sec
 * total energy  :   -62.2901967 Eh     change       -0.1793391E-03 Eh
   gradient norm :     0.0037147 Eh/α   predicted    -0.1420716E-03 ( -20.78%)
   displ. norm   :     0.1286293 α      lambda       -0.9798384E-04
   maximum displ.:     0.0924190 α      in ANC's #4, #8, #9, ...

........................................................................
.............................. CYCLE    6 ..............................
........................................................................

 iter      E             dE          RMSdq      gap      omega  full diag
   1    -63.1495459 -0.631495E+02  0.222E-02    3.22       0.0  T
   2    -63.1495462 -0.361742E-06  0.133E-02    3.22       1.2  T
   3    -63.1495456  0.643263E-06  0.465E-03    3.22       3.3  T
   4    -63.1495463 -0.770382E-06  0.985E-04    3.22      15.7  T
   5    -63.1495464 -0.266901E-07  0.436E-04    3.22      35.4  T
     SCC iter.                  ...        0 min,  0.009 sec
     gradient                   ...        0 min,  0.024 sec
 * total energy  :   -62.2902709 Eh     change       -0.7420712E-04 Eh
   gradient norm :     0.0031335 Eh/α   predicted    -0.4983603E-04 ( -32.84%)
   displ. norm   :     0.1196891 α      lambda       -0.7711970E-04
   maximum displ.:     0.0914210 α      in ANC's #4, #9, #8, ...

........................................................................
.............................. CYCLE    7 ..............................
........................................................................

 iter      E             dE          RMSdq      gap      omega  full diag
   1    -63.1495470 -0.631495E+02  0.262E-02    3.22       0.0  T
   2    -63.1495476 -0.646773E-06  0.156E-02    3.22       1.0  T
   3    -63.1495473  0.285782E-06  0.372E-03    3.22       4.2  T
   4    -63.1495477 -0.403388E-06  0.102E-03    3.22      15.1  T
   5    -63.1495478 -0.181263E-07  0.578E-04    3.22      26.7  T
   6    -63.1495478 -0.773583E-08  0.245E-04    3.22      63.0  T
     SCC iter.                  ...        0 min,  0.016 sec
     gradient                   ...        0 min,  0.025 sec
 * total energy  :   -62.2903337 Eh     change       -0.6276426E-04 Eh
   gradient norm :     0.0025714 Eh/α   predicted    -0.3911260E-04 ( -37.68%)
   displ. norm   :     0.1331697 α      lambda       -0.7428564E-04
   maximum displ.:     0.1025875 α      in ANC's #4, #9, #8, ...

........................................................................
.............................. CYCLE    8 ..............................
........................................................................

 iter      E             dE          RMSdq      gap      omega  full diag
   1    -63.1497123 -0.631497E+02  0.331E-02    3.22       0.0  T
   2    -63.1497129 -0.554224E-06  0.195E-02    3.22       1.0  T
   3    -63.1497128  0.883803E-07  0.282E-03    3.22       5.5  T
   4    -63.1497130 -0.217911E-06  0.109E-03    3.22      14.2  T
   5    -63.1497130 -0.127914E-07  0.645E-04    3.22      23.9  T
   6    -63.1497130 -0.746461E-08  0.290E-04    3.22      53.2  T
     SCC iter.                  ...        0 min,  0.011 sec
     gradient                   ...        0 min,  0.024 sec
 * total energy  :   -62.2903954 Eh     change       -0.6165784E-04 Eh
   gradient norm :     0.0024182 Eh/α   predicted    -0.3780218E-04 ( -38.69%)
   displ. norm   :     0.1498117 α      lambda       -0.7164891E-04
   maximum displ.:     0.1153416 α      in ANC's #4, #9, #2, ...

........................................................................
.............................. CYCLE    9 ..............................
........................................................................

 iter      E             dE          RMSdq      gap      omega  full diag
   1    -63.1498258 -0.631498E+02  0.419E-02    3.22       0.0  T
   2    -63.1498263 -0.547695E-06  0.247E-02    3.22       1.0  T
   3    -63.1498263  0.222772E-07  0.275E-03    3.22       5.6  T
   4    -63.1498265 -0.195030E-06  0.124E-03    3.22      12.4  T
   5    -63.1498265 -0.129304E-07  0.755E-04    3.22      20.4  T
   6    -63.1498265 -0.830084E-08  0.290E-04    3.22      53.2  T
     SCC iter.                  ...        0 min,  0.011 sec
     gradient                   ...        0 min,  0.028 sec
 * total energy  :   -62.2904555 Eh     change       -0.6017052E-04 Eh
   gradient norm :     0.0025998 Eh/α   predicted    -0.3662975E-04 ( -39.12%)
   displ. norm   :     0.1646888 α      lambda       -0.6959670E-04
   maximum displ.:     0.1269718 α      in ANC's #4, #9, #2, ...

........................................................................
.............................. CYCLE   10 ..............................
........................................................................

 iter      E             dE          RMSdq      gap      omega  full diag
   1    -63.1499576 -0.631500E+02  0.453E-02    3.22       0.0  T
   2    -63.1499580 -0.363028E-06  0.266E-02    3.21       1.0  T
   3    -63.1499581 -0.966777E-07  0.223E-03    3.21       6.9  T
   4    -63.1499582 -0.981129E-07  0.128E-03    3.21      12.1  T
   5    -63.1499582 -0.104396E-07  0.628E-04    3.21      24.6  T
   6    -63.1499582 -0.569953E-08  0.181E-04    3.21      85.4  T
     SCC iter.                  ...        0 min,  0.011 sec
     gradient                   ...        0 min,  0.025 sec
 * total energy  :   -62.2905135 Eh     change       -0.5798446E-04 Eh
   gradient norm :     0.0027252 Eh/α   predicted    -0.3574377E-04 ( -38.36%)
   displ. norm   :     0.1787448 α      lambda       -0.6652799E-04
   maximum displ.:     0.1391100 α      in ANC's #4, #2, #9, ...

........................................................................
.............................. CYCLE   11 ..............................
........................................................................

 iter      E             dE          RMSdq      gap      omega  full diag
   1    -63.1499610 -0.631500E+02  0.492E-02    3.21       0.0  T
   2    -63.1499615 -0.577185E-06  0.290E-02    3.21       1.0  T
   3    -63.1499616 -0.300274E-07  0.274E-03    3.21       5.6  T
   4    -63.1499618 -0.186021E-06  0.134E-03    3.21      11.5  T
   5    -63.1499618 -0.133133E-07  0.796E-04    3.21      19.4  T
   6    -63.1499618 -0.535068E-08  0.311E-04    3.21      49.7  T
     SCC iter.                  ...        0 min,  0.032 sec
     gradient                   ...        0 min,  0.024 sec
 * total energy  :   -62.2905682 Eh     change       -0.5469601E-04 Eh
   gradient norm :     0.0029020 Eh/α   predicted    -0.3432889E-04 ( -37.24%)
   displ. norm   :     0.1992178 α      lambda       -0.6653943E-04
   maximum displ.:     0.1561209 α      in ANC's #4, #2, #7, ...

........................................................................
.............................. CYCLE   12 ..............................
........................................................................

 iter      E             dE          RMSdq      gap      omega  full diag
   1    -63.1501201 -0.631501E+02  0.495E-02    3.22       0.0  T
   2    -63.1501206 -0.530191E-06  0.291E-02    3.22       1.0  T
   3    -63.1501206 -0.627237E-08  0.294E-03    3.22       5.2  T
   4    -63.1501209 -0.233266E-06  0.123E-03    3.22      12.6  T
   5    -63.1501209 -0.657344E-09  0.629E-04    3.22      24.5  T
   6    -63.1501209 -0.507099E-08  0.197E-04    3.22      78.5  T
     SCC iter.                  ...        0 min,  0.011 sec
     gradient                   ...        0 min,  0.025 sec
 * total energy  :   -62.2906217 Eh     change       -0.5348836E-04 Eh
   gradient norm :     0.0029459 Eh/α   predicted    -0.3459136E-04 ( -35.33%)
   displ. norm   :     0.2234904 α      lambda       -0.6281096E-04
   maximum displ.:     0.1757498 α      in ANC's #4, #2, #6, ...

........................................................................
.............................. CYCLE   13 ..............................
........................................................................

 iter      E             dE          RMSdq      gap      omega  full diag
   1    -63.1498981 -0.631499E+02  0.548E-02    3.21       0.0  T
   2    -63.1498992 -0.103904E-05  0.323E-02    3.21       1.0  T
   3    -63.1498990  0.134806E-06  0.383E-03    3.22       4.0  T
   4    -63.1498994 -0.429817E-06  0.132E-03    3.21      11.7  T
   5    -63.1498995 -0.746201E-08  0.720E-04    3.21      21.4  T
   6    -63.1498995  0.744642E-09  0.325E-04    3.21      47.5  T
     SCC iter.                  ...        0 min,  0.033 sec
     gradient                   ...        0 min,  0.024 sec
 * total energy  :   -62.2906703 Eh     change       -0.4861998E-04 Eh
   gradient norm :     0.0031111 Eh/α   predicted    -0.3297470E-04 ( -32.18%)
   displ. norm   :     0.2724859 α      lambda       -0.6828547E-04
   maximum displ.:     0.2152592 α      in ANC's #4, #6, #2, ...

........................................................................
.............................. CYCLE   14 ..............................
........................................................................

 iter      E             dE          RMSdq      gap      omega  full diag
   1    -63.1501826 -0.631502E+02  0.586E-02    3.23       0.0  T
   2    -63.1501841 -0.147967E-05  0.346E-02    3.23       1.0  T
   3    -63.1501834  0.730599E-06  0.614E-03    3.23       2.5  T
   4    -63.1501846 -0.119679E-05  0.149E-03    3.22      10.3  T
   5    -63.1501846 -0.298776E-09  0.101E-03    3.22      15.2  T
   6    -63.1501846 -0.184647E-07  0.306E-04    3.23      50.4  T
   7    -63.1501846 -0.949171E-09  0.998E-05    3.23     154.6  T
     SCC iter.                  ...        0 min,  0.013 sec
     gradient                   ...        0 min,  0.024 sec
 * total energy  :   -62.2907155 Eh     change       -0.4513263E-04 Eh
   gradient norm :     0.0025729 Eh/α   predicted    -0.3668070E-04 ( -18.73%)
   displ. norm   :     0.1965886 α      lambda       -0.3657347E-04
   maximum displ.:     0.1540444 α      in ANC's #4, #6, #2, ...

........................................................................
.............................. CYCLE   15 ..............................
........................................................................

 iter      E             dE          RMSdq      gap      omega  full diag
   1    -63.1497075 -0.631497E+02  0.457E-02    3.22       0.0  T
   2    -63.1497084 -0.831762E-06  0.270E-02    3.22       1.0  T
   3    -63.1497083  0.654602E-07  0.294E-03    3.22       5.3  T
   4    -63.1497085 -0.231087E-06  0.135E-03    3.21      11.4  T
   5    -63.1497086 -0.291084E-07  0.770E-04    3.21      20.0  T
   6    -63.1497086 -0.492638E-08  0.352E-04    3.22      43.8  T
     SCC iter.                  ...        0 min,  0.018 sec
     gradient                   ...        0 min,  0.024 sec
 * total energy  :   -62.2907391 Eh     change       -0.2360400E-04 Eh
   gradient norm :     0.0032425 Eh/α   predicted    -0.1899708E-04 ( -19.52%)
   displ. norm   :     0.1897952 α      lambda       -0.5965053E-04
   maximum displ.:     0.1330218 α      in ANC's #4, #6, #5, ...

........................................................................
.............................. CYCLE   16 ..............................
........................................................................

 iter      E             dE          RMSdq      gap      omega  full diag
   1    -63.1513585 -0.631514E+02  0.350E-02    3.25       0.0  T
   2    -63.1513626 -0.410261E-05  0.211E-02    3.24       1.0  T
   3    -63.1513623  0.320331E-06  0.892E-03    3.24       1.7  T
   4    -63.1513633 -0.107285E-05  0.150E-03    3.24      10.3  T
   5    -63.1513634 -0.398039E-07  0.894E-04    3.24      17.3  T
   6    -63.1513634 -0.204728E-07  0.368E-04    3.24      41.9  T
     SCC iter.                  ...        0 min,  0.011 sec
     gradient                   ...        0 min,  0.025 sec
 * total energy  :   -62.2907683 Eh     change       -0.2928046E-04 Eh
   gradient norm :     0.0028017 Eh/α   predicted    -0.3090220E-04 (   5.54%)
   displ. norm   :     0.1407582 α      lambda       -0.3232751E-04
   maximum displ.:     0.0982415 α      in ANC's #4, #6, #3, ...

........................................................................
.............................. CYCLE   17 ..............................
........................................................................

 iter      E             dE          RMSdq      gap      omega  full diag
   1    -63.1506972 -0.631507E+02  0.307E-02    3.23       0.0  T
   2    -63.1506978 -0.591317E-06  0.180E-02    3.23       1.0  T
   3    -63.1506976  0.199297E-06  0.336E-03    3.23       4.6  T
   4    -63.1506980 -0.321205E-06  0.107E-03    3.23      14.4  T
   5    -63.1506980 -0.174039E-07  0.630E-04    3.23      24.5  T
   6    -63.1506980 -0.552657E-08  0.287E-04    3.23      53.8  T
     SCC iter.                  ...        0 min,  0.011 sec
     gradient                   ...        0 min,  0.026 sec
 * total energy  :   -62.2907911 Eh     change       -0.2274184E-04 Eh
   gradient norm :     0.0022829 Eh/α   predicted    -0.1648520E-04 ( -27.51%)
   displ. norm   :     0.1414496 α      lambda       -0.4345648E-04
   maximum displ.:     0.0784514 α      in ANC's #3, #6, #4, ...

........................................................................
.............................. CYCLE   18 ..............................
........................................................................

 iter      E             dE          RMSdq      gap      omega  full diag
   1    -63.1503666 -0.631504E+02  0.261E-02    3.22       0.0  T
   2    -63.1503668 -0.247647E-06  0.155E-02    3.22       1.0  T
   3    -63.1503668  0.422595E-07  0.195E-03    3.22       7.9  T
   4    -63.1503669 -0.103548E-06  0.890E-04    3.22      17.3  T
   5    -63.1503669 -0.136812E-07  0.470E-04    3.22      32.8  T
     SCC iter.                  ...        0 min,  0.010 sec
     gradient                   ...        0 min,  0.025 sec
 * total energy  :   -62.2908242 Eh     change       -0.3316551E-04 Eh
   gradient norm :     0.0032240 Eh/α   predicted    -0.2216352E-04 ( -33.17%)
   displ. norm   :     0.2038307 α      lambda       -0.5539044E-04
   maximum displ.:     0.1163688 α      in ANC's #3, #7, #6, ...

........................................................................
.............................. CYCLE   19 ..............................
........................................................................

 iter      E             dE          RMSdq      gap      omega  full diag
   1    -63.1498805 -0.631499E+02  0.335E-02    3.22       0.0  T
   2    -63.1498808 -0.313032E-06  0.199E-02    3.22       1.0  T
   3    -63.1498807  0.560407E-07  0.242E-03    3.22       6.4  T
   4    -63.1498809 -0.162517E-06  0.941E-04    3.22      16.4  T
   5    -63.1498809 -0.710921E-08  0.560E-04    3.22      27.6  T
     SCC iter.                  ...        0 min,  0.009 sec
     gradient                   ...        0 min,  0.040 sec
 * total energy  :   -62.2908633 Eh     change       -0.3906448E-04 Eh
   gradient norm :     0.0035017 Eh/α   predicted    -0.2884953E-04 ( -26.15%)
   displ. norm   :     0.1800343 α      lambda       -0.3947840E-04
   maximum displ.:     0.1058130 α      in ANC's #3, #7, #6, ...

........................................................................
.............................. CYCLE   20 ..............................
........................................................................

 iter      E             dE          RMSdq      gap      omega  full diag
   1    -63.1495295 -0.631495E+02  0.289E-02    3.22       0.0  T
   2    -63.1495298 -0.301259E-06  0.172E-02    3.22       1.0  T
   3    -63.1495297  0.699302E-07  0.239E-03    3.22       6.5  T
   4    -63.1495299 -0.160207E-06  0.770E-04    3.22      20.0  T
   5    -63.1495299 -0.304987E-08  0.460E-04    3.22      33.6  T
     SCC iter.                  ...        0 min,  0.009 sec
     gradient                   ...        0 min,  0.024 sec
 * total energy  :   -62.2908933 Eh     change       -0.2995619E-04 Eh
   gradient norm :     0.0034379 Eh/α   predicted    -0.2038191E-04 ( -31.96%)
   displ. norm   :     0.1865626 α      lambda       -0.4807129E-04
   maximum displ.:     0.1108782 α      in ANC's #3, #7, #2, ...
 * RMSD in coord.:     0.3850261 α      energy gain  -0.9824779E-02 Eh

generating ANC from exact Hessian ...
Using Lindh-Hessian (1995)
 Shifting diagonal of input Hessian by    9.4516507888266297E-003
 Lowest  eigenvalues of input Hessian
    0.000000    0.000000    0.000000    0.000000    0.000000    0.000000
    0.010000    0.010202    0.010721    0.011254    0.011698    0.012167
    0.013354    0.013964    0.014079    0.015706    0.016327    0.016747
 Highest eigenvalues
    1.871898    1.984508    2.019713    2.076717    2.175541    2.373062


........................................................................
.............................. CYCLE   21 ..............................
........................................................................

 iter      E             dE          RMSdq      gap      omega  full diag
   1    -63.1501598 -0.631502E+02  0.285E-02    3.22       0.0  T
   2    -63.1501603 -0.539131E-06  0.170E-02    3.22       1.0  T
   3    -63.1501601  0.173687E-06  0.338E-03    3.22       4.6  T
   4    -63.1501604 -0.299438E-06  0.723E-04    3.22      21.3  T
   5    -63.1501605 -0.212716E-08  0.418E-04    3.22      36.9  T
     SCC iter.                  ...        0 min,  0.015 sec
     gradient                   ...        0 min,  0.024 sec
 * total energy  :   -62.2909266 Eh     change       -0.3335278E-04 Eh
   gradient norm :     0.0021844 Eh/α   predicted     0.0000000E+00 (-100.00%)
   displ. norm   :     0.0281267 α      lambda       -0.1752004E-04
   maximum displ.:     0.0149430 α      in ANC's #3, #9, #12, ...

........................................................................
.............................. CYCLE   22 ..............................
........................................................................

 iter      E             dE          RMSdq      gap      omega  full diag
   1    -63.1505542 -0.631506E+02  0.766E-03    3.22       0.0  T
   2    -63.1505543 -0.636405E-07  0.453E-03    3.22       3.4  T
   3    -63.1505543  0.287414E-07  0.129E-03    3.22      12.0  T
   4    -63.1505543 -0.434464E-07  0.236E-04    3.22      65.5  T
   5    -63.1505543 -0.639858E-09  0.137E-04    3.22     112.3  T
     SCC iter.                  ...        0 min,  0.009 sec
     gradient                   ...        0 min,  0.024 sec
 * total energy  :   -62.2909418 Eh     change       -0.1517345E-04 Eh
   gradient norm :     0.0011070 Eh/α   predicted    -0.8858623E-05 ( -41.62%)
   displ. norm   :     0.1618179 α      lambda       -0.4542745E-04
   maximum displ.:     0.0883728 α      in ANC's #3, #9, #8, ...

........................................................................
.............................. CYCLE   23 ..............................
........................................................................

 iter      E             dE          RMSdq      gap      omega  full diag
   1    -63.1511047 -0.631511E+02  0.392E-02    3.23       0.0  T
   2    -63.1511057 -0.961753E-06  0.231E-02    3.22       1.0  T
   3    -63.1511053  0.414636E-06  0.477E-03    3.22       3.2  T
   4    -63.1511059 -0.660895E-06  0.109E-03    3.22      14.2  T
   5    -63.1511059 -0.689529E-08  0.670E-04    3.22      23.0  T
   6    -63.1511059 -0.555276E-08  0.297E-04    3.22      52.0  T
     SCC iter.                  ...        0 min,  0.011 sec
     gradient                   ...        0 min,  0.028 sec
 * total energy  :   -62.2909756 Eh     change       -0.3380031E-04 Eh
   gradient norm :     0.0029217 Eh/α   predicted    -0.2297853E-04 ( -32.02%)
   displ. norm   :     0.0402031 α      lambda       -0.1347768E-04
   maximum displ.:     0.0255598 α      in ANC's #3, #8, #9, ...

........................................................................
.............................. CYCLE   24 ..............................
........................................................................

 iter      E             dE          RMSdq      gap      omega  full diag
   1    -63.1509575 -0.631510E+02  0.887E-03    3.22       0.0  T
   2    -63.1509575 -0.319863E-07  0.524E-03    3.22       2.9  T
   3    -63.1509575  0.170444E-07  0.866E-04    3.22      17.8  T
   4    -63.1509575 -0.253397E-07  0.328E-04    3.22      47.0  T
     SCC iter.                  ...        0 min,  0.007 sec
     gradient                   ...        0 min,  0.024 sec
 * total energy  :   -62.2909879 Eh     change       -0.1235917E-04 Eh
   gradient norm :     0.0022669 Eh/α   predicted    -0.6750028E-05 ( -45.38%)
   displ. norm   :     0.1296837 α      lambda       -0.4035043E-04
   maximum displ.:     0.0808195 α      in ANC's #3, #8, #9, ...

........................................................................
.............................. CYCLE   25 ..............................
........................................................................

 iter      E             dE          RMSdq      gap      omega  full diag
   1    -63.1504183 -0.631504E+02  0.297E-02    3.22       0.0  T
   2    -63.1504186 -0.360512E-06  0.176E-02    3.22       1.0  T
   3    -63.1504185  0.112879E-06  0.254E-03    3.22       6.1  T
   4    -63.1504187 -0.196012E-06  0.107E-03    3.22      14.4  T
   5    -63.1504187 -0.244293E-07  0.549E-04    3.22      28.1  T
   6    -63.1504187 -0.127864E-08  0.267E-04    3.22      57.7  T
     SCC iter.                  ...        0 min,  0.011 sec
     gradient                   ...        0 min,  0.038 sec
 * total energy  :   -62.2910162 Eh     change       -0.2825933E-04 Eh
   gradient norm :     0.0009048 Eh/α   predicted    -0.2051471E-04 ( -27.41%)
   displ. norm   :     0.1553792 α      lambda       -0.1590396E-04
   maximum displ.:     0.1017317 α      in ANC's #3, #8, #1, ...

........................................................................
.............................. CYCLE   26 ..............................
........................................................................

 iter      E             dE          RMSdq      gap      omega  full diag
   1    -63.1500002 -0.631500E+02  0.338E-02    3.22       0.0  T
   2    -63.1500004 -0.266346E-06  0.199E-02    3.22       1.0  T
   3    -63.1500004  0.503914E-08  0.207E-03    3.22       7.4  T
   4    -63.1500005 -0.113176E-06  0.104E-03    3.22      14.8  T
   5    -63.1500005 -0.139702E-07  0.569E-04    3.22      27.1  T
   6    -63.1500006 -0.195569E-08  0.222E-04    3.22      69.5  T
     SCC iter.                  ...        0 min,  0.011 sec
     gradient                   ...        0 min,  0.025 sec
 * total energy  :   -62.2910303 Eh     change       -0.1413070E-04 Eh
   gradient norm :     0.0021143 Eh/α   predicted    -0.8037961E-05 ( -43.12%)
   displ. norm   :     0.0367211 α      lambda       -0.8346031E-05
   maximum displ.:     0.0275779 α      in ANC's #3, #8, #1, ...

........................................................................
.............................. CYCLE   27 ..............................
........................................................................

 iter      E             dE          RMSdq      gap      omega  full diag
   1    -63.1503077 -0.631503E+02  0.818E-03    3.22       0.0  T
   2    -63.1503078 -0.725063E-07  0.486E-03    3.22       3.2  T
   3    -63.1503077  0.299893E-07  0.137E-03    3.22      11.2  T
   4    -63.1503078 -0.489993E-07  0.244E-04    3.22      63.2  T
   5    -63.1503078 -0.173131E-09  0.158E-04    3.22      97.6  T
     SCC iter.                  ...        0 min,  0.009 sec
     gradient                   ...        0 min,  0.045 sec
 * total energy  :   -62.2910376 Eh     change       -0.7301214E-05 Eh
   gradient norm :     0.0015396 Eh/α   predicted    -0.4180742E-05 ( -42.74%)
   displ. norm   :     0.1021325 α      lambda       -0.1682840E-04
   maximum displ.:     0.0795244 α      in ANC's #3, #1, #6, ...

........................................................................
.............................. CYCLE   28 ..............................
........................................................................

 iter      E             dE          RMSdq      gap      omega  full diag
   1    -63.1513489 -0.631513E+02  0.210E-02    3.23       0.0  T
   2    -63.1513494 -0.440942E-06  0.125E-02    3.22       1.2  T
   3    -63.1513491  0.244442E-06  0.351E-03    3.23       4.4  T
   4    -63.1513495 -0.360045E-06  0.757E-04    3.22      20.4  T
   5    -63.1513495 -0.822777E-08  0.455E-04    3.22      33.9  T
     SCC iter.                  ...        0 min,  0.009 sec
     gradient                   ...        0 min,  0.025 sec
 * total energy  :   -62.2910531 Eh     change       -0.1547980E-04 Eh
   gradient norm :     0.0014017 Eh/α   predicted    -0.8458401E-05 ( -45.36%)
   displ. norm   :     0.0780324 α      lambda       -0.7622019E-05
   maximum displ.:     0.0620119 α      in ANC's #3, #1, #6, ...

........................................................................
.............................. CYCLE   29 ..............................
........................................................................

 iter      E             dE          RMSdq      gap      omega  full diag
   1    -63.1509652 -0.631510E+02  0.172E-02    3.22       0.0  T
   2    -63.1509653 -0.160287E-06  0.102E-02    3.22       1.5  T
   3    -63.1509653  0.116259E-07  0.134E-03    3.22      11.5  T
   4    -63.1509654 -0.450498E-07  0.506E-04    3.22      30.5  T
   5    -63.1509654 -0.255699E-08  0.293E-04    3.22      52.6  T
     SCC iter.                  ...        0 min,  0.009 sec
     gradient                   ...        0 min,  0.040 sec
 * total energy  :   -62.2910623 Eh     change       -0.9226632E-05 Eh
   gradient norm :     0.0013222 Eh/α   predicted    -0.3821849E-05 ( -58.58%)
   displ. norm   :     0.0583027 α      lambda       -0.7606297E-05
   maximum displ.:     0.0453325 α      in ANC's #3, #6, #1, ...

........................................................................
.............................. CYCLE   30 ..............................
........................................................................

 iter      E             dE          RMSdq      gap      omega  full diag
   1    -63.1507330 -0.631507E+02  0.100E-02    3.22       0.0  T
   2    -63.1507331 -0.398019E-07  0.594E-03    3.22       2.6  T
   3    -63.1507330  0.816576E-08  0.856E-04    3.22      18.0  T
   4    -63.1507331 -0.202560E-07  0.326E-04    3.22      47.4  T
     SCC iter.                  ...        0 min,  0.007 sec
     gradient                   ...        0 min,  0.025 sec
 * total energy  :   -62.2910723 Eh     change       -0.9990046E-05 Eh
   gradient norm :     0.0008509 Eh/α   predicted    -0.3809953E-05 ( -61.86%)
   displ. norm   :     0.0803626 α      lambda       -0.8982319E-05
   maximum displ.:     0.0612974 α      in ANC's #3, #6, #1, ...

........................................................................
.............................. CYCLE   31 ..............................
........................................................................

 iter      E             dE          RMSdq      gap      omega  full diag
   1    -63.1505944 -0.631506E+02  0.133E-02    3.22       0.0  T
   2    -63.1505945 -0.116531E-06  0.792E-03    3.22       1.9  T
   3    -63.1505945  0.442119E-07  0.154E-03    3.22      10.0  T
   4    -63.1505945 -0.652143E-07  0.521E-04    3.22      29.6  T
   5    -63.1505945 -0.606013E-08  0.275E-04    3.22      56.1  T
     SCC iter.                  ...        0 min,  0.009 sec
     gradient                   ...        0 min,  0.025 sec
 * total energy  :   -62.2910832 Eh     change       -0.1088221E-04 Eh
   gradient norm :     0.0004584 Eh/α   predicted    -0.4507207E-05 ( -58.58%)
   displ. norm   :     0.0723608 α      lambda       -0.5683682E-05
   maximum displ.:     0.0564703 α      in ANC's #3, #4, #1, ...

........................................................................
.............................. CYCLE   32 ..............................
........................................................................

 iter      E             dE          RMSdq      gap      omega  full diag
   1    -63.1504850 -0.631505E+02  0.119E-02    3.22       0.0  T
   2    -63.1504850 -0.726586E-07  0.706E-03    3.22       2.2  T
   3    -63.1504850  0.379976E-07  0.137E-03    3.22      11.3  T
   4    -63.1504851 -0.570797E-07  0.411E-04    3.22      37.5  T
   5    -63.1504851 -0.266632E-08  0.247E-04    3.22      62.6  T
     SCC iter.                  ...        0 min,  0.009 sec
     gradient                   ...        0 min,  0.024 sec
 * total energy  :   -62.2910902 Eh     change       -0.6998734E-05 Eh
   gradient norm :     0.0005112 Eh/α   predicted    -0.2851966E-05 ( -59.25%)
   displ. norm   :     0.0592491 α      lambda       -0.3974795E-05
   maximum displ.:     0.0476229 α      in ANC's #3, #4, #1, ...

........................................................................
.............................. CYCLE   33 ..............................
........................................................................

 iter      E             dE          RMSdq      gap      omega  full diag
   1    -63.1505092 -0.631505E+02  0.992E-03    3.22       0.0  T
   2    -63.1505092 -0.475547E-07  0.589E-03    3.22       2.6  T
   3    -63.1505092  0.238620E-07  0.110E-03    3.22      14.0  T
   4    -63.1505092 -0.374948E-07  0.335E-04    3.22      46.1  T
   5    -63.1505092 -0.145457E-08  0.210E-04    3.22      73.5  T
     SCC iter.                  ...        0 min,  0.009 sec
     gradient                   ...        0 min,  0.024 sec
 * total energy  :   -62.2910955 Eh     change       -0.5266516E-05 Eh
   gradient norm :     0.0005251 Eh/α   predicted    -0.1993707E-05 ( -62.14%)
   displ. norm   :     0.0592387 α      lambda       -0.3988401E-05
   maximum displ.:     0.0477263 α      in ANC's #3, #4, #1, ...

........................................................................
.............................. CYCLE   34 ..............................
........................................................................

 iter      E             dE          RMSdq      gap      omega  full diag
   1    -63.1505735 -0.631506E+02  0.998E-03    3.22       0.0  T
   2    -63.1505735 -0.511069E-07  0.592E-03    3.22       2.6  T
   3    -63.1505735  0.278884E-07  0.118E-03    3.22      13.0  T
   4    -63.1505736 -0.436355E-07  0.323E-04    3.22      47.8  T
   5    -63.1505736 -0.100529E-08  0.213E-04    3.22      72.6  T
     SCC iter.                  ...        0 min,  0.009 sec
     gradient                   ...        0 min,  0.024 sec
 * total energy  :   -62.2911008 Eh     change       -0.5292654E-05 Eh
   gradient norm :     0.0003779 Eh/α   predicted    -0.1999691E-05 ( -62.22%)
   displ. norm   :     0.0708242 α      lambda       -0.4268960E-05
   maximum displ.:     0.0563191 α      in ANC's #3, #4, #1, ...

........................................................................
.............................. CYCLE   35 ..............................
........................................................................

 iter      E             dE          RMSdq      gap      omega  full diag
   1    -63.1505972 -0.631506E+02  0.125E-02    3.22       0.0  T
   2    -63.1505972 -0.646325E-07  0.740E-03    3.22       2.1  T
   3    -63.1505972  0.339854E-07  0.131E-03    3.22      11.8  T
   4    -63.1505972 -0.552582E-07  0.408E-04    3.22      37.8  T
   5    -63.1505972 -0.183628E-08  0.259E-04    3.22      59.6  T
     SCC iter.                  ...        0 min,  0.009 sec
     gradient                   ...        0 min,  0.024 sec
 * total energy  :   -62.2911061 Eh     change       -0.5350006E-05 Eh
   gradient norm :     0.0002917 Eh/α   predicted    -0.2140612E-05 ( -59.99%)
   displ. norm   :     0.0710852 α      lambda       -0.3296957E-05
   maximum displ.:     0.0569859 α      in ANC's #3, #4, #1, ...

........................................................................
.............................. CYCLE   36 ..............................
........................................................................

 iter      E             dE          RMSdq      gap      omega  full diag
   1    -63.1506210 -0.631506E+02  0.124E-02    3.22       0.0  T
   2    -63.1506211 -0.848152E-07  0.734E-03    3.22       2.1  T
   3    -63.1506211  0.402585E-07  0.147E-03    3.22      10.5  T
   4    -63.1506211 -0.651148E-07  0.416E-04    3.22      37.1  T
   5    -63.1506211 -0.186721E-08  0.266E-04    3.22      58.1  T
     SCC iter.                  ...        0 min,  0.009 sec
     gradient                   ...        0 min,  0.024 sec
 * total energy  :   -62.2911101 Eh     change       -0.3945995E-05 Eh
   gradient norm :     0.0002605 Eh/α   predicted    -0.1653219E-05 ( -58.10%)
   displ. norm   :     0.0553256 α      lambda       -0.1844154E-05
   maximum displ.:     0.0452855 α      in ANC's #3, #4, #1, ...

   *** GEOMETRY OPTIMIZATION CONVERGED AFTER 36 ITERATIONS ***

------------------------------------------------------------------------
 total energy gain   :        -0.0100416 Eh       -6.3012 kcal/mol
 total RMSD          :         0.4898731 a0        0.2592 Å
 total power (kW/mol):        -0.7323385 (step)  -15.0027 (real)
------------------------------------------------------------------------

 ANCopt (total)                0 d,  0 h,  0 min,  1.757 sec
 optimizer setup                ...        0 min,  0.000 sec (  0.005%)
 model hessian                  ...        0 min,  0.039 sec (  2.192%)
 ANC generation                 ...        0 min,  0.003 sec (  0.171%)
 coordinate transformation      ...        0 min,  0.000 sec (  0.014%)
 single point calculation       ...        0 min,  1.706 sec ( 97.093%)
 optimization log               ...        0 min,  0.005 sec (  0.308%)
 hessian update                 ...        0 min,  0.000 sec (  0.026%)
 rational function              ...        0 min,  0.002 sec (  0.128%)

================
 final structure:
================
42
 xtb: 6.7.1 (edcfbbe)
C            3.74669461192275        2.05126779799730        0.38289151740477
C            3.55374666759037        0.95223699581680        1.43009348340231
C            3.03531316298068       -0.30972925838666        0.79923918037924
C            3.86023749285918       -1.37779744173520        0.50245882660519
C            3.38177849889784       -2.53715822355913       -0.11321599713716
C            2.05654267808561       -2.67229607507427       -0.45635261629829
C            1.19046271873487       -1.61635980239768       -0.17355141746079
C            1.69271558040667       -0.44633425646945        0.44811344389411
N            0.64997511176680        0.42643872825951        0.60743042786840
C           -0.49072418485365       -0.15844204106426        0.11952929764817
C           -0.20371139221808       -1.39792719090895       -0.37511066234498
C           -1.26329860423352       -2.25250655392096       -0.98506739064339
C           -2.42772242759646       -1.33128118809107       -1.36771781782989
O           -2.81510285406233       -0.48303212825253       -0.30318143029330
C           -1.84683116816918        0.47358820943799        0.10351185950638
C           -2.26754408555544        0.94166991375948        1.50802724696683
C           -2.25550899465463       -0.20372124015612        2.51310668584496
C           -1.82199138101347        1.68783154258665       -0.88679617136184
C           -3.20978789420230        1.95295877687139       -1.41012011401481
O           -3.97329544025662        2.59988705328365       -0.52111101936777
O           -3.61225111192087        1.63443137177144       -2.49535268627578
H            4.47248079955669        1.73328290164383       -0.36177993463874
H            2.81145460450248        2.26710232815916       -0.12949022495744
H            4.10687062483517        2.96555635697175        0.84979699764260
H            2.85641449872967        1.29768830011087        2.19870693962737
H            4.50995893801682        0.74910448944470        1.91545289884898
H            4.90868082143630       -1.31562383357922        0.75703751650435
H            4.07420927112678       -3.34023128456097       -0.31935777261745
H            1.68970500841539       -3.57007135791694       -0.93035406127804
H            0.70411054989662        1.32877317491805        1.04536798991857
H           -0.89373326036688       -2.77325585733723       -1.86976951611192
H           -1.60276303516502       -3.00199985006995       -0.26373189653559
H           -2.15742850566665       -0.73488853386472       -2.24815546065965
H           -3.32548848754551       -1.90709937023298       -1.60128678988816
H           -1.59379343279076        1.73516419169833        1.83752750781647
H           -3.27304697551797        1.35523109474899        1.43654534866577
H           -1.25283770261428       -0.61057377394601        2.62598188439256
H           -2.60181912807830        0.14539888706015        3.48277697280757
H           -2.91275246648216       -0.99728558814948        2.17022372515196
H           -1.45287124476736        2.56994999900438       -0.36607479029368
H           -1.17516941962438        1.45981433101877       -1.73467742318812
H           -4.87207844240639        2.71013840510901       -0.86996455770088

 Bond Distances (Angstroems)
 ---------------------------
C1-C2=1.5303         C1-H22=1.0874        C1-H23=1.0880        C1-H24=1.0880        C2-C1=1.5303         C2-C3=1.5031         
C2-H25=1.0938        C2-H26=1.0914        C3-C2=1.5031         C3-C4=1.3818         C3-C8=1.3945         C4-C3=1.3818         
C4-C5=1.3972         C4-H27=1.0807        C5-C4=1.3972         C5-C6=1.3756         C5-H28=1.0802        C6-C5=1.3756         
C6-C7=1.3947         C6-H29=1.0795        C7-C6=1.3947         C7-C8=1.4169         C7-C11=1.4255        C8-C3=1.3945         
C8-C7=1.4169         C8-N9=1.3691         N9-C8=1.3691         N9-C10=1.3716        N9-H30=1.0045        C10-N9=1.3716        
C10-C11=1.3651       C10-C15=1.4962       C11-C7=1.4255        C11-C10=1.3651       C11-C12=1.4917       C12-C11=1.4917       
C12-C13=1.5333       C12-H31=1.0911       C12-H32=1.0942       C13-C12=1.5333       C13-O14=1.4152       C13-H33=1.0972       
C13-H34=1.0918       O14-C13=1.4152       O14-C15=1.4206       C15-C10=1.4962       C15-O14=1.4206       C15-C16=1.5391       
C15-C18=1.5671       C16-C15=1.5391       C16-C17=1.5239       C16-H35=1.0919       C16-H36=1.0896       C17-C16=1.5239       
C17-H37=1.0879       C17-H38=1.0872       C17-H39=1.0859       C18-C15=1.5671       C18-C19=1.5067       C18-H40=1.0888       
C18-H41=1.0905       C19-C18=1.5067       C19-O20=1.3386       C19-O21=1.2005       O20-C19=1.3386       O20-H42=0.9704       
O21-C19=1.2005       H22-C1=1.0874        H23-C1=1.0880        H24-C1=1.0880        H25-C2=1.0938        H26-C2=1.0914        
H27-C4=1.0807        H28-C5=1.0802        H29-C6=1.0795        H30-N9=1.0045        H31-C12=1.0911       H32-C12=1.0942       
H33-C13=1.0972       H34-C13=1.0918       H35-C16=1.0919       H36-C16=1.0896       H37-C17=1.0879       H38-C17=1.0872       
H39-C17=1.0859       H40-C18=1.0888       H41-C18=1.0905       H42-O20=0.9704       
 C  H  Rav=1.0887 sigma=0.0046  Rmin=1.0795  Rmax=1.0972    19
 C  C  Rav=1.4613 sigma=0.0670  Rmin=1.3651  Rmax=1.5671    17
 N  H  Rav=1.0045 sigma=0.0000  Rmin=1.0045  Rmax=1.0045     1
 N  C  Rav=1.3704 sigma=0.0013  Rmin=1.3691  Rmax=1.3716     2
 O  H  Rav=0.9704 sigma=0.0000  Rmin=0.9704  Rmax=0.9704     1
 O  C  Rav=1.3437 sigma=0.0888  Rmin=1.2005  Rmax=1.4206     4

 selected bond angles (degree)
 --------------------
H22-C1-C2=110.05               H23-C1-C2=110.88               H23-C1-H22=108.01              H24-C1-C2=110.59               
H24-C1-H22=108.58              H24-C1-H23=108.66              C3-C2-C1=111.05                H25-C2-C1=109.54               
H25-C2-C3=109.89               H26-C2-C1=109.12               H26-C2-C3=109.42               H26-C2-H25=107.75              
C4-C3-C2=122.22                C8-C3-C2=121.33                C8-C3-C4=116.42                C5-C4-C3=122.11                
H27-C4-C3=118.95               H27-C4-C5=118.93               C6-C5-C4=121.42                H28-C5-C4=118.78               
H28-C5-C6=119.80               C7-C6-C5=118.25                H29-C6-C5=121.24               H29-C6-C7=120.51               
C8-C7-C6=119.61                C11-C7-C6=134.00               C11-C7-C8=106.39               C7-C8-C3=122.18                
N9-C8-C3=129.91                N9-C8-C7=107.91                C10-N9-C8=108.67               H30-N9-C8=125.62               
H30-N9-C10=125.66              C11-C10-N9=109.95              C15-C10-N9=125.27              C15-C10-C11=124.77             

 selected dihedral angles (degree)
 ---------------------------------
C3-C2-C1-H22=299.06           C3-C2-C1-H23= 58.50           C3-C2-C1-H24=179.10           H25-C2-C1-H22=177.50          
H25-C2-C1-H23=296.94          H25-C2-C1-H24= 57.54          H26-C2-C1-H22= 59.77          H26-C2-C1-H23=179.20          
H26-C2-C1-H24=299.81          C4-C3-C2-C1=100.31            C4-C3-C2-H25=221.67           C4-C3-C2-H26=339.79           
C8-C3-C2-C1=282.12            C8-C3-C2-H25= 43.48           C8-C3-C2-H26=161.60           C5-C4-C3-C2=181.57            
C5-C4-C3-C8=359.84            H27-C4-C3-C2=  1.73           H27-C4-C3-C8=180.01           C6-C5-C4-C3=  0.00            
C6-C5-C4-H27=179.84           H28-C5-C4-C3=180.09           H28-C5-C4-H27=359.92          C7-C6-C5-C4=  0.00            
C7-C6-C5-H28=179.91           H29-C6-C5-C4=180.11           H29-C6-C5-H28=  0.03          C8-C7-C6-C5=  0.17            
C8-C7-C6-H29=180.05           C11-C7-C6-C5=179.98           C11-C7-C6-H29=359.86          C7-C8-C3-C2=178.61            
C7-C8-C3-C4=  0.32            N9-C8-C3-C2=358.46            N9-C8-C3-C4=180.17            C3-C8-C7-C6=359.66            
C3-C8-C7-C11=179.81           N9-C8-C7-C6=179.78            N9-C8-C7-C11=359.93           C10-N9-C8-C3=180.69           
C10-N9-C8-C7=  0.55           H30-N9-C8-C3=358.24           H30-N9-C8-C7=178.10           C11-C10-N9-C8=359.15          
C11-C10-N9-H30=181.60         C15-C10-N9-C8=180.29          C15-C10-N9-H30=  2.74         
           -------------------------------------------------
          |                Final Singlepoint                |
           -------------------------------------------------

          ...................................................
          :                      SETUP                      :
          :.................................................:
          :  # basis functions                 105          :
          :  # atomic orbitals                 105          :
          :  # shells                           63          :
          :  # electrons                       112          :
          :  max. iterations                   250          :
          :  Hamiltonian                  GFN2-xTB          :
          :  restarted?                      false          :
          :  GBSA solvation                  false          :
          :  PC potential                    false          :
          :  electronic temp.          300.0000000     K    :
          :  accuracy                    1.0000000          :
          :  -> integral cutoff          0.2500000E+02      :
          :  -> integral neglect         0.1000000E-07      :
          :  -> SCF convergence          0.1000000E-05 Eh   :
          :  -> wf. convergence          0.1000000E-03 e    :
          :  Broyden damping             0.4000000          :
          :  net charge                          0          :
          :  unpaired electrons                  0          :
          ...................................................

 iter      E             dE          RMSdq      gap      omega  full diag
   1    -63.1506211 -0.631506E+02  0.104E-04    3.22       0.0  T
   2    -63.1506211 -0.377227E-10  0.716E-05    3.22     215.5  T
   3    -63.1506211 -0.211244E-10  0.505E-05    3.22     305.6  T

   *** convergence criteria satisfied after 3 iterations ***

         #    Occupation            Energy/Eh            Energy/eV
      -------------------------------------------------------------
         1        2.0000           -0.7470885             -20.3293
       ...           ...                  ...                  ...
        50        2.0000           -0.4241080             -11.5406
        51        2.0000           -0.4186156             -11.3911
        52        2.0000           -0.4120489             -11.2124
        53        2.0000           -0.4049753             -11.0199
        54        2.0000           -0.3951813             -10.7534
        55        2.0000           -0.3765038             -10.2452
        56        2.0000           -0.3576083              -9.7310 (HOMO)
        57                         -0.2392739              -6.5110 (LUMO)
        58                         -0.2241609              -6.0997
        59                         -0.1949932              -5.3060
        60                         -0.1552998              -4.2259
        61                         -0.0699730              -1.9041
       ...                                ...                  ...
       105                          0.7210963              19.6220
      -------------------------------------------------------------
                  HL-Gap            0.1183344 Eh            3.2200 eV
             Fermi-level           -0.2984411 Eh           -8.1210 eV

 SCC (total)                   0 d,  0 h,  0 min,  0.038 sec
 SCC setup                      ...        0 min,  0.000 sec (  0.737%)
 Dispersion                     ...        0 min,  0.000 sec (  0.764%)
 classical contributions        ...        0 min,  0.000 sec (  0.356%)
 integral evaluation            ...        0 min,  0.007 sec ( 18.801%)
 iterations                     ...        0 min,  0.006 sec ( 14.632%)
 molecular gradient             ...        0 min,  0.025 sec ( 64.337%)
 printout                       ...        0 min,  0.000 sec (  0.353%)

         :::::::::::::::::::::::::::::::::::::::::::::::::::::
         ::                     SUMMARY                     ::
         :::::::::::::::::::::::::::::::::::::::::::::::::::::
         :: total energy             -62.291110073603 Eh    ::
         :: gradient norm              0.000259822038 Eh/a0 ::
         :: HOMO-LUMO gap              3.220043106267 eV    ::
         ::.................................................::
         :: SCC energy               -63.149954576243 Eh    ::
         :: -> isotropic ES            0.074601274437 Eh    ::
         :: -> anisotropic ES          0.009076332053 Eh    ::
         :: -> anisotropic XC          0.017571829634 Eh    ::
         :: -> dispersion             -0.045435708448 Eh    ::
         :: repulsion energy           0.858844502639 Eh    ::
         :: add. restraining           0.000000000000 Eh    ::
         :: total charge              -0.000000000000 e     ::
         :::::::::::::::::::::::::::::::::::::::::::::::::::::

           -------------------------------------------------
          |                Property Printout                |
           -------------------------------------------------

    * Orbital Energies and Occupations

         #    Occupation            Energy/Eh            Energy/eV
      -------------------------------------------------------------
         1        2.0000           -0.7470885             -20.3293
       ...           ...                  ...                  ...
        44        2.0000           -0.4545384             -12.3686
        45        2.0000           -0.4477233             -12.1832
        46        2.0000           -0.4428178             -12.0497
        47        2.0000           -0.4407222             -11.9927
        48        2.0000           -0.4359342             -11.8624
        49        2.0000           -0.4299402             -11.6993
        50        2.0000           -0.4241080             -11.5406
        51        2.0000           -0.4186156             -11.3911
        52        2.0000           -0.4120489             -11.2124
        53        2.0000           -0.4049753             -11.0199
        54        2.0000           -0.3951813             -10.7534
        55        2.0000           -0.3765038             -10.2452
        56        2.0000           -0.3576083              -9.7310 (HOMO)
        57                         -0.2392739              -6.5110 (LUMO)
        58                         -0.2241609              -6.0997
        59                         -0.1949932              -5.3060
        60                         -0.1552998              -4.2259
        61                         -0.0699730              -1.9041
        62                         -0.0010622              -0.0289
        63                          0.0127319               0.3465
        64                          0.0443871               1.2078
        65                          0.0592191               1.6114
        66                          0.0740851               2.0160
        67                          0.0858321               2.3356
       ...                                ...                  ...
       105                          0.7210963              19.6220
      -------------------------------------------------------------
                  HL-Gap            0.1183344 Eh            3.2200 eV
             Fermi-level           -0.2984411 Eh           -8.1210 eV

     #   Z          covCN         q      C6AA      α(0)
     1   6 C        3.753    -0.099    22.440     6.755
     2   6 C        3.805    -0.056    21.569     6.612
     3   6 C        2.960    -0.011    28.286     8.723
     4   6 C        2.929    -0.047    29.165     8.857
     5   6 C        2.919    -0.043    29.059     8.840
     6   6 C        2.911    -0.041    29.007     8.832
     7   6 C        3.108    -0.022    28.401     8.731
     8   6 C        3.094     0.037    27.057     8.525
     9   7 N        2.774    -0.119    23.588     7.213
    10   6 C        3.089     0.018    27.515     8.598
    11   6 C        3.071    -0.033    28.742     8.791
    12   6 C        3.805    -0.064    21.723     6.635
    13   6 C        3.699     0.079    19.412     6.301
    14   8 O        1.701    -0.322    19.388     5.945
    15   6 C        3.795     0.146    18.234     6.081
    16   6 C        3.804    -0.062    21.689     6.630
    17   6 C        3.752    -0.104    22.540     6.770
    18   6 C        3.804    -0.100    22.412     6.740
    19   6 C        2.689     0.371    20.705     7.447
    20   8 O        1.660    -0.375    20.367     6.092
    21   8 O        0.856    -0.405    21.779     6.257
    22   1 H        0.925     0.039     2.466     2.456
    23   1 H        0.925     0.031     2.577     2.511
    24   1 H        0.925     0.034     2.530     2.488
    25   1 H        0.924     0.027     2.635     2.539
    26   1 H        0.924     0.037     2.485     2.465
    27   1 H        0.926     0.026     2.637     2.540
    28   1 H        0.926     0.026     2.647     2.544
    29   1 H        0.926     0.027     2.625     2.533
    30   1 H        0.860     0.159     1.340     1.813
    31   1 H        0.924     0.041     2.435     2.441
    32   1 H        0.924     0.047     2.361     2.403
    33   1 H        0.924     0.031     2.575     2.509
    34   1 H        0.924     0.049     2.330     2.387
    35   1 H        0.924     0.029     2.600     2.522
    36   1 H        0.925     0.060     2.193     2.316
    37   1 H        0.925     0.038     2.481     2.463
    38   1 H        0.925     0.038     2.472     2.459
    39   1 H        0.925     0.055     2.257     2.349
    40   1 H        0.925     0.060     2.194     2.316
    41   1 H        0.924     0.064     2.158     2.297
    42   1 H        0.804     0.330     0.636     1.253

 Mol. C6AA /au·bohr⁶  :      17928.485680
 Mol. C8AA /au·bohr⁸  :     415629.276251
 Mol. α(0) /au        :        204.978828


Wiberg/Mayer (AO) data.
largest (>0.10) Wiberg bond orders for each atom

 ---------------------------------------------------------------------------
     #   Z sym  total        # sym  WBO       # sym  WBO       # sym  WBO
 ---------------------------------------------------------------------------
     1   6 C    3.996 --     2 C    1.003    22 H    0.989    23 H    0.988
                            24 H    0.987
     2   6 C    3.997 --     3 C    1.009     1 C    1.003    26 H    0.976
                            25 H    0.971
     3   6 C    3.985 --     4 C    1.465     8 C    1.316     2 C    1.009
                             6 C    0.109
     4   6 C    3.987 --     3 C    1.465     5 C    1.373    27 H    0.970
     5   6 C    3.991 --     6 C    1.504     4 C    1.373    28 H    0.972
     6   6 C    3.988 --     5 C    1.504     7 C    1.326    29 H    0.970
                             3 C    0.109
     7   6 C    3.983 --     6 C    1.326     8 C    1.251    11 C    1.205
     8   6 C    3.953 --     3 C    1.316     7 C    1.251     9 N    1.167
     9   7 N    3.524 --    10 C    1.171     8 C    1.167    30 H    0.943
    10   6 C    3.950 --    11 C    1.550     9 N    1.171    15 C    0.988
    11   6 C    3.974 --    10 C    1.550     7 C    1.205    12 C    1.015
    12   6 C    3.997 --    11 C    1.015    13 C    0.994    31 H    0.969
                            32 H    0.963
    13   6 C    3.951 --    12 C    0.994    14 O    0.978    34 H    0.970
                            33 H    0.970
    14   8 O    2.082 --    13 C    0.978    15 C    0.973
    15   6 C    3.953 --    10 C    0.988    14 O    0.973    16 C    0.969
                            18 C    0.923
    16   6 C    3.991 --    17 C    1.019    35 H    0.975    36 H    0.971
                            15 C    0.969
    17   6 C    3.994 --    16 C    1.019    38 H    0.987    37 H    0.986
                            39 H    0.985
    18   6 C    3.991 --    19 C    0.978    41 H    0.973    40 H    0.965
                            15 C    0.923
    19   6 C    3.913 --    21 O    1.771    20 O    1.131    18 C    0.978
    20   8 O    2.200 --    19 C    1.131    42 H    0.866    21 O    0.172
    21   8 O    2.041 --    19 C    1.771    20 O    0.172
    22   1 H    0.998 --     1 C    0.989
    23   1 H    0.999 --     1 C    0.988
    24   1 H    0.998 --     1 C    0.987
    25   1 H    0.999 --     2 C    0.971
    26   1 H    0.998 --     2 C    0.976
    27   1 H    0.999 --     4 C    0.970
    28   1 H    0.999 --     5 C    0.972
    29   1 H    0.998 --     6 C    0.970
    30   1 H    0.974 --     9 N    0.943
    31   1 H    0.998 --    12 C    0.969
    32   1 H    0.997 --    12 C    0.963
    33   1 H    0.999 --    13 C    0.970
    34   1 H    0.997 --    13 C    0.970
    35   1 H    0.999 --    16 C    0.975
    36   1 H    0.996 --    16 C    0.971
    37   1 H    0.999 --    17 C    0.986
    38   1 H    0.998 --    17 C    0.987
    39   1 H    0.997 --    17 C    0.985
    40   1 H    0.996 --    18 C    0.965
    41   1 H    0.996 --    18 C    0.973
    42   1 H    0.890 --    20 O    0.866
 ---------------------------------------------------------------------------

Topologies differ in total number of bonds
Writing topology from bond orders to xtbtopo.mol

molecular dipole:
                 x           y           z       tot (Debye)
 q only:        0.305       0.590       0.849
   full:        0.291       0.914       0.841       3.241
molecular quadrupole (traceless):
                xx          xy          yy          xz          yz          zz
 q only:       -1.004       0.668       5.969      -6.340       5.206      -4.965
  q+dip:        1.887      -0.533       7.593      -4.647       7.452      -9.480
   full:        0.136       0.103       7.531      -5.425       5.763      -7.667

           -------------------------------------------------
          |                Geometry Summary                 |
           -------------------------------------------------

      molecular mass/u    :      287.3541840
   center of mass at/Å    :       -0.2555014      -0.0240856      -0.0432517
  moments of inertia/u·Å² :        0.9155708E+03   0.2534674E+04   0.2854352E+04
rotational constants/cm⁻¹ :        0.1841216E-01   0.6650808E-02   0.5905939E-02

 * 41 selected distances

     #   Z          #   Z                                           value/Å
     1   6 C        2   6 C                                       1.5302712
     3   6 C        4   6 C                                       1.3817919
     4   6 C        5   6 C                                       1.3971744
     5   6 C        6   6 C                                       1.3755927
     6   6 C        7   6 C                                       1.3946587
     3   6 C        8   6 C                                       1.3944601
     7   6 C        8   6 C                                       1.4169281
     8   6 C        9   7 N                                       1.3690955
     9   7 N       10   6 C                                       1.3716152
     7   6 C       11   6 C                                       1.4255037
    10   6 C       11   6 C                                       1.3650527
    11   6 C       12   6 C                                       1.4916697
    12   6 C       13   6 C                                       1.5332843
    13   6 C       14   8 O                                       1.4152131
    10   6 C       15   6 C                                       1.4962438
    14   8 O       15   6 C                                       1.4205887
    15   6 C       16   6 C                                       1.5390789 (max)
    16   6 C       17   6 C                                       1.5238933
    19   6 C       20   8 O                                       1.3385804
    19   6 C       21   8 O                                       1.2004859
     1   6 C       22   1 H                                       1.0873894
     1   6 C       23   1 H                                       1.0880228
     1   6 C       24   1 H                                       1.0879574
     2   6 C       25   1 H                                       1.0937896
     2   6 C       26   1 H                                       1.0914113
     4   6 C       27   1 H                                       1.0806986
     5   6 C       28   1 H                                       1.0802228
     6   6 C       29   1 H                                       1.0794665
     9   7 N       30   1 H                                       1.0044539
    12   6 C       31   1 H                                       1.0910804
    12   6 C       32   1 H                                       1.0942127
    13   6 C       33   1 H                                       1.0972300
    13   6 C       34   1 H                                       1.0918357
    16   6 C       35   1 H                                       1.0918534
    16   6 C       36   1 H                                       1.0895773
    17   6 C       37   1 H                                       1.0879429
    17   6 C       38   1 H                                       1.0872333
    17   6 C       39   1 H                                       1.0859477
    18   6 C       40   1 H                                       1.0888221
    18   6 C       41   1 H                                       1.0905381
    20   8 O       42   1 H                                       0.9703944 (min)

 * 6 distinct bonds (by element types)

   Z      Z             #   av. dist./Å        max./Å        min./Å
   1 H    6 C          19     1.0886964     1.0972300     1.0794665
   6 C    6 C          14     1.4475431     1.5390789     1.3650527
[...]
   for GFN-FF:
   * S. Spicher and S. Grimme, Angew. Chem. Int. Ed., 2020, 59, 15665-15673.
     DOI: 10.1002/anie.202004239
   
   for ALPB and GBSA implicit solvation:
   * S. Ehlert, M. Stahn, S. Spicher, S. Grimme, J. Chem. Theory Comput.,
     2021, 17, 4250-4261. DOI: 10.1021/acs.jctc.1c00471
   
   for ddCOSMO and CPCM-X implicit solvation:
   * M. Stahn, S. Ehlert, S. Grimme, J. Phys. Chem. A,
     2023, XX, XXXX-XXXX. DOI: 10.1021/acs.jpca.3c04382
   
   for DFT-D4:
   * E. Caldeweyher, C. Bannwarth and S. Grimme, J. Chem. Phys., 2017,
     147, 034112. DOI: 10.1063/1.4993215
   * E. Caldeweyher, S. Ehlert, A. Hansen, H. Neugebauer, S. Spicher,
     C. Bannwarth and S. Grimme, J. Chem. Phys., 2019, 150, 154122.
     DOI: 10.1063/1.5090222
   * E. Caldeweyher, J.-M. Mewes, S. Ehlert and S. Grimme, Phys. Chem. Chem. Phys.
     2020, 22, 8499-8512. DOI: 10.1039/D0CP00502A
   
   for sTDA-xTB:
   * S. Grimme and C. Bannwarth, J. Chem. Phys., 2016, 145, 054103.
     DOI: 10.1063/1.4959605
   
   in the mass-spec context:
   * V. Asgeirsson, C. Bauer and S. Grimme, Chem. Sci., 2017, 8, 4879.
     DOI: 10.1039/c7sc00601b
   * J. Koopman and S. Grimme, ACS Omega 2019, 4, 12, 15120-15133.
     DOI: 10.1021/acsomega.9b02011
   
   for metadynamics refer to:
   * S. Grimme, J. Chem. Theory Comput., 2019, 155, 2847-2862
     DOI: 10.1021/acs.jctc.9b00143
   
   for SPH calculations refer to:
   * S. Spicher and S. Grimme, J. Chem. Theory Comput., 2021, 17, 1701-1714
     DOI: 10.1021/acs.jctc.0c01306
   
   for ONIOM refer to:
   * C. Plett, A. Katbashev, S. Ehlert, S. Grimme, M. Bursch,
     Phys. Chem. Chem. Phys., 2023, 25, 17860-17868. DOI: 10.1039/D3CP02178E
   
   for DIPRO refer to:
   * J. Kohn, N. Gildemeister, S. Grimme, D. Fazzi, A. Hansen,
     J. Chem. Phys., 2023, just accepted.
   
   for PTB refer to:
   * S. Grimme, M. Mueller, A. Hansen, J. Chem. Phys., 2023, 158, 124111.
     DOI: 10.1063/5.0137838
   
   with help from (in alphabetical order)
   P. Atkinson, C. Bannwarth, F. Bohle, G. Brandenburg, E. Caldeweyher
   M. Checinski, S. Dohm, S. Ehlert, S. Ehrlich, I. Gerasimov, C. Hölzer
   A. Katbashev, J. Kohn, J. Koopman, C. Lavigne, S. Lehtola, F. März, M. Müller,
   F. Musil, H. Neugebauer, J. Pisarek, C. Plett, P. Pracht, F. Pultar,
   J. Seibert, P. Shushkov, S. Spicher, M. Stahn, M. Steiner, T. Strunk,
   J. Stückrath, T. Rose, and J. Unsleber
   
 * started run on 2025/05/15 at 16:25:26.932     
   ID    Z sym.   atoms
    1    6 C      1-8, 10-13, 15-19
    2    7 N      9
    3    8 O      14, 20, 21
    4    1 H      22-42

           -------------------------------------------------
          |                Calculation Setup                |
           -------------------------------------------------

          program call               : xtb /rds/general/user/hgt20/home/callum/QDESCP/Etodolac_rdkit_conf_17/Etodolac_rdkit_conf_17.xyz --acc 1 --gfn 2 --chrg 0 --uhf 2 --etemp 300 --input /rds/general/user/hgt20/home/callum/QDESCP/Etodolac_rdkit_conf_17/Etodolac_rdkit_conf_17_xtb.inp -P 1
          hostname                   : login-c
          coordinate file            : /rds/general/user/hgt20/home/callum/QDESCP/Etodolac_rdkit_conf_17/Etodolac_rdkit_conf_17.xyz
          omp threads                :                     1


           -------------------------------------------------
          |                 G F N 2 - x T B                 |
           -------------------------------------------------

        Reference                      10.1021/acs.jctc.8b01176
      * Hamiltonian:
        H0-scaling (s, p, d)           1.850000    2.230000    2.230000
        zeta-weighting                 0.500000
      * Dispersion:
        s8                             2.700000
        a1                             0.520000
        a2                             5.000000
        s9                             5.000000
      * Repulsion:
        kExp                           1.500000    1.000000
        rExp                           1.000000
      * Coulomb:
        alpha                          2.000000
        third order                    shell-resolved
        anisotropic                    true
        a3                             3.000000
        a5                             4.000000
        cn-shift                       1.200000
        cn-exp                         4.000000
        max-rad                        5.000000


          ...................................................
          :                      SETUP                      :
          :.................................................:
          :  # basis functions                 105          :
          :  # atomic orbitals                 105          :
          :  # shells                           63          :
          :  # electrons                       112          :
          :  max. iterations                   250          :
          :  Hamiltonian                  GFN2-xTB          :
          :  restarted?                      false          :
          :  GBSA solvation                  false          :
          :  PC potential                    false          :
          :  electronic temp.          300.0000000     K    :
          :  accuracy                    1.0000000          :
          :  -> integral cutoff          0.2500000E+02      :
          :  -> integral neglect         0.1000000E-07      :
          :  -> SCF convergence          0.1000000E-05 Eh   :
          :  -> wf. convergence          0.1000000E-03 e    :
          :  Broyden damping             0.4000000          :
          :  net charge                          0          :
          :  unpaired electrons                  2          :
          ...................................................

 iter      E             dE          RMSdq      gap      omega  full diag
   1    -62.8372744 -0.628373E+02  0.372E+00    0.94       0.0  T
   2    -62.7749986  0.622759E-01  0.299E+00    0.50       1.0  T
   3    -62.6215757  0.153423E+00  0.219E+00    0.88       1.0  T
   4    -62.7923140 -0.170738E+00  0.209E+00    0.95       1.0  T
   5    -62.9716523 -0.179338E+00  0.121E+00    0.58       1.0  T
   6    -63.0106906 -0.390384E-01  0.736E-01    0.43       1.0  T
   7    -63.0159897 -0.529903E-02  0.621E-01    0.47       1.0  T
   8    -63.0163340 -0.344381E-03  0.505E-01    0.58       1.0  T
   9    -63.0198794 -0.354539E-02  0.178E-01    0.60       1.0  T
  10    -63.0205920 -0.712578E-03  0.674E-02    0.55       1.0  T
  11    -63.0208048 -0.212738E-03  0.338E-02    0.53       1.0  T
  12    -63.0208396 -0.348938E-04  0.210E-02    0.51       1.0  T
  13    -63.0208554 -0.157207E-04  0.584E-03    0.51       2.6  T
  14    -63.0208560 -0.588476E-06  0.148E-03    0.51      10.4  T
  15    -63.0208560 -0.791040E-07  0.842E-04    0.51      18.3  T
  16    -63.0208560 -0.144502E-07  0.350E-04    0.51      44.1  T

   *** convergence criteria satisfied after 16 iterations ***

         #    Occupation            Energy/Eh            Energy/eV
      -------------------------------------------------------------
         1        2.0000           -0.7292986             -19.8452
       ...           ...                  ...                  ...
        51        2.0000           -0.4172942             -11.3552
        52        2.0000           -0.4139444             -11.2640
        53        2.0000           -0.4062524             -11.0547
        54        2.0000           -0.3978372             -10.8257
        55        1.9996           -0.3820730             -10.3967
        56        1.0004           -0.3669550              -9.9854
        57        0.9999           -0.2340920              -6.3700 (HOMO)
        58        0.0001           -0.2155092              -5.8643 (LUMO)
        59                         -0.2011860              -5.4745
        60                         -0.1646224              -4.4796
        61                         -0.0756373              -2.0582
        62                         -0.0070731              -0.1925
       ...                                ...                  ...
       105                          0.7135476              19.4166
      -------------------------------------------------------------
                  HL-Gap            0.0185828 Eh            0.5057 eV
             Fermi-level           -0.2996573 Eh           -8.1541 eV

 transition dipole moment (au) for excitation:          56          57
     X       Y       Z   
  -0.6057   1.5476   0.4557  total (au/Debye):    1.723   4.380
 dE (eV)             :    3.615
 oscillator strength :  0.37199E+00

 SCC (total)                   0 d,  0 h,  0 min,  0.108 sec
 SCC setup                      ...        0 min,  0.000 sec (  0.300%)
 Dispersion                     ...        0 min,  0.000 sec (  0.398%)
 classical contributions        ...        0 min,  0.000 sec (  0.137%)
 integral evaluation            ...        0 min,  0.046 sec ( 42.086%)
 iterations                     ...        0 min,  0.031 sec ( 28.840%)
 molecular gradient             ...        0 min,  0.024 sec ( 22.046%)
 printout                       ...        0 min,  0.007 sec (  6.188%)

         :::::::::::::::::::::::::::::::::::::::::::::::::::::
         ::                     SUMMARY                     ::
         :::::::::::::::::::::::::::::::::::::::::::::::::::::
         :: total energy             -62.161344972803 Eh    ::
         :: gradient norm              0.155223681272 Eh/a0 ::
         :: HOMO-LUMO gap              0.505664684121 eV    ::
         ::.................................................::
         :: SCC energy               -63.020189475442 Eh    ::
         :: -> isotropic ES            0.077795895623 Eh    ::
         :: -> anisotropic ES          0.008004556180 Eh    ::
         :: -> anisotropic XC          0.017024069770 Eh    ::
         :: -> dispersion             -0.045336206946 Eh    ::
         :: repulsion energy           0.858844502639 Eh    ::
         :: add. restraining           0.000000000000 Eh    ::
         :: total charge               0.000000000006 e     ::
         :::::::::::::::::::::::::::::::::::::::::::::::::::::

           -------------------------------------------------
          |                Property Printout                |
           -------------------------------------------------

    * Orbital Energies and Occupations

         #    Occupation            Energy/Eh            Energy/eV
      -------------------------------------------------------------
         1        2.0000           -0.7292986             -19.8452
       ...           ...                  ...                  ...
        45        2.0000           -0.4527510             -12.3200
        46        2.0000           -0.4456662             -12.1272
        47        2.0000           -0.4430305             -12.0555
        48        2.0000           -0.4396642             -11.9639
        49        2.0000           -0.4315448             -11.7429
        50        2.0000           -0.4245930             -11.5538
        51        2.0000           -0.4172942             -11.3552
        52        2.0000           -0.4139444             -11.2640
        53        2.0000           -0.4062524             -11.0547
        54        2.0000           -0.3978372             -10.8257
        55        1.9996           -0.3820730             -10.3967
        56        1.0004           -0.3669550              -9.9854
        57        0.9999           -0.2340920              -6.3700 (HOMO)
        58        0.0001           -0.2155092              -5.8643 (LUMO)
        59                         -0.2011860              -5.4745
        60                         -0.1646224              -4.4796
        61                         -0.0756373              -2.0582
        62                         -0.0070731              -0.1925
        63                          0.0093119               0.2534
        64                          0.0471895               1.2841
        65                          0.0687406               1.8705
        66                          0.0706540               1.9226
        67                          0.0803515               2.1865
        68                          0.0928722               2.5272
       ...                                ...                  ...
       105                          0.7135476              19.4166
      -------------------------------------------------------------
                  HL-Gap            0.0185828 Eh            0.5057 eV
             Fermi-level           -0.2996573 Eh           -8.1541 eV

     #   Z          covCN         q      C6AA      α(0)
     1   6 C        3.753    -0.098    22.439     6.755
     2   6 C        3.805    -0.055    21.562     6.611
     3   6 C        2.960    -0.020    28.503     8.757
     4   6 C        2.929    -0.044    29.093     8.846
     5   6 C        2.919    -0.040    29.003     8.831
     6   6 C        2.911    -0.043    29.069     8.841
     7   6 C        3.108    -0.032    28.638     8.768
     8   6 C        3.094     0.039    27.017     8.519
     9   7 N        2.774    -0.099    23.186     7.152
    10   6 C        3.089     0.008    27.749     8.635
    11   6 C        3.071    -0.000    27.961     8.670
    12   6 C        3.805    -0.066    21.765     6.642
    13   6 C        3.699     0.079    19.415     6.302
    14   8 O        1.701    -0.318    19.312     5.933
    15   6 C        3.795     0.144    18.263     6.085
    16   6 C        3.804    -0.063    21.709     6.633
    17   6 C        3.752    -0.104    22.547     6.771
    18   6 C        3.804    -0.099    22.393     6.737
    19   6 C        2.689     0.354    20.997     7.499
    20   8 O        1.660    -0.391    20.676     6.138
    21   8 O        0.856    -0.434    22.377     6.342
    22   1 H        0.925     0.040     2.453     2.449
    23   1 H        0.925     0.031     2.576     2.510
    24   1 H        0.925     0.035     2.514     2.480
    25   1 H        0.924     0.026     2.637     2.540
    26   1 H        0.924     0.039     2.466     2.456
    27   1 H        0.926     0.027     2.623     2.533
    28   1 H        0.926     0.027     2.624     2.533
    29   1 H        0.926     0.025     2.654     2.548
    30   1 H        0.860     0.168     1.283     1.775
    31   1 H        0.924     0.053     2.287     2.365
    32   1 H        0.924     0.065     2.142     2.289
    33   1 H        0.924     0.037     2.486     2.466
    34   1 H        0.924     0.053     2.279     2.361
    35   1 H        0.924     0.029     2.601     2.522
    36   1 H        0.925     0.066     2.135     2.285
    37   1 H        0.925     0.035     2.523     2.484
    38   1 H        0.925     0.039     2.459     2.452
    39   1 H        0.925     0.055     2.263     2.353
    40   1 H        0.925     0.054     2.272     2.357
    41   1 H        0.924     0.056     2.246     2.344
    42   1 H        0.804     0.324     0.652     1.268

 Mol. C6AA /au·bohr⁶  :      17906.423879
 Mol. C8AA /au·bohr⁸  :     415363.293864
 Mol. α(0) /au        :        204.833960


Wiberg/Mayer (AO) data.
largest (>0.10) Wiberg bond orders for each atom

 ---------------------------------------------------------------------------
     #   Z sym  total        # sym  WBO       # sym  WBO       # sym  WBO
 ---------------------------------------------------------------------------
     1   6 C    3.988 --     2 C    0.993    22 H    0.988    23 H    0.988
                            24 H    0.986
     2   6 C    3.996 --     3 C    1.017     1 C    0.993    26 H    0.975
                            25 H    0.969
     3   6 C    3.839 --     8 C    1.356     4 C    1.169     2 C    1.017
                            10 C    0.104
     4   6 C    3.896 --     5 C    1.512     3 C    1.169    27 H    0.970
     5   6 C    3.983 --     4 C    1.512     6 C    1.339    28 H    0.971
     6   6 C    3.808 --     5 C    1.339     7 C    1.188    29 H    0.970
                            11 C    0.104
     7   6 C    3.962 --    11 C    1.311     8 C    1.251     6 C    1.188
     8   6 C    3.950 --     3 C    1.356     7 C    1.251     9 N    1.127
     9   7 N    3.551 --    10 C    1.237     8 C    1.127    30 H    0.940
    10   6 C    3.842 --     9 N    1.237    11 C    1.205    15 C    1.008
                             3 C    0.104
    11   6 C    3.895 --     7 C    1.311    10 C    1.205    12 C    1.036
                             6 C    0.104
    12   6 C    3.995 --    11 C    1.036    13 C    0.990    31 H    0.961
                            32 H    0.942
    13   6 C    3.951 --    12 C    0.990    14 O    0.982    34 H    0.970
                            33 H    0.969
    14   8 O    2.084 --    13 C    0.982    15 C    0.971
    15   6 C    3.951 --    10 C    1.008    14 O    0.971    16 C    0.964
                            18 C    0.907
    16   6 C    3.986 --    17 C    1.019    35 H    0.975    36 H    0.970
                            15 C    0.964
    17   6 C    3.994 --    16 C    1.019    37 H    0.986    38 H    0.986
                            39 H    0.985
    18   6 C    3.982 --    19 C    0.981    41 H    0.974    40 H    0.967
                            15 C    0.907
    19   6 C    3.856 --    21 O    1.710    20 O    1.101    18 C    0.981
    20   8 O    2.162 --    19 C    1.101    42 H    0.870    21 O    0.156
    21   8 O    1.975 --    19 C    1.710    20 O    0.156
    22   1 H    0.998 --     1 C    0.988
    23   1 H    0.999 --     1 C    0.988
    24   1 H    0.997 --     1 C    0.986
    25   1 H    0.998 --     2 C    0.969
    26   1 H    0.997 --     2 C    0.975
    27   1 H    0.999 --     4 C    0.970
    28   1 H    0.999 --     5 C    0.971
    29   1 H    0.998 --     6 C    0.970
    30   1 H    0.971 --     9 N    0.940
    31   1 H    0.993 --    12 C    0.961
    32   1 H    0.985 --    12 C    0.942
    33   1 H    0.998 --    13 C    0.969
    34   1 H    0.996 --    13 C    0.970
    35   1 H    0.999 --    16 C    0.975
    36   1 H    0.995 --    16 C    0.970
    37   1 H    0.999 --    17 C    0.986
    38   1 H    0.998 --    17 C    0.986
    39   1 H    0.997 --    17 C    0.985
    40   1 H    0.996 --    18 C    0.967
    41   1 H    0.996 --    18 C    0.974
    42   1 H    0.894 --    20 O    0.870
 ---------------------------------------------------------------------------

Topologies differ in total number of bonds
Writing topology from bond orders to xtbtopo.mol

molecular dipole:
                 x           y           z       tot (Debye)
 q only:        0.705       0.102       1.019
   full:        0.720       0.395       1.025       3.340
molecular quadrupole (traceless):
                xx          xy          yy          xz          yz          zz
 q only:       -3.164       4.600       7.403      -8.093       7.162      -4.239
  q+dip:       -0.547       4.398       8.923      -6.465       9.351      -8.376
   full:       -2.407       4.633       8.985      -7.381       7.729      -6.578


           -------------------------------------------------
          | TOTAL ENERGY              -62.161344972803 Eh   |
          | GRADIENT NORM               0.155223681272 Eh/α |
          | HOMO-LUMO GAP               0.505664684121 eV   |
           -------------------------------------------------

------------------------------------------------------------------------
 * finished run on 2025/05/15 at 16:25:27.080     
------------------------------------------------------------------------
 total:
 * wall-time:     0 d,  0 h,  0 min,  0.148 sec
 *  cpu-time:     0 d,  0 h,  0 min,  0.081 sec
 * ratio c/w:     0.550 speedup
 SCF:
 * wall-time:     0 d,  0 h,  0 min,  0.108 sec
 *  cpu-time:     0 d,  0 h,  0 min,  0.070 sec
 * ratio c/w:     0.646 speedup


