51
 energy: -84.107985636959 gnorm: 0.000523408903 xtb: 6.7.1 (edcfbbe)
F            8.50789037011162        2.35626709196587        0.17198009241711
C            7.51478785170411        1.45900053367243        0.02859531081893
C            6.33846405363174        1.64351481619992        0.73431633190315
C            5.31628140927258        0.72511295377676        0.58696015137971
C            5.46641795222039       -0.37207462818423       -0.26024692540090
C            6.67070156029052       -0.53273188072246       -0.94906170547491
C            7.69916649207971        0.37684191985723       -0.81455051001970
C            4.41995922678419       -1.41132998403189       -0.47821143169552
C            3.00848641544763       -1.08713182587649       -0.03044420016363
C            2.41153253042899       -0.00391960612390       -0.93967479096373
C            0.97857296175308        0.29419680208155       -0.50258769017875
N            0.18880223120796       -0.91544602528497       -0.59380722292586
C            0.68362861432745       -1.93666973760180        0.30772189522812
C            2.10540632900611       -2.31784576161771       -0.09263825072730
C           -1.23508089273126       -0.71267717594678       -0.55754274134920
C           -1.79808831906327       -0.14900164293011        0.76619570410246
N           -3.24161227220781       -0.00458557153775        0.68197272549981
C           -3.99729998524521       -1.10088802178475        1.05105434399873
N           -5.35628951896052       -0.94473604520631        0.94628132917653
C           -5.98529825741436        0.19112870592613        0.49723289507073
C           -7.37449440361936        0.27595098037389        0.42223551757701
C           -7.96428361536443        1.43688055324359       -0.03304100980692
C           -7.18724097935660        2.52424641082351       -0.42015476858121
C           -5.81347190269928        2.44551988187901       -0.35105164062777
C           -5.19942923158026        1.28050451077612        0.10862997405744
C           -3.73866629556118        1.19386930075461        0.18268310044696
O           -2.98742421805616        2.08619697892700       -0.15010352066623
O           -3.51112531722369       -2.13363426756816        1.45103736425660
O            4.69481254111141       -2.45719577075154       -1.02266300166321
H            6.23703655790128        2.49548485151104        1.38814207024878
H            4.40954600280703        0.87021474075707        1.15192810773734
H            6.77652930456477       -1.39149611878507       -1.59459878857529
H            8.63075495962615        0.26069627439462       -1.34517262204008
H            3.03318170651541       -0.71706320850864        0.99989704603705
H            2.39898182827135       -0.37280937380969       -1.96608788130891
H            3.00837370076101        0.90887022657597       -0.90631829436625
H            0.99616658448949        0.70423368267845        0.52372339611408
H            0.53933945722161        1.04575028684077       -1.16214125074363
H            0.68548490717992       -1.59525136388100        1.35873889735611
H            0.02977193241665       -2.80773095027485        0.23520959798802
H            2.10531552418693       -2.70818378053848       -1.11019456697666
H            2.48536637478315       -3.09630749410469        0.57023771122123
H           -1.49924201158401       -0.02195745228420       -1.36409514970507
H           -1.71684811864111       -1.67555555391173       -0.75181122328943
H           -1.58039385520657       -0.83011138034976        1.58979274090914
H           -1.38322261797313        0.84095992916801        0.96191254940719
H           -5.91063453564805       -1.74496422762271        1.22002089250754
H           -7.97658350739531       -0.56881116371306        0.72234196934653
H           -9.04055420077758        1.49974710300671       -0.08866644770738
H           -7.66240561722736        3.42576155677932       -0.77370468989721
H           -5.18116970656961        3.26915992097388       -0.64447138995430
