----- Optimization -----
      -----------------------------------------------------------      
     |                   =====================                   |     
     |                           x T B                           |     
     |                   =====================                   |     
     |                         S. Grimme                         |     
     |          Mulliken Center for Theoretical Chemistry        |     
     |                    University of Bonn                     |     
      -----------------------------------------------------------      

   * xtb version 6.7.1 (edcfbbe) compiled by 'conda@3ef47c1a292c' on 2024-11-25

   xtb is free software: you can redistribute it and/or modify it under
   the terms of the GNU Lesser General Public License as published by
   the Free Software Foundation, either version 3 of the License, or
   (at your option) any later version.
   
   xtb is distributed in the hope that it will be useful,
   but WITHOUT ANY WARRANTY; without even the implied warranty of
   MERCHANTABILITY or FITNESS FOR A PARTICULAR PURPOSE.  See the
   GNU Lesser General Public License for more details.
   
   Cite this work as:
   * C. Bannwarth, E. Caldeweyher, S. Ehlert, A. Hansen, P. Pracht,
     J. Seibert, S. Spicher, S. Grimme, WIREs Comput. Mol. Sci., 2020, 11,
     e01493. DOI: 10.1002/wcms.1493
   
   for GFN2-xTB:
   * C. Bannwarth, S. Ehlert and S. Grimme., J. Chem. Theory Comput., 2019,
     15, 1652-1671. DOI: 10.1021/acs.jctc.8b01176
   for GFN1-xTB:
   * S. Grimme, C. Bannwarth, P. Shushkov, J. Chem. Theory Comput., 2017,
     13, 1989-2009. DOI: 10.1021/acs.jctc.7b00118
   for GFN0-xTB:
   * P. Pracht, E. Caldeweyher, S. Ehlert, S. Grimme, ChemRxiv, 2019, preprint.
     DOI: 10.26434/chemrxiv.8326202.v1
   for GFN-FF:
   * S. Spicher and S. Grimme, Angew. Chem. Int. Ed., 2020, 59, 15665-15673.
     DOI: 10.1002/anie.202004239
   
   for ALPB and GBSA implicit solvation:
   * S. Ehlert, M. Stahn, S. Spicher, S. Grimme, J. Chem. Theory Comput.,
     2021, 17, 4250-4261. DOI: 10.1021/acs.jctc.1c00471
   
   for ddCOSMO and CPCM-X implicit solvation:
   * M. Stahn, S. Ehlert, S. Grimme, J. Phys. Chem. A,
     2023, XX, XXXX-XXXX. DOI: 10.1021/acs.jpca.3c04382
   
   for DFT-D4:
   * E. Caldeweyher, C. Bannwarth and S. Grimme, J. Chem. Phys., 2017,
     147, 034112. DOI: 10.1063/1.4993215
   * E. Caldeweyher, S. Ehlert, A. Hansen, H. Neugebauer, S. Spicher,
     C. Bannwarth and S. Grimme, J. Chem. Phys., 2019, 150, 154122.
     DOI: 10.1063/1.5090222
   * E. Caldeweyher, J.-M. Mewes, S. Ehlert and S. Grimme, Phys. Chem. Chem. Phys.
     2020, 22, 8499-8512. DOI: 10.1039/D0CP00502A
   
   for sTDA-xTB:
   * S. Grimme and C. Bannwarth, J. Chem. Phys., 2016, 145, 054103.
     DOI: 10.1063/1.4959605
   
   in the mass-spec context:
   * V. Asgeirsson, C. Bauer and S. Grimme, Chem. Sci., 2017, 8, 4879.
     DOI: 10.1039/c7sc00601b
   * J. Koopman and S. Grimme, ACS Omega 2019, 4, 12, 15120-15133.
     DOI: 10.1021/acsomega.9b02011
   
   for metadynamics refer to:
   * S. Grimme, J. Chem. Theory Comput., 2019, 155, 2847-2862
     DOI: 10.1021/acs.jctc.9b00143
   
   for SPH calculations refer to:
   * S. Spicher and S. Grimme, J. Chem. Theory Comput., 2021, 17, 1701-1714
     DOI: 10.1021/acs.jctc.0c01306
   
   for ONIOM refer to:
   * C. Plett, A. Katbashev, S. Ehlert, S. Grimme, M. Bursch,
     Phys. Chem. Chem. Phys., 2023, 25, 17860-17868. DOI: 10.1039/D3CP02178E
   
   for DIPRO refer to:
   * J. Kohn, N. Gildemeister, S. Grimme, D. Fazzi, A. Hansen,
     J. Chem. Phys., 2023, just accepted.
   
   for PTB refer to:
   * S. Grimme, M. Mueller, A. Hansen, J. Chem. Phys., 2023, 158, 124111.
     DOI: 10.1063/5.0137838
   
   with help from (in alphabetical order)
   P. Atkinson, C. Bannwarth, F. Bohle, G. Brandenburg, E. Caldeweyher
   M. Checinski, S. Dohm, S. Ehlert, S. Ehrlich, I. Gerasimov, C. Hölzer
   A. Katbashev, J. Kohn, J. Koopman, C. Lavigne, S. Lehtola, F. März, M. Müller,
   F. Musil, H. Neugebauer, J. Pisarek, C. Plett, P. Pracht, F. Pultar,
   J. Seibert, P. Shushkov, S. Spicher, M. Stahn, M. Steiner, T. Strunk,
   J. Stückrath, T. Rose, and J. Unsleber
   
 * started run on 2025/05/15 at 16:36:55.114     
   ID    Z sym.   atoms
    1    9 F      1
    2    6 C      2-11, 13-16, 18, 20-26
    3    7 N      12, 17, 19
    4    8 O      27-29
    5    1 H      30-51

           -------------------------------------------------
          |                Calculation Setup                |
           -------------------------------------------------

          program call               : xtb /rds/general/user/hgt20/home/callum/QDESCP/Ketanserin_rdkit_conf_10/Ketanserin_rdkit_conf_10.xyz --opt normal --acc 1 --gfn 2 --chrg 0 --uhf 0 -P 1
          hostname                   : login-c
          coordinate file            : /rds/general/user/hgt20/home/callum/QDESCP/Ketanserin_rdkit_conf_10/Ketanserin_rdkit_conf_10.xyz
          omp threads                :                     1


           -------------------------------------------------
          |                 G F N 2 - x T B                 |
           -------------------------------------------------

        Reference                      10.1021/acs.jctc.8b01176
      * Hamiltonian:
        H0-scaling (s, p, d)           1.850000    2.230000    2.230000
        zeta-weighting                 0.500000
      * Dispersion:
        s8                             2.700000
        a1                             0.520000
        a2                             5.000000
        s9                             5.000000
      * Repulsion:
        kExp                           1.500000    1.000000
        rExp                           1.000000
      * Coulomb:
        alpha                          2.000000
        third order                    shell-resolved
        anisotropic                    true
        a3                             3.000000
        a5                             4.000000
        cn-shift                       1.200000
        cn-exp                         4.000000
        max-rad                        5.000000


          ...................................................
          :                      SETUP                      :
          :.................................................:
          :  # basis functions                 138          :
          :  # atomic orbitals                 138          :
          :  # shells                           80          :
          :  # electrons                       150          :
          :  max. iterations                   250          :
          :  Hamiltonian                  GFN2-xTB          :
          :  restarted?                      false          :
          :  GBSA solvation                  false          :
          :  PC potential                    false          :
          :  electronic temp.          300.0000000     K    :
          :  accuracy                    1.0000000          :
          :  -> integral cutoff          0.2500000E+02      :
          :  -> integral neglect         0.1000000E-07      :
          :  -> SCF convergence          0.1000000E-05 Eh   :
          :  -> wf. convergence          0.1000000E-03 e    :
          :  Broyden damping             0.4000000          :
          :  net charge                          0          :
          :  unpaired electrons                  0          :
          ...................................................

 iter      E             dE          RMSdq      gap      omega  full diag
   1    -84.9928159 -0.849928E+02  0.430E+00    2.46       0.0  T
   2    -85.1547708 -0.161955E+00  0.248E+00    2.11       1.0  T
   3    -85.1641140 -0.934317E-02  0.138E+00    2.01       1.0  T
   4    -85.1776932 -0.135792E-01  0.315E-01    1.63       1.0  T
   5    -85.1810898 -0.339658E-02  0.935E-02    1.66       1.0  T
   6    -85.1811964 -0.106684E-03  0.501E-02    1.70       1.0  T
   7    -85.1812513 -0.548377E-04  0.194E-02    1.70       1.0  T
   8    -85.1812527 -0.144237E-05  0.803E-03    1.70       1.7  T
   9    -85.1812537 -0.102284E-05  0.354E-03    1.70       4.0  T
  10    -85.1812539 -0.133272E-06  0.117E-03    1.70      11.9  T
  11    -85.1812539 -0.194524E-07  0.617E-04    1.70      22.7  T
  12    -85.1812539 -0.401806E-08  0.189E-04    1.70      74.1  T

   *** convergence criteria satisfied after 12 iterations ***

         #    Occupation            Energy/Eh            Energy/eV
      -------------------------------------------------------------
         1        2.0000           -0.8285208             -22.5452
       ...           ...                  ...                  ...
        69        2.0000           -0.4289693             -11.6728
        70        2.0000           -0.4275415             -11.6340
        71        2.0000           -0.4214605             -11.4685
        72        2.0000           -0.4131570             -11.2426
        73        2.0000           -0.4090374             -11.1305
        74        2.0000           -0.3949275             -10.7465
        75        2.0000           -0.3530521              -9.6070 (HOMO)
        76                         -0.2905420              -7.9060 (LUMO)
        77                         -0.2845028              -7.7417
        78                         -0.2557702              -6.9599
        79                         -0.2543840              -6.9221
        80                         -0.2257783              -6.1437
       ...                                ...                  ...
       138                          0.6624454              18.0261
      -------------------------------------------------------------
                  HL-Gap            0.0625101 Eh            1.7010 eV
             Fermi-level           -0.3217970 Eh           -8.7565 eV

 SCC (total)                   0 d,  0 h,  0 min,  0.170 sec
 SCC setup                      ...        0 min,  0.000 sec (  0.285%)
 Dispersion                     ...        0 min,  0.001 sec (  0.394%)
 classical contributions        ...        0 min,  0.000 sec (  0.129%)
 integral evaluation            ...        0 min,  0.010 sec (  5.892%)
 iterations                     ...        0 min,  0.077 sec ( 45.205%)
 molecular gradient             ...        0 min,  0.081 sec ( 47.938%)
 printout                       ...        0 min,  0.000 sec (  0.154%)

         :::::::::::::::::::::::::::::::::::::::::::::::::::::
         ::                     SUMMARY                     ::
         :::::::::::::::::::::::::::::::::::::::::::::::::::::
         :: total energy             -84.097380738908 Eh    ::
         :: gradient norm              0.086549814981 Eh/a0 ::
         :: HOMO-LUMO gap              1.700987084732 eV    ::
         ::.................................................::
         :: SCC energy               -85.181593083935 Eh    ::
         :: -> isotropic ES            0.116728077982 Eh    ::
         :: -> anisotropic ES          0.005398798330 Eh    ::
         :: -> anisotropic XC          0.029543033256 Eh    ::
         :: -> dispersion             -0.055616042858 Eh    ::
         :: repulsion energy           1.084212345028 Eh    ::
         :: add. restraining           0.000000000000 Eh    ::
         :: total charge              -0.000000000000 e     ::
         :::::::::::::::::::::::::::::::::::::::::::::::::::::

      ----------------------------------------------------------- 
     |                   =====================                   |
     |                        A N C O P T                        |
     |                   =====================                   |
     |               Approximate Normal Coordinate               |
     |                Rational Function Optimizer                |
      ----------------------------------------------------------- 
      ----------------------------------------------------------- 
     |                   =====================                   |
     |                        A N C O P T                        |
     |                   =====================                   |
     |               Approximate Normal Coordinate               |
     |                Rational Function Optimizer                |
      ----------------------------------------------------------- 

          ...................................................
          :                      SETUP                      :
          :.................................................:
          :   optimization level            normal          :
          :   max. optcycles                   200          :
          :   ANC micro-cycles                  20          :
          :   degrees of freedom               147          :
          :.................................................:
          :   RF solver                   davidson          :
          :   write xtbopt.log                true          :
          :   linear?                        false          :
          :   energy convergence         0.5000000E-05 Eh   :
          :   grad. convergence          0.1000000E-02 Eh/α :
          :   maxmium RF displ.          1.0000000          :
          :   Hlow (freq-cutoff)         0.1000000E-01      :
          :   Hmax (freq-cutoff)         5.0000000          :
          :   S6 in model hess.         20.0000000          :
          ...................................................

generating ANC from exact Hessian ...
Using Lindh-Hessian (1995)
 Shifting diagonal of input Hessian by    9.8263262068809115E-003
 Lowest  eigenvalues of input Hessian
    0.000000    0.000000    0.000000    0.000000    0.000000    0.000000
    0.010000    0.010144    0.010297    0.010548    0.010722    0.011104
    0.012056    0.013193    0.013861    0.015340    0.015944    0.016687
 Highest eigenvalues
    2.031092    2.047199    2.091966    2.101811    2.298435    2.472755


........................................................................
.............................. CYCLE    1 ..............................
........................................................................

 iter      E             dE          RMSdq      gap      omega  full diag
   1    -85.1812539 -0.851813E+02  0.687E-05    1.70       0.0  T
   2    -85.1812539 -0.448210E-10  0.414E-05    1.70     338.1  T
   3    -85.1812539 -0.225953E-10  0.264E-05    1.70     531.1  T
     SCC iter.                  ...        0 min,  0.056 sec
     gradient                   ...        0 min,  0.035 sec
 * total energy  :   -84.0973807 Eh     change       -0.4964846E-09 Eh
   gradient norm :     0.0865496 Eh/α   predicted     0.0000000E+00 (-100.00%)
   displ. norm   :     0.2869482 α      lambda       -0.1154359E-01
   maximum displ.:     0.1024930 α      in ANC's #14, #45, #9, ...

........................................................................
.............................. CYCLE    2 ..............................
........................................................................

 iter      E             dE          RMSdq      gap      omega  full diag
   1    -85.2299233 -0.852299E+02  0.172E-01    1.73       0.0  T
   2    -85.2300481 -0.124736E-03  0.100E-01    1.73       1.0  T
   3    -85.2300309  0.171726E-04  0.385E-02    1.73       1.0  T
   4    -85.2300606 -0.297080E-04  0.949E-03    1.73       1.5  T
   5    -85.2300642 -0.362642E-05  0.317E-03    1.73       4.4  T
   6    -85.2300644 -0.156813E-06  0.154E-03    1.73       9.1  T
   7    -85.2300644 -0.259546E-07  0.579E-04    1.73      24.2  T
   8    -85.2300644 -0.350214E-08  0.242E-04    1.73      57.8  T
     SCC iter.                  ...        0 min,  0.069 sec
     gradient                   ...        0 min,  0.035 sec
 * total energy  :   -84.1051240 Eh     change       -0.7743290E-02 Eh
   gradient norm :     0.0321551 Eh/α   predicted    -0.6254713E-02 ( -19.22%)
   displ. norm   :     0.2664324 α      lambda       -0.3018923E-02
   maximum displ.:     0.1420060 α      in ANC's #14, #9, #20, ...

........................................................................
.............................. CYCLE    3 ..............................
........................................................................

 iter      E             dE          RMSdq      gap      omega  full diag
   1    -85.2510256 -0.852510E+02  0.101E-01    1.70       0.0  T
   2    -85.2510667 -0.410735E-04  0.582E-02    1.72       1.0  T
   3    -85.2510591  0.756463E-05  0.246E-02    1.72       1.0  T
   4    -85.2510720 -0.128703E-04  0.545E-03    1.72       2.6  T
   5    -85.2510733 -0.130347E-05  0.167E-03    1.72       8.4  T
   6    -85.2510733 -0.403217E-07  0.805E-04    1.72      17.4  T
   7    -85.2510734 -0.688320E-08  0.316E-04    1.72      44.3  T
     SCC iter.                  ...        0 min,  0.022 sec
     gradient                   ...        0 min,  0.036 sec
 * total energy  :   -84.1069675 Eh     change       -0.1843493E-02 Eh
   gradient norm :     0.0093755 Eh/α   predicted    -0.1617566E-02 ( -12.26%)
   displ. norm   :     0.1962241 α      lambda       -0.6389256E-03
   maximum displ.:     0.1165552 α      in ANC's #9, #14, #8, ...

........................................................................
.............................. CYCLE    4 ..............................
........................................................................

 iter      E             dE          RMSdq      gap      omega  full diag
   1    -85.2532540 -0.852533E+02  0.458E-02    1.69       0.0  T
   2    -85.2532577 -0.367660E-05  0.266E-02    1.70       1.0  T
   3    -85.2532561  0.161971E-05  0.825E-03    1.70       1.7  T
   4    -85.2532583 -0.221592E-05  0.169E-03    1.70       8.3  T
   5    -85.2532584 -0.113048E-06  0.676E-04    1.70      20.7  T
   6    -85.2532584 -0.447241E-08  0.298E-04    1.70      47.0  T
     SCC iter.                  ...        0 min,  0.019 sec
     gradient                   ...        0 min,  0.074 sec
 * total energy  :   -84.1074212 Eh     change       -0.4536870E-03 Eh
   gradient norm :     0.0060905 Eh/α   predicted    -0.3317661E-03 ( -26.87%)
   displ. norm   :     0.2073432 α      lambda       -0.3718110E-03
   maximum displ.:     0.1225732 α      in ANC's #9, #14, #15, ...

........................................................................
.............................. CYCLE    5 ..............................
........................................................................

 iter      E             dE          RMSdq      gap      omega  full diag
   1    -85.2528833 -0.852529E+02  0.421E-02    1.68       0.0  T
   2    -85.2528855 -0.212432E-05  0.246E-02    1.69       1.0  T
   3    -85.2528853  0.174709E-06  0.402E-03    1.70       3.5  T
   4    -85.2528857 -0.403965E-06  0.121E-03    1.69      11.6  T
   5    -85.2528857 -0.328746E-07  0.584E-04    1.69      24.0  T
   6    -85.2528857 -0.330854E-08  0.230E-04    1.69      60.8  T
     SCC iter.                  ...        0 min,  0.019 sec
     gradient                   ...        0 min,  0.080 sec
 * total energy  :   -84.1076565 Eh     change       -0.2353273E-03 Eh
   gradient norm :     0.0044853 Eh/α   predicted    -0.1938985E-03 ( -17.60%)
   displ. norm   :     0.1179851 α      lambda       -0.1050584E-03
   maximum displ.:     0.0601780 α      in ANC's #9, #14, #7, ...

........................................................................
.............................. CYCLE    6 ..............................
........................................................................

 iter      E             dE          RMSdq      gap      omega  full diag
   1    -85.2525211 -0.852525E+02  0.237E-02    1.69       0.0  T
   2    -85.2525215 -0.422299E-06  0.139E-02    1.70       1.0  T
   3    -85.2525214  0.134910E-06  0.224E-03    1.70       6.2  T
   4    -85.2525215 -0.191105E-06  0.704E-04    1.70      19.9  T
   5    -85.2525216 -0.149783E-07  0.285E-04    1.70      49.1  T
     SCC iter.                  ...        0 min,  0.015 sec
     gradient                   ...        0 min,  0.075 sec
 * total energy  :   -84.1077286 Eh     change       -0.7201641E-04 Eh
   gradient norm :     0.0031736 Eh/α   predicted    -0.5326143E-04 ( -26.04%)
   displ. norm   :     0.1128563 α      lambda       -0.6680499E-04
   maximum displ.:     0.0587661 α      in ANC's #7, #9, #5, ...

........................................................................
.............................. CYCLE    7 ..............................
........................................................................

 iter      E             dE          RMSdq      gap      omega  full diag
   1    -85.2526608 -0.852527E+02  0.208E-02    1.71       0.0  T
   2    -85.2526612 -0.382047E-06  0.123E-02    1.71       1.1  T
   3    -85.2526610  0.190775E-06  0.254E-03    1.71       5.5  T
   4    -85.2526613 -0.256210E-06  0.621E-04    1.71      22.5  T
   5    -85.2526613 -0.117929E-07  0.281E-04    1.71      49.8  T
     SCC iter.                  ...        0 min,  0.016 sec
     gradient                   ...        0 min,  0.074 sec
 * total energy  :   -84.1077728 Eh     change       -0.4427570E-04 Eh
   gradient norm :     0.0020819 Eh/α   predicted    -0.3384754E-04 ( -23.55%)
   displ. norm   :     0.0898717 α      lambda       -0.3660843E-04
   maximum displ.:     0.0565859 α      in ANC's #7, #5, #8, ...

........................................................................
.............................. CYCLE    8 ..............................
........................................................................

 iter      E             dE          RMSdq      gap      omega  full diag
   1    -85.2529892 -0.852530E+02  0.156E-02    1.71       0.0  T
   2    -85.2529895 -0.275277E-06  0.922E-03    1.71       1.5  T
   3    -85.2529895  0.604132E-07  0.171E-03    1.71       8.2  T
   4    -85.2529895 -0.881597E-07  0.450E-04    1.71      31.1  T
   5    -85.2529895 -0.712296E-08  0.200E-04    1.71      70.1  T
     SCC iter.                  ...        0 min,  0.016 sec
     gradient                   ...        0 min,  0.074 sec
 * total energy  :   -84.1077978 Eh     change       -0.2501245E-04 Eh
   gradient norm :     0.0019199 Eh/α   predicted    -0.1845272E-04 ( -26.23%)
   displ. norm   :     0.0983653 α      lambda       -0.2090155E-04
   maximum displ.:     0.0615746 α      in ANC's #7, #5, #2, ...

........................................................................
.............................. CYCLE    9 ..............................
........................................................................

 iter      E             dE          RMSdq      gap      omega  full diag
   1    -85.2534441 -0.852534E+02  0.169E-02    1.72       0.0  T
   2    -85.2534444 -0.362653E-06  0.992E-03    1.71       1.4  T
   3    -85.2534444  0.346400E-07  0.159E-03    1.71       8.8  T
   4    -85.2534445 -0.643155E-07  0.499E-04    1.71      28.1  T
   5    -85.2534445 -0.794051E-08  0.239E-04    1.71      58.7  T
     SCC iter.                  ...        0 min,  0.016 sec
     gradient                   ...        0 min,  0.080 sec
 * total energy  :   -84.1078170 Eh     change       -0.1912818E-04 Eh
   gradient norm :     0.0016429 Eh/α   predicted    -0.1050202E-04 ( -45.10%)
   displ. norm   :     0.0675360 α      lambda       -0.1054556E-04
   maximum displ.:     0.0336299 α      in ANC's #7, #2, #5, ...

........................................................................
.............................. CYCLE   10 ..............................
........................................................................

 iter      E             dE          RMSdq      gap      omega  full diag
   1    -85.2533305 -0.852533E+02  0.130E-02    1.71       0.0  T
   2    -85.2533306 -0.102868E-06  0.764E-03    1.71       1.8  T
   3    -85.2533306  0.263984E-07  0.110E-03    1.71      12.7  T
   4    -85.2533307 -0.428819E-07  0.334E-04    1.71      41.9  T
   5    -85.2533307 -0.285162E-08  0.160E-04    1.71      87.5  T
     SCC iter.                  ...        0 min,  0.015 sec
     gradient                   ...        0 min,  0.080 sec
 * total energy  :   -84.1078284 Eh     change       -0.1142469E-04 Eh
   gradient norm :     0.0009597 Eh/α   predicted    -0.5303154E-05 ( -53.58%)
   displ. norm   :     0.0874721 α      lambda       -0.1040517E-04
   maximum displ.:     0.0458999 α      in ANC's #2, #5, #7, ...

........................................................................
.............................. CYCLE   11 ..............................
........................................................................

 iter      E             dE          RMSdq      gap      omega  full diag
   1    -85.2530820 -0.852531E+02  0.173E-02    1.71       0.0  T
   2    -85.2530822 -0.178675E-06  0.101E-02    1.71       1.4  T
   3    -85.2530822  0.195194E-07  0.120E-03    1.70      11.7  T
   4    -85.2530822 -0.474006E-07  0.412E-04    1.70      34.0  T
   5    -85.2530822 -0.369567E-08  0.208E-04    1.71      67.2  T
     SCC iter.                  ...        0 min,  0.061 sec
     gradient                   ...        0 min,  0.035 sec
 * total energy  :   -84.1078389 Eh     change       -0.1048591E-04 Eh
   gradient norm :     0.0010898 Eh/α   predicted    -0.5225048E-05 ( -50.17%)
   displ. norm   :     0.0817007 α      lambda       -0.6978433E-05
   maximum displ.:     0.0459729 α      in ANC's #2, #5, #3, ...

........................................................................
.............................. CYCLE   12 ..............................
........................................................................

 iter      E             dE          RMSdq      gap      omega  full diag
   1    -85.2529842 -0.852530E+02  0.164E-02    1.70       0.0  T
   2    -85.2529843 -0.712290E-07  0.961E-03    1.70       1.5  T
   3    -85.2529843 -0.849627E-08  0.637E-04    1.70      22.0  T
   4    -85.2529843 -0.101707E-07  0.273E-04    1.70      51.2  T
     SCC iter.                  ...        0 min,  0.012 sec
     gradient                   ...        0 min,  0.071 sec
 * total energy  :   -84.1078471 Eh     change       -0.8235714E-05 Eh
   gradient norm :     0.0009817 Eh/α   predicted    -0.3500170E-05 ( -57.50%)
   displ. norm   :     0.1043334 α      lambda       -0.8525813E-05
   maximum displ.:     0.0598880 α      in ANC's #2, #5, #3, ...

........................................................................
.............................. CYCLE   13 ..............................
........................................................................

 iter      E             dE          RMSdq      gap      omega  full diag
   1    -85.2529577 -0.852530E+02  0.212E-02    1.70       0.0  T
   2    -85.2529578 -0.811028E-07  0.124E-02    1.70       1.1  T
   3    -85.2529578 -0.175422E-07  0.658E-04    1.70      21.3  T
   4    -85.2529578 -0.956557E-08  0.321E-04    1.70      43.7  T
     SCC iter.                  ...        0 min,  0.012 sec
     gradient                   ...        0 min,  0.080 sec
 * total energy  :   -84.1078576 Eh     change       -0.1051792E-04 Eh
   gradient norm :     0.0007946 Eh/α   predicted    -0.4283999E-05 ( -59.27%)
   displ. norm   :     0.1544587 α      lambda       -0.1157836E-04
   maximum displ.:     0.0891502 α      in ANC's #2, #3, #5, ...

........................................................................
.............................. CYCLE   14 ..............................
........................................................................

 iter      E             dE          RMSdq      gap      omega  full diag
   1    -85.2530050 -0.852530E+02  0.323E-02    1.70       0.0  T
   2    -85.2530052 -0.187808E-06  0.189E-02    1.70       1.0  T
   3    -85.2530052 -0.300049E-07  0.106E-03    1.70      13.2  T
   4    -85.2530053 -0.304849E-07  0.514E-04    1.70      27.2  T
   5    -85.2530053 -0.278405E-08  0.240E-04    1.70      58.3  T
     SCC iter.                  ...        0 min,  0.016 sec
     gradient                   ...        0 min,  0.074 sec
 * total energy  :   -84.1078710 Eh     change       -0.1333678E-04 Eh
   gradient norm :     0.0009129 Eh/α   predicted    -0.5852048E-05 ( -56.12%)
   displ. norm   :     0.1663423 α      lambda       -0.1044997E-04
   maximum displ.:     0.0986345 α      in ANC's #2, #3, #5, ...

........................................................................
.............................. CYCLE   15 ..............................
........................................................................

 iter      E             dE          RMSdq      gap      omega  full diag
   1    -85.2529621 -0.852530E+02  0.369E-02    1.71       0.0  T
   2    -85.2529623 -0.233138E-06  0.216E-02    1.71       1.0  T
   3    -85.2529623 -0.310714E-07  0.117E-03    1.71      11.9  T
   4    -85.2529624 -0.412538E-07  0.530E-04    1.71      26.4  T
   5    -85.2529624 -0.233784E-08  0.264E-04    1.71      53.0  T
     SCC iter.                  ...        0 min,  0.061 sec
     gradient                   ...        0 min,  0.035 sec
 * total energy  :   -84.1078826 Eh     change       -0.1160712E-04 Eh
   gradient norm :     0.0010579 Eh/α   predicted    -0.5290982E-05 ( -54.42%)
   displ. norm   :     0.1358428 α      lambda       -0.7810656E-05
   maximum displ.:     0.0832513 α      in ANC's #2, #3, #1, ...

........................................................................
.............................. CYCLE   16 ..............................
........................................................................

 iter      E             dE          RMSdq      gap      omega  full diag
   1    -85.2532047 -0.852532E+02  0.330E-02    1.71       0.0  T
   2    -85.2532049 -0.151737E-06  0.193E-02    1.71       1.0  T
   3    -85.2532049 -0.233806E-07  0.972E-04    1.71      14.4  T
   4    -85.2532049 -0.273759E-07  0.459E-04    1.71      30.5  T
     SCC iter.                  ...        0 min,  0.052 sec
     gradient                   ...        0 min,  0.034 sec
 * total energy  :   -84.1078920 Eh     change       -0.9394790E-05 Eh
   gradient norm :     0.0007277 Eh/α   predicted    -0.3941777E-05 ( -58.04%)
   displ. norm   :     0.1406715 α      lambda       -0.8239272E-05
   maximum displ.:     0.0889425 α      in ANC's #2, #3, #1, ...

........................................................................
.............................. CYCLE   17 ..............................
........................................................................

 iter      E             dE          RMSdq      gap      omega  full diag
   1    -85.2533216 -0.852533E+02  0.380E-02    1.71       0.0  T
   2    -85.2533217 -0.165024E-06  0.223E-02    1.71       1.0  T
   3    -85.2533217  0.442961E-08  0.122E-03    1.71      11.5  T
   4    -85.2533218 -0.616244E-07  0.492E-04    1.71      28.5  T
   5    -85.2533218 -0.396727E-08  0.241E-04    1.71      58.2  T
     SCC iter.                  ...        0 min,  0.061 sec
     gradient                   ...        0 min,  0.035 sec
 * total energy  :   -84.1079023 Eh     change       -0.1037663E-04 Eh
   gradient norm :     0.0004957 Eh/α   predicted    -0.4156978E-05 ( -59.94%)
   displ. norm   :     0.1610720 α      lambda       -0.9912740E-05
   maximum displ.:     0.1019187 α      in ANC's #2, #1, #3, ...

........................................................................
.............................. CYCLE   18 ..............................
........................................................................

 iter      E             dE          RMSdq      gap      omega  full diag
   1    -85.2533450 -0.852533E+02  0.473E-02    1.72       0.0  T
   2    -85.2533452 -0.196087E-06  0.277E-02    1.72       1.0  T
   3    -85.2533452  0.941611E-10  0.137E-03    1.72      10.2  T
   4    -85.2533453 -0.751706E-07  0.547E-04    1.72      25.6  T
   5    -85.2533453 -0.412219E-08  0.268E-04    1.72      52.3  T
     SCC iter.                  ...        0 min,  0.055 sec
     gradient                   ...        0 min,  0.035 sec
 * total energy  :   -84.1079150 Eh     change       -0.1269047E-04 Eh
   gradient norm :     0.0007684 Eh/α   predicted    -0.5016185E-05 ( -60.47%)
   displ. norm   :     0.2055573 α      lambda       -0.1233150E-04
   maximum displ.:     0.1292043 α      in ANC's #2, #1, #3, ...

........................................................................
.............................. CYCLE   19 ..............................
........................................................................

 iter      E             dE          RMSdq      gap      omega  full diag
   1    -85.2531414 -0.852531E+02  0.624E-02    1.72       0.0  T
   2    -85.2531417 -0.270266E-06  0.366E-02    1.72       1.0  T
   3    -85.2531417  0.380302E-08  0.172E-03    1.72       8.2  T
   4    -85.2531418 -0.121547E-06  0.651E-04    1.72      21.5  T
   5    -85.2531418 -0.412280E-08  0.313E-04    1.72      44.8  T
     SCC iter.                  ...        0 min,  0.054 sec
     gradient                   ...        0 min,  0.035 sec
 * total energy  :   -84.1079306 Eh     change       -0.1556530E-04 Eh
   gradient norm :     0.0011138 Eh/α   predicted    -0.6284067E-05 ( -59.63%)
   displ. norm   :     0.2321953 α      lambda       -0.1369329E-04
   maximum displ.:     0.1453177 α      in ANC's #2, #1, #4, ...

........................................................................
.............................. CYCLE   20 ..............................
........................................................................

 iter      E             dE          RMSdq      gap      omega  full diag
   1    -85.2529555 -0.852530E+02  0.719E-02    1.72       0.0  T
   2    -85.2529558 -0.317088E-06  0.422E-02    1.72       1.0  T
   3    -85.2529558  0.641619E-07  0.214E-03    1.72       6.5  T
   4    -85.2529560 -0.215324E-06  0.713E-04    1.72      19.6  T
   5    -85.2529560 -0.373092E-08  0.322E-04    1.72      43.5  T
     SCC iter.                  ...        0 min,  0.056 sec
     gradient                   ...        0 min,  0.035 sec
 * total energy  :   -84.1079473 Eh     change       -0.1670178E-04 Eh
   gradient norm :     0.0011859 Eh/α   predicted    -0.7013169E-05 ( -58.01%)
   displ. norm   :     0.2473211 α      lambda       -0.1414792E-04
   maximum displ.:     0.1549365 α      in ANC's #2, #1, #4, ...
 * RMSD in coord.:     0.2830237 α      energy gain  -0.1056657E-01 Eh

generating ANC from exact Hessian ...
Using Lindh-Hessian (1995)
 Shifting diagonal of input Hessian by    9.8099781788093410E-003
 Lowest  eigenvalues of input Hessian
    0.000000    0.000000    0.000000    0.000000    0.000000    0.000000
    0.010000    0.010128    0.010300    0.010574    0.010761    0.011182
    0.012256    0.013370    0.014114    0.015818    0.016369    0.017247
 Highest eigenvalues
    2.078115    2.105011    2.142181    2.188748    2.377412    2.552543


........................................................................
.............................. CYCLE   21 ..............................
........................................................................

 iter      E             dE          RMSdq      gap      omega  full diag
   1    -85.2529280 -0.852529E+02  0.770E-02    1.73       0.0  T
   2    -85.2529284 -0.337223E-06  0.452E-02    1.73       1.0  T
   3    -85.2529283  0.794901E-07  0.228E-03    1.73       6.1  T
   4    -85.2529285 -0.241209E-06  0.727E-04    1.73      19.2  T
   5    -85.2529286 -0.350255E-08  0.322E-04    1.73      43.5  T
     SCC iter.                  ...        0 min,  0.015 sec
     gradient                   ...        0 min,  0.075 sec
 * total energy  :   -84.1079635 Eh     change       -0.1623108E-04 Eh
   gradient norm :     0.0010873 Eh/α   predicted     0.0000000E+00 (-100.00%)
   displ. norm   :     0.0217324 α      lambda       -0.4830240E-05
   maximum displ.:     0.0101816 α      in ANC's #5, #2, #4, ...

........................................................................
.............................. CYCLE   22 ..............................
........................................................................

 iter      E             dE          RMSdq      gap      omega  full diag
   1    -85.2535903 -0.852536E+02  0.766E-03    1.73       0.0  T
   2    -85.2535903 -0.359773E-07  0.451E-03    1.73       3.1  T
   3    -85.2535903  0.146673E-07  0.730E-04    1.73      19.2  T
   4    -85.2535903 -0.217631E-07  0.158E-04    1.73      88.4  T
     SCC iter.                  ...        0 min,  0.013 sec
     gradient                   ...        0 min,  0.076 sec
 * total energy  :   -84.1079690 Eh     change       -0.5485099E-05 Eh
   gradient norm :     0.0004281 Eh/α   predicted    -0.2546536E-05 ( -53.57%)
   displ. norm   :     0.0512944 α      lambda       -0.6490815E-05
   maximum displ.:     0.0254124 α      in ANC's #5, #2, #4, ...

........................................................................
.............................. CYCLE   23 ..............................
........................................................................

 iter      E             dE          RMSdq      gap      omega  full diag
   1    -85.2539667 -0.852540E+02  0.168E-02    1.73       0.0  T
   2    -85.2539668 -0.654240E-07  0.989E-03    1.73       1.4  T
   3    -85.2539668  0.497991E-09  0.686E-04    1.73      20.4  T
   4    -85.2539668 -0.173941E-07  0.284E-04    1.73      49.4  T
     SCC iter.                  ...        0 min,  0.012 sec
     gradient                   ...        0 min,  0.077 sec
 * total energy  :   -84.1079762 Eh     change       -0.7147080E-05 Eh
   gradient norm :     0.0008544 Eh/α   predicted    -0.3249916E-05 ( -54.53%)
   displ. norm   :     0.0661347 α      lambda       -0.5608635E-05
   maximum displ.:     0.0344438 α      in ANC's #5, #2, #4, ...

........................................................................
.............................. CYCLE   24 ..............................
........................................................................

 iter      E             dE          RMSdq      gap      omega  full diag
   1    -85.2537863 -0.852538E+02  0.212E-02    1.72       0.0  T
   2    -85.2537864 -0.620737E-07  0.125E-02    1.73       1.1  T
   3    -85.2537864 -0.132119E-07  0.576E-04    1.73      24.3  T
   4    -85.2537864 -0.872924E-08  0.301E-04    1.73      46.5  T
     SCC iter.                  ...        0 min,  0.012 sec
     gradient                   ...        0 min,  0.075 sec
 * total energy  :   -84.1079820 Eh     change       -0.5844494E-05 Eh
   gradient norm :     0.0008195 Eh/α   predicted    -0.2812240E-05 ( -51.88%)
   displ. norm   :     0.0535731 α      lambda       -0.3396907E-05
   maximum displ.:     0.0297426 α      in ANC's #5, #2, #4, ...

........................................................................
.............................. CYCLE   25 ..............................
........................................................................

 iter      E             dE          RMSdq      gap      omega  full diag
   1    -85.2536520 -0.852537E+02  0.166E-02    1.72       0.0  T
   2    -85.2536520 -0.267072E-07  0.976E-03    1.72       1.4  T
   3    -85.2536520 -0.593978E-08  0.426E-04    1.73      32.9  T
   4    -85.2536520 -0.525387E-08  0.217E-04    1.73      64.7  T
     SCC iter.                  ...        0 min,  0.012 sec
     gradient                   ...        0 min,  0.072 sec
 * total energy  :   -84.1079856 Eh     change       -0.3621327E-05 Eh
   gradient norm :     0.0005224 Eh/α   predicted    -0.1701133E-05 ( -53.02%)
   displ. norm   :     0.0505234 α      lambda       -0.2962935E-05
   maximum displ.:     0.0294330 α      in ANC's #2, #5, #4, ...

   *** GEOMETRY OPTIMIZATION CONVERGED AFTER 25 ITERATIONS ***

------------------------------------------------------------------------
 total energy gain   :        -0.0106049 Eh       -6.6547 kcal/mol
 total RMSD          :         0.2907117 a0        0.1538 Å
 total power (kW/mol):        -1.1137262 (step)  -10.3421 (real)
------------------------------------------------------------------------

 ANCopt (total)                0 d,  0 h,  0 min,  2.692 sec
 optimizer setup                ...        0 min,  0.000 sec (  0.003%)
 model hessian                  ...        0 min,  0.081 sec (  2.994%)
 ANC generation                 ...        0 min,  0.004 sec (  0.161%)
 coordinate transformation      ...        0 min,  0.000 sec (  0.009%)
 single point calculation       ...        0 min,  2.599 sec ( 96.526%)
 optimization log               ...        0 min,  0.005 sec (  0.201%)
 hessian update                 ...        0 min,  0.000 sec (  0.015%)
 rational function              ...        0 min,  0.002 sec (  0.058%)

================
 final structure:
================
51
 xtb: 6.7.1 (edcfbbe)
F            8.50789037011162        2.35626709196587        0.17198009241711
C            7.51478785170411        1.45900053367243        0.02859531081893
C            6.33846405363174        1.64351481619992        0.73431633190315
C            5.31628140927258        0.72511295377676        0.58696015137971
C            5.46641795222039       -0.37207462818423       -0.26024692540090
C            6.67070156029052       -0.53273188072246       -0.94906170547491
C            7.69916649207971        0.37684191985723       -0.81455051001970
C            4.41995922678419       -1.41132998403189       -0.47821143169552
C            3.00848641544763       -1.08713182587649       -0.03044420016363
C            2.41153253042899       -0.00391960612390       -0.93967479096373
C            0.97857296175308        0.29419680208155       -0.50258769017875
N            0.18880223120796       -0.91544602528497       -0.59380722292586
C            0.68362861432745       -1.93666973760180        0.30772189522812
C            2.10540632900611       -2.31784576161771       -0.09263825072730
C           -1.23508089273126       -0.71267717594678       -0.55754274134920
C           -1.79808831906327       -0.14900164293011        0.76619570410246
N           -3.24161227220781       -0.00458557153775        0.68197272549981
C           -3.99729998524521       -1.10088802178475        1.05105434399873
N           -5.35628951896052       -0.94473604520631        0.94628132917653
C           -5.98529825741436        0.19112870592613        0.49723289507073
C           -7.37449440361936        0.27595098037389        0.42223551757701
C           -7.96428361536443        1.43688055324359       -0.03304100980692
C           -7.18724097935660        2.52424641082351       -0.42015476858121
C           -5.81347190269928        2.44551988187901       -0.35105164062777
C           -5.19942923158026        1.28050451077612        0.10862997405744
C           -3.73866629556118        1.19386930075461        0.18268310044696
O           -2.98742421805616        2.08619697892700       -0.15010352066623
O           -3.51112531722369       -2.13363426756816        1.45103736425660
O            4.69481254111141       -2.45719577075154       -1.02266300166321
H            6.23703655790128        2.49548485151104        1.38814207024878
H            4.40954600280703        0.87021474075707        1.15192810773734
H            6.77652930456477       -1.39149611878507       -1.59459878857529
H            8.63075495962615        0.26069627439462       -1.34517262204008
H            3.03318170651541       -0.71706320850864        0.99989704603705
H            2.39898182827135       -0.37280937380969       -1.96608788130891
H            3.00837370076101        0.90887022657597       -0.90631829436625
H            0.99616658448949        0.70423368267845        0.52372339611408
H            0.53933945722161        1.04575028684077       -1.16214125074363
H            0.68548490717992       -1.59525136388100        1.35873889735611
H            0.02977193241665       -2.80773095027485        0.23520959798802
H            2.10531552418693       -2.70818378053848       -1.11019456697666
H            2.48536637478315       -3.09630749410469        0.57023771122123
H           -1.49924201158401       -0.02195745228420       -1.36409514970507
H           -1.71684811864111       -1.67555555391173       -0.75181122328943
H           -1.58039385520657       -0.83011138034976        1.58979274090914
H           -1.38322261797313        0.84095992916801        0.96191254940719
H           -5.91063453564805       -1.74496422762271        1.22002089250754
H           -7.97658350739531       -0.56881116371306        0.72234196934653
H           -9.04055420077758        1.49974710300671       -0.08866644770738
H           -7.66240561722736        3.42576155677932       -0.77370468989721
H           -5.18116970656961        3.26915992097388       -0.64447138995430

 Bond Distances (Angstroems)
 ---------------------------
F1-C2=1.3461         C2-F1=1.3461         C2-C3=1.3841         C2-C7=1.3842         C3-C2=1.3841         C3-C4=1.3820         
C3-H30=1.0787        C4-C3=1.3820         C4-C5=1.3943         C4-H31=1.0782        C5-C4=1.3943         C5-C6=1.3966         
C5-C8=1.4909         C6-C5=1.3966         C6-C7=1.3796         C6-H32=1.0795        C7-C2=1.3842         C7-C6=1.3796         
C7-H33=1.0784        C8-C5=1.4909         C8-C9=1.5159         C8-O29=1.2107        C9-C8=1.5159         C9-C10=1.5351        
C9-C14=1.5278        C9-H34=1.0951        C10-C9=1.5351        C10-C11=1.5275       C10-H35=1.0908       C10-H36=1.0911       
C11-C10=1.5275       C11-N12=1.4475       C11-H37=1.1053       C11-H38=1.0921       N12-C11=1.4475       N12-C13=1.4493       
N12-C15=1.4387       C13-N12=1.4493       C13-C14=1.5255       C13-H39=1.1051       C13-H40=1.0916       C14-C9=1.5278        
C14-C13=1.5255       C14-H41=1.0899       C14-H42=1.0908       C15-N12=1.4387       C15-C16=1.5450       C15-H43=1.0943       
C15-H44=1.0941       C16-C15=1.5450       C16-N17=1.4532       C16-H45=1.0907       C16-H46=1.0911       N17-C16=1.4532       
N17-C18=1.3817       N17-C26=1.3902       C18-N17=1.3817       C18-N19=1.3719       C18-O28=1.2095       N19-C18=1.3719       
N19-C20=1.3739       N19-H47=1.0112       C20-N19=1.3739       C20-C21=1.3938       C20-C25=1.3983       C21-C20=1.3938       
C21-C22=1.3795       C21-H48=1.0799       C22-C21=1.3795       C22-C23=1.3914       C22-H49=1.0795       C23-C22=1.3914       
C23-C24=1.3778       C23-H50=1.0787       C24-C23=1.3778       C24-C25=1.3949       C24-H51=1.0790       C25-C20=1.3983       
C25-C24=1.3949       C25-C26=1.4652       C26-N17=1.3902       C26-C25=1.4652       C26-O27=1.2130       O27-C26=1.2130       
O28-C18=1.2095       O29-C8=1.2107        H30-C3=1.0787        H31-C4=1.0782        H32-C6=1.0795        H33-C7=1.0784        
H34-C9=1.0951        H35-C10=1.0908       H36-C10=1.0911       H37-C11=1.1053       H38-C11=1.0921       H39-C13=1.1051       
H40-C13=1.0916       H41-C14=1.0899       H42-C14=1.0908       H43-C15=1.0943       H44-C15=1.0941       H45-C16=1.0907       
H46-C16=1.0911       H47-N19=1.0112       H48-C21=1.0799       H49-C22=1.0795       H50-C23=1.0787       H51-C24=1.0790       
 C  H  Rav=1.0883 sigma=0.0083  Rmin=1.0782  Rmax=1.1053    21
 C  C  Rav=1.4395 sigma=0.0651  Rmin=1.3778  Rmax=1.5450    20
 N  H  Rav=1.0112 sigma=0.0000  Rmin=1.0112  Rmax=1.0112     1
 N  C  Rav=1.4133 sigma=0.0345  Rmin=1.3719  Rmax=1.4532     8
 O  C  Rav=1.2111 sigma=0.0014  Rmin=1.2095  Rmax=1.2130     3
 F  C  Rav=1.3461 sigma=0.0000  Rmin=1.3461  Rmax=1.3461     1

 selected bond angles (degree)
 --------------------
C3-C2-F1=118.94                C7-C2-F1=119.19                C7-C2-C3=121.87                C4-C3-C2=119.05                
H30-C3-C2=119.62               H30-C3-C4=121.33               C5-C4-C3=120.53                H31-C4-C3=118.47               
H31-C4-C5=120.99               C6-C5-C4=118.88                C8-C5-C4=124.18                C8-C5-C6=116.93                
C7-C6-C5=121.26                H32-C6-C5=118.10               H32-C6-C7=120.64               C6-C7-C2=118.40                
H33-C7-C2=119.93               H33-C7-C6=121.67               C9-C8-C5=117.47                O29-C8-C5=120.57               
O29-C8-C9=121.94               C10-C9-C8=109.76               C14-C9-C8=111.47               C14-C9-C10=108.33              
H34-C9-C8=109.22               H34-C9-C10=109.12              H34-C9-C14=108.90              C11-C10-C9=109.45              
H35-C10-C9=108.86              H35-C10-C11=108.93             H36-C10-C9=111.07              H36-C10-C11=109.95             
H36-C10-H35=108.54             

 selected dihedral angles (degree)
 ---------------------------------
C4-C3-C2-F1=179.88            C4-C3-C2-C7=359.63            H30-C3-C2-F1=359.72           H30-C3-C2-C7=179.47           
C5-C4-C3-C2=  0.00            C5-C4-C3-H30=180.16           H31-C4-C3-C2=179.13           H31-C4-C3-H30=359.29          
C6-C5-C4-C3=  0.49            C6-C5-C4-H31=181.38           C8-C5-C4-C3=179.90            C8-C5-C4-H31=  0.79           
C7-C6-C5-C4=359.37            C7-C6-C5-C8=179.92            H32-C6-C5-C4=179.45           H32-C6-C5-C8=  0.00           
C6-C7-C2-F1=179.99            C6-C7-C2-C3=  0.24            H33-C7-C2-F1=  0.09           H33-C7-C2-C3=180.35           
C2-C7-C6-C5=  0.27            C2-C7-C6-H32=180.18           H33-C7-C6-C5=180.16           H33-C7-C6-H32=  0.08          
C9-C8-C5-C4= 15.53            C9-C8-C5-C6=194.95            O29-C8-C5-C4=193.80           O29-C8-C5-C6= 13.22           
C10-C9-C8-C5= 69.80           C10-C9-C8-O29=251.56          C14-C9-C8-C5=189.83           C14-C9-C8-O29= 11.58          
H34-C9-C8-C5=310.21           H34-C9-C8-O29=131.96          C11-C10-C9-C8=178.70          C11-C10-C9-C14= 56.78         
C11-C10-C9-H34=298.36         H35-C10-C9-C8= 59.74          H35-C10-C9-C14=297.82         H35-C10-C9-H34=179.39         
H36-C10-C9-C8=300.29          H36-C10-C9-C14=178.37         H36-C10-C9-H34= 59.94         
           -------------------------------------------------
          |                Final Singlepoint                |
           -------------------------------------------------

          ...................................................
          :                      SETUP                      :
          :.................................................:
          :  # basis functions                 138          :
          :  # atomic orbitals                 138          :
          :  # shells                           80          :
          :  # electrons                       150          :
          :  max. iterations                   250          :
          :  Hamiltonian                  GFN2-xTB          :
          :  restarted?                      false          :
          :  GBSA solvation                  false          :
          :  PC potential                    false          :
          :  electronic temp.          300.0000000     K    :
          :  accuracy                    1.0000000          :
          :  -> integral cutoff          0.2500000E+02      :
          :  -> integral neglect         0.1000000E-07      :
          :  -> SCF convergence          0.1000000E-05 Eh   :
          :  -> wf. convergence          0.1000000E-03 e    :
          :  Broyden damping             0.4000000          :
          :  net charge                          0          :
          :  unpaired electrons                  0          :
          ...................................................

 iter      E             dE          RMSdq      gap      omega  full diag
   1    -85.2536520 -0.852537E+02  0.113E-04    1.73       0.0  T
   2    -85.2536520 -0.109054E-09  0.738E-05    1.73     189.7  T
   3    -85.2536520 -0.674731E-10  0.486E-05    1.73     288.1  T

   *** convergence criteria satisfied after 3 iterations ***

         #    Occupation            Energy/Eh            Energy/eV
      -------------------------------------------------------------
         1        2.0000           -0.8258542             -22.4726
       ...           ...                  ...                  ...
        69        2.0000           -0.4289239             -11.6716
        70        2.0000           -0.4274841             -11.6324
        71        2.0000           -0.4215971             -11.4722
        72        2.0000           -0.4137243             -11.2580
        73        2.0000           -0.4080833             -11.1045
        74        2.0000           -0.3933060             -10.7024
        75        2.0000           -0.3503793              -9.5343 (HOMO)
        76                         -0.2869860              -7.8093 (LUMO)
        77                         -0.2813987              -7.6572
        78                         -0.2530793              -6.8866
        79                         -0.2504145              -6.8141
        80                         -0.2201583              -5.9908
       ...                                ...                  ...
       138                          0.6999284              19.0460
      -------------------------------------------------------------
                  HL-Gap            0.0633933 Eh            1.7250 eV
             Fermi-level           -0.3186827 Eh           -8.6718 eV

 SCC (total)                   0 d,  0 h,  0 min,  0.055 sec
 SCC setup                      ...        0 min,  0.000 sec (  0.760%)
 Dispersion                     ...        0 min,  0.000 sec (  0.780%)
 classical contributions        ...        0 min,  0.000 sec (  0.369%)
 integral evaluation            ...        0 min,  0.010 sec ( 17.244%)
 iterations                     ...        0 min,  0.009 sec ( 16.951%)
 molecular gradient             ...        0 min,  0.035 sec ( 63.491%)
 printout                       ...        0 min,  0.000 sec (  0.395%)

         :::::::::::::::::::::::::::::::::::::::::::::::::::::
         ::                     SUMMARY                     ::
         :::::::::::::::::::::::::::::::::::::::::::::::::::::
         :: total energy             -84.107985636959 Eh    ::
         :: gradient norm              0.000523408903 Eh/a0 ::
         :: HOMO-LUMO gap              1.725020003625 eV    ::
         ::.................................................::
         :: SCC energy               -85.253999910098 Eh    ::
         :: -> isotropic ES            0.114102828869 Eh    ::
         :: -> anisotropic ES          0.004571113513 Eh    ::
         :: -> anisotropic XC          0.027938884053 Eh    ::
         :: -> dispersion             -0.056365844283 Eh    ::
         :: repulsion energy           1.146014273138 Eh    ::
         :: add. restraining           0.000000000000 Eh    ::
         :: total charge              -0.000000000000 e     ::
         :::::::::::::::::::::::::::::::::::::::::::::::::::::

           -------------------------------------------------
          |                Property Printout                |
           -------------------------------------------------

    * Orbital Energies and Occupations

         #    Occupation            Energy/Eh            Energy/eV
      -------------------------------------------------------------
         1        2.0000           -0.8258542             -22.4726
       ...           ...                  ...                  ...
        63        2.0000           -0.4420663             -12.0292
        64        2.0000           -0.4410929             -12.0027
        65        2.0000           -0.4367099             -11.8835
        66        2.0000           -0.4344442             -11.8218
        67        2.0000           -0.4330927             -11.7851
        68        2.0000           -0.4317724             -11.7491
        69        2.0000           -0.4289239             -11.6716
        70        2.0000           -0.4274841             -11.6324
        71        2.0000           -0.4215971             -11.4722
        72        2.0000           -0.4137243             -11.2580
        73        2.0000           -0.4080833             -11.1045
        74        2.0000           -0.3933060             -10.7024
        75        2.0000           -0.3503793              -9.5343 (HOMO)
        76                         -0.2869860              -7.8093 (LUMO)
        77                         -0.2813987              -7.6572
        78                         -0.2530793              -6.8866
        79                         -0.2504145              -6.8141
        80                         -0.2201583              -5.9908
        81                         -0.2082369              -5.6664
        82                         -0.1807698              -4.9190
        83                         -0.1076951              -2.9305
        84                         -0.0953859              -2.5956
        85                         -0.0329471              -0.8965
        86                          0.0103492               0.2816
       ...                                ...                  ...
       138                          0.6999284              19.0460
      -------------------------------------------------------------
                  HL-Gap            0.0633933 Eh            1.7250 eV
             Fermi-level           -0.3186827 Eh           -8.6718 eV

     #   Z          covCN         q      C6AA      α(0)
     1   9 F        0.787    -0.217    11.412     3.990
     2   6 C        2.788     0.177    24.198     8.058
     3   6 C        2.915    -0.048    29.193     8.860
     4   6 C        2.924    -0.028    28.691     8.784
     5   6 C        2.968    -0.018    28.454     8.750
     6   6 C        2.932    -0.017    28.445     8.747
     7   6 C        2.914    -0.046    29.144     8.853
     8   6 C        2.825     0.227    23.242     7.900
     9   6 C        3.859    -0.039    21.223     6.552
    10   6 C        3.811    -0.059    21.631     6.620
    11   6 C        3.762     0.011    20.439     6.444
    12   7 N        2.732    -0.166    24.590     7.365
    13   6 C        3.762     0.007    20.495     6.453
    14   6 C        3.811    -0.062    21.673     6.627
    15   6 C        3.752     0.000    20.637     6.478
    16   6 C        3.755    -0.001    20.659     6.481
    17   7 N        2.744    -0.112    23.440     7.191
    18   6 C        2.706     0.327    21.437     7.578
    19   7 N        2.702    -0.161    24.473     7.347
    20   6 C        2.917     0.076    26.307     8.411
    21   6 C        2.919    -0.052    29.284     8.874
    22   6 C        2.921    -0.019    28.491     8.753
    23   6 C        2.917    -0.034    28.840     8.806
    24   6 C        2.923    -0.016    28.417     8.742
    25   6 C        2.982    -0.037    28.921     8.822
    26   6 C        2.772     0.271    22.426     7.756
    27   8 O        0.859    -0.413    21.947     6.281
    28   8 O        0.860    -0.442    22.541     6.366
    29   8 O        0.858    -0.358    20.859     6.123
    30   1 H        0.926     0.063     2.162     2.299
    31   1 H        0.926     0.053     2.287     2.365
    32   1 H        0.926     0.075     2.027     2.227
    33   1 H        0.926     0.066     2.131     2.283
    34   1 H        0.924     0.046     2.375     2.410
    35   1 H        0.924     0.053     2.281     2.362
    36   1 H        0.924     0.035     2.512     2.478
    37   1 H        0.922     0.009     2.902     2.664
    38   1 H        0.924     0.044     2.395     2.420
    39   1 H        0.922     0.008     2.920     2.672
    40   1 H        0.924     0.044     2.394     2.419
    41   1 H        0.925     0.064     2.158     2.297
    42   1 H        0.924     0.044     2.395     2.420
    43   1 H        0.924     0.048     2.345     2.395
    44   1 H        0.924     0.048     2.351     2.398
    45   1 H        0.924     0.067     2.115     2.274
    46   1 H        0.924     0.069     2.094     2.263
    47   1 H        0.860     0.201     1.099     1.642
    48   1 H        0.926     0.043     2.409     2.427
    49   1 H        0.926     0.049     2.331     2.388
    50   1 H        0.926     0.049     2.334     2.389
    51   1 H        0.926     0.070     2.081     2.256

 Mol. C6AA /au·bohr⁶  :      30523.735015
 Mol. C8AA /au·bohr⁸  :     723197.695776
 Mol. α(0) /au        :        269.760146


Wiberg/Mayer (AO) data.
largest (>0.10) Wiberg bond orders for each atom

 ---------------------------------------------------------------------------
     #   Z sym  total        # sym  WBO       # sym  WBO       # sym  WBO
 ---------------------------------------------------------------------------
     1   9 F    1.099 --     2 C    0.967
     2   6 C    3.888 --     7 C    1.388     3 C    1.387     1 F    0.967
     3   6 C    3.989 --     4 C    1.457     2 C    1.387    30 H    0.966
                             6 C    0.105
     4   6 C    3.990 --     3 C    1.457     5 C    1.386    31 H    0.963
                             7 C    0.105
     5   6 C    3.988 --     4 C    1.386     6 C    1.380     8 C    1.017
     6   6 C    3.985 --     7 C    1.459     5 C    1.380    32 H    0.963
                             3 C    0.105
     7   6 C    3.988 --     6 C    1.459     2 C    1.388    33 H    0.965
                             4 C    0.105
     8   6 C    3.921 --    29 O    1.829     5 C    1.017     9 C    0.976
     9   6 C    3.995 --    14 C    0.997     8 C    0.976    10 C    0.970
                            34 H    0.946
    10   6 C    3.994 --    11 C    1.000    35 H    0.976    36 H    0.974
                             9 C    0.970
    11   6 C    3.988 --    12 N    1.006    10 C    1.000    38 H    0.971
                            37 H    0.962
    12   7 N    3.155 --    15 C    1.020    11 C    1.006    13 C    1.003
    13   6 C    3.986 --    14 C    1.003    12 N    1.003    40 H    0.972
                            39 H    0.962
    14   6 C    3.993 --    13 C    1.003     9 C    0.997    42 H    0.975
                            41 H    0.973
    15   6 C    3.985 --    12 N    1.020    44 H    0.970    43 H    0.970
                            16 C    0.968
    16   6 C    3.950 --    17 N    0.970    15 C    0.968    45 H    0.967
                            46 H    0.966
    17   7 N    3.557 --    26 C    1.111    18 C    1.111    16 C    0.970
                            27 O    0.146    28 O    0.126
    18   6 C    3.961 --    28 O    1.639    19 N    1.133    17 N    1.111
    19   7 N    3.501 --    18 C    1.133    20 C    1.130    47 H    0.926
                            28 O    0.138
    20   6 C    3.963 --    21 C    1.347    25 C    1.311    19 N    1.130
    21   6 C    3.988 --    22 C    1.475    20 C    1.347    48 H    0.967
                            24 C    0.109
    22   6 C    3.988 --    21 C    1.475    23 C    1.398    49 H    0.970
    23   6 C    3.982 --    24 C    1.475    22 C    1.398    50 H    0.970
    24   6 C    3.985 --    23 C    1.475    25 C    1.367    51 H    0.964
                            21 C    0.109
    25   6 C    3.985 --    24 C    1.367    20 C    1.311    26 C    1.047
    26   6 C    3.949 --    27 O    1.691    17 N    1.111    25 C    1.047
    27   8 O    2.028 --    26 C    1.691    17 N    0.146
    28   8 O    1.986 --    18 C    1.639    19 N    0.138    17 N    0.126
    29   8 O    2.067 --     8 C    1.829
    30   1 H    0.996 --     3 C    0.966
    31   1 H    0.997 --     4 C    0.963
    32   1 H    0.994 --     6 C    0.963
    33   1 H    0.995 --     7 C    0.965
    34   1 H    0.998 --     9 C    0.946
    35   1 H    0.997 --    10 C    0.976
    36   1 H    0.998 --    10 C    0.974
    37   1 H    1.000 --    11 C    0.962
    38   1 H    0.997 --    11 C    0.971
    39   1 H    0.999 --    13 C    0.962
    40   1 H    0.998 --    13 C    0.972
    41   1 H    0.996 --    14 C    0.973
    42   1 H    0.998 --    14 C    0.975
    43   1 H    0.997 --    15 C    0.970
    44   1 H    0.997 --    15 C    0.970
    45   1 H    0.995 --    16 C    0.967
    46   1 H    0.995 --    16 C    0.966
    47   1 H    0.959 --    19 N    0.926
    48   1 H    0.998 --    21 C    0.967
    49   1 H    0.997 --    22 C    0.970
    50   1 H    0.997 --    23 C    0.970
    51   1 H    0.995 --    24 C    0.964
 ---------------------------------------------------------------------------

Topologies differ in total number of bonds
Writing topology from bond orders to xtbtopo.mol

molecular dipole:
                 x           y           z       tot (Debye)
 q only:       -1.941       0.467       0.090
   full:       -2.344       0.618       0.528       6.307
molecular quadrupole (traceless):
                xx          xy          yy          xz          yz          zz
 q only:       22.105      -3.808     -18.884       1.686       0.384      -3.221
  q+dip:       26.967       1.922     -22.599       0.607       0.492      -4.368
   full:       25.395       0.980     -24.179       1.882      -0.133      -1.216

           -------------------------------------------------
          |                Geometry Summary                 |
           -------------------------------------------------

      molecular mass/u    :      395.4276138
   center of mass at/Å    :        0.1068193       0.0684368       0.0310667
  moments of inertia/u·Å² :        0.1044336E+04   0.1050181E+05   0.1122322E+05
rotational constants/cm⁻¹ :        0.1614196E-01   0.1605212E-02   0.1502031E-02

 * 49 selected distances

     #   Z          #   Z                                           value/Å
     2   6 C        3   6 C                                       1.3841336
     3   6 C        4   6 C                                       1.3820396
     4   6 C        5   6 C                                       1.3943177
     5   6 C        6   6 C                                       1.3966302
     2   6 C        7   6 C                                       1.3841813
     6   6 C        7   6 C                                       1.3795500
     9   6 C       10   6 C                                       1.5350581 (max)
    10   6 C       11   6 C                                       1.5275117
    11   6 C       12   7 N                                       1.4475134
    12   7 N       13   6 C                                       1.4493123
     9   6 C       14   6 C                                       1.5277693
    13   6 C       14   6 C                                       1.5254625
    12   7 N       15   6 C                                       1.4387056
    16   6 C       17   7 N                                       1.4531728
    17   7 N       18   6 C                                       1.3817252
    18   6 C       19   7 N                                       1.3719379
    19   7 N       20   6 C                                       1.3738579
    20   6 C       21   6 C                                       1.3938026
    21   6 C       22   6 C                                       1.3794513
    22   6 C       23   6 C                                       1.3914083
    23   6 C       24   6 C                                       1.3777572
    20   6 C       25   6 C                                       1.3983356
    24   6 C       25   6 C                                       1.3948537
    17   7 N       26   6 C                                       1.3901968
    26   6 C       27   8 O                                       1.2129965
    18   6 C       28   8 O                                       1.2095112
     8   6 C       29   8 O                                       1.2107053
     3   6 C       30   1 H                                       1.0787163
     4   6 C       31   1 H                                       1.0781524
     6   6 C       32   1 H                                       1.0795341
     7   6 C       33   1 H                                       1.0783816
     9   6 C       34   1 H                                       1.0950634
    10   6 C       35   1 H                                       1.0907618
    10   6 C       36   1 H                                       1.0911084
    11   6 C       37   1 H                                       1.1053300
    11   6 C       38   1 H                                       1.0921400
    13   6 C       39   1 H                                       1.1050823
    13   6 C       40   1 H                                       1.0915743
    14   6 C       41   1 H                                       1.0898554
    14   6 C       42   1 H                                       1.0907690
    15   6 C       43   1 H                                       1.0942586
    15   6 C       44   1 H                                       1.0940635
    16   6 C       45   1 H                                       1.0906941
    16   6 C       46   1 H                                       1.0910741
    19   7 N       47   1 H                                       1.0112354 (min)
    21   6 C       48   1 H                                       1.0799067
    22   6 C       49   1 H                                       1.0795392
    23   6 C       50   1 H                                       1.0786606
    24   6 C       51   1 H                                       1.0790201

 * 5 distinct bonds (by element types)

   Z      Z             #   av. dist./Å        max./Å        min./Å
   1 H    6 C          21     1.0882708     1.1053300     1.0781524
   6 C    6 C          16     1.4232664     1.5350581     1.3777572
   1 H    7 N           1     1.0112354     1.0112354     1.0112354
   6 C    7 N           8     1.4133028     1.4531728     1.3719379
   6 C    8 O           3     1.2110710     1.2129965     1.2095112


optimized geometry written to: xtbopt.xyz


           -------------------------------------------------
          | TOTAL ENERGY              -84.107985636959 Eh   |
          | GRADIENT NORM               0.000523408903 Eh/α |
          | HOMO-LUMO GAP               1.725020003625 eV   |
           -------------------------------------------------

------------------------------------------------------------------------
 * finished run on 2025/05/15 at 16:36:58.089     
------------------------------------------------------------------------
 total:
 * wall-time:     0 d,  0 h,  0 min,  2.975 sec
 *  cpu-time:     0 d,  0 h,  0 min,  1.735 sec
 * ratio c/w:     0.583 speedup
 SCF:
 * wall-time:     0 d,  0 h,  0 min,  0.170 sec
 *  cpu-time:     0 d,  0 h,  0 min,  0.087 sec
 * ratio c/w:     0.509 speedup
 ANC optimizer:
 * wall-time:     0 d,  0 h,  0 min,  2.752 sec
 *  cpu-time:     0 d,  0 h,  0 min,  1.634 sec
 * ratio c/w:     0.594 speedup



----- Single-point -----
      -----------------------------------------------------------      
     |                   =====================                   |     
     |                           x T B                           |     
     |                   =====================                   |     
     |                         S. Grimme                         |     
     |          Mulliken Center for Theoretical Chemistry        |     
     |                    University of Bonn                     |     
      -----------------------------------------------------------      

   * xtb version 6.7.1 (edcfbbe) compiled by 'conda@3ef47c1a292c' on 2024-11-25

   xtb is free software: you can redistribute it and/or modify it under
   the terms of the GNU Lesser General Public License as published by
   the Free Software Foundation, either version 3 of the License, or
   (at your option) any later version.
   
   xtb is distributed in the hope that it will be useful,
   but WITHOUT ANY WARRANTY; without even the implied warranty of
   MERCHANTABILITY or FITNESS FOR A PARTICULAR PURPOSE.  See the
   GNU Lesser General Public License for more details.
   
   Cite this work as:
   * C. Bannwarth, E. Caldeweyher, S. Ehlert, A. Hansen, P. Pracht,
     J. Seibert, S. Spicher, S. Grimme, WIREs Comput. Mol. Sci., 2020, 11,
     e01493. DOI: 10.1002/wcms.1493
   
   for GFN2-xTB:
   * C. Bannwarth, S. Ehlert and S. Grimme., J. Chem. Theory Comput., 2019,
     15, 1652-1671. DOI: 10.1021/acs.jctc.8b01176
   for GFN1-xTB:
   * S. Grimme, C. Bannwarth, P. Shushkov, J. Chem. Theory Comput., 2017,
     13, 1989-2009. DOI: 10.1021/acs.jctc.7b00118
   for GFN0-xTB:
   * P. Pracht, E. Caldeweyher, S. Ehlert, S. Grimme, ChemRxiv, 2019, preprint.
     DOI: 10.26434/chemrxiv.8326202.v1
   for GFN-FF:
   * S. Spicher and S. Grimme, Angew. Chem. Int. Ed., 2020, 59, 15665-15673.
     DOI: 10.1002/anie.202004239
   
   for ALPB and GBSA implicit solvation:
   * S. Ehlert, M. Stahn, S. Spicher, S. Grimme, J. Chem. Theory Comput.,
     2021, 17, 4250-4261. DOI: 10.1021/acs.jctc.1c00471
   
   for ddCOSMO and CPCM-X implicit solvation:
   * M. Stahn, S. Ehlert, S. Grimme, J. Phys. Chem. A,
     2023, XX, XXXX-XXXX. DOI: 10.1021/acs.jpca.3c04382
   
   for DFT-D4:
   * E. Caldeweyher, C. Bannwarth and S. Grimme, J. Chem. Phys., 2017,
     147, 034112. DOI: 10.1063/1.4993215
   * E. Caldeweyher, S. Ehlert, A. Hansen, H. Neugebauer, S. Spicher,
     C. Bannwarth and S. Grimme, J. Chem. Phys., 2019, 150, 154122.
     DOI: 10.1063/1.5090222
   * E. Caldeweyher, J.-M. Mewes, S. Ehlert and S. Grimme, Phys. Chem. Chem. Phys.
     2020, 22, 8499-8512. DOI: 10.1039/D0CP00502A
   
   for sTDA-xTB:
   * S. Grimme and C. Bannwarth, J. Chem. Phys., 2016, 145, 054103.
     DOI: 10.1063/1.4959605
   
   in the mass-spec context:
   * V. Asgeirsson, C. Bauer and S. Grimme, Chem. Sci., 2017, 8, 4879.
     DOI: 10.1039/c7sc00601b
   * J. Koopman and S. Grimme, ACS Omega 2019, 4, 12, 15120-15133.
     DOI: 10.1021/acsomega.9b02011
   
   for metadynamics refer to:
   * S. Grimme, J. Chem. Theory Comput., 2019, 155, 2847-2862
     DOI: 10.1021/acs.jctc.9b00143
   
   for SPH calculations refer to:
   * S. Spicher and S. Grimme, J. Chem. Theory Comput., 2021, 17, 1701-1714
     DOI: 10.1021/acs.jctc.0c01306
   
   for ONIOM refer to:
   * C. Plett, A. Katbashev, S. Ehlert, S. Grimme, M. Bursch,
     Phys. Chem. Chem. Phys., 2023, 25, 17860-17868. DOI: 10.1039/D3CP02178E
   
   for DIPRO refer to:
   * J. Kohn, N. Gildemeister, S. Grimme, D. Fazzi, A. Hansen,
     J. Chem. Phys., 2023, just accepted.
   
   for PTB refer to:
   * S. Grimme, M. Mueller, A. Hansen, J. Chem. Phys., 2023, 158, 124111.
     DOI: 10.1063/5.0137838
   
   with help from (in alphabetical order)
   P. Atkinson, C. Bannwarth, F. Bohle, G. Brandenburg, E. Caldeweyher
   M. Checinski, S. Dohm, S. Ehlert, S. Ehrlich, I. Gerasimov, C. Hölzer
   A. Katbashev, J. Kohn, J. Koopman, C. Lavigne, S. Lehtola, F. März, M. Müller,
   F. Musil, H. Neugebauer, J. Pisarek, C. Plett, P. Pracht, F. Pultar,
   J. Seibert, P. Shushkov, S. Spicher, M. Stahn, M. Steiner, T. Strunk,
   J. Stückrath, T. Rose, and J. Unsleber
   
 * started run on 2025/05/15 at 16:36:58.101     
   ID    Z sym.   atoms
    1    9 F      1
    2    6 C      2-11, 13-16, 18, 20-26
    3    7 N      12, 17, 19
    4    8 O      27-29
    5    1 H      30-51

           -------------------------------------------------
          |                Calculation Setup                |
           -------------------------------------------------

          program call               : xtb /rds/general/user/hgt20/home/callum/QDESCP/Ketanserin_rdkit_conf_10/Ketanserin_rdkit_conf_10.xyz --acc 1 --gfn 2 --chrg 0 --uhf 0 --etemp 300 --input /rds/general/user/hgt20/home/callum/QDESCP/Ketanserin_rdkit_conf_10/Ketanserin_rdkit_conf_10_xtb.inp -P 1
          hostname                   : login-c
          coordinate file            : /rds/general/user/hgt20/home/callum/QDESCP/Ketanserin_rdkit_conf_10/Ketanserin_rdkit_conf_10.xyz
          omp threads                :                     1


           -------------------------------------------------
          |                 G F N 2 - x T B                 |
           -------------------------------------------------

        Reference                      10.1021/acs.jctc.8b01176
      * Hamiltonian:
        H0-scaling (s, p, d)           1.850000    2.230000    2.230000
        zeta-weighting                 0.500000
      * Dispersion:
        s8                             2.700000
        a1                             0.520000
        a2                             5.000000
        s9                             5.000000
      * Repulsion:
        kExp                           1.500000    1.000000
        rExp                           1.000000
      * Coulomb:
        alpha                          2.000000
        third order                    shell-resolved
        anisotropic                    true
        a3                             3.000000
        a5                             4.000000
        cn-shift                       1.200000
        cn-exp                         4.000000
        max-rad                        5.000000

q/qsh data taken from xtbrestart
CAMM data taken from xtbrestart

          ...................................................
          :                      SETUP                      :
          :.................................................:
          :  # basis functions                 138          :
          :  # atomic orbitals                 138          :
          :  # shells                           80          :
          :  # electrons                       150          :
          :  max. iterations                   250          :
          :  Hamiltonian                  GFN2-xTB          :
          :  restarted?                       true          :
          :  GBSA solvation                  false          :
          :  PC potential                    false          :
          :  electronic temp.          300.0000000     K    :
          :  accuracy                    1.0000000          :
          :  -> integral cutoff          0.2500000E+02      :
          :  -> integral neglect         0.1000000E-07      :
          :  -> SCF convergence          0.1000000E-05 Eh   :
          :  -> wf. convergence          0.1000000E-03 e    :
          :  Broyden damping             0.4000000          :
          :  net charge                          0          :
          :  unpaired electrons                  0          :
          ...................................................

 iter      E             dE          RMSdq      gap      omega  full diag
   1    -85.2536520 -0.852537E+02  0.736E-06    1.73       0.0  T
   2    -85.2536520 -0.483169E-12  0.456E-06    1.73    3070.3  T
   3    -85.2536520 -0.170530E-12  0.290E-06    1.73    4829.9  T

   *** convergence criteria satisfied after 3 iterations ***

         #    Occupation            Energy/Eh            Energy/eV
      -------------------------------------------------------------
         1        2.0000           -0.8258539             -22.4726
       ...           ...                  ...                  ...
        69        2.0000           -0.4289239             -11.6716
        70        2.0000           -0.4274842             -11.6324
        71        2.0000           -0.4215971             -11.4722
        72        2.0000           -0.4137244             -11.2580
        73        2.0000           -0.4080832             -11.1045
[...]
   * C. Plett, A. Katbashev, S. Ehlert, S. Grimme, M. Bursch,
     Phys. Chem. Chem. Phys., 2023, 25, 17860-17868. DOI: 10.1039/D3CP02178E
   
   for DIPRO refer to:
   * J. Kohn, N. Gildemeister, S. Grimme, D. Fazzi, A. Hansen,
     J. Chem. Phys., 2023, just accepted.
   
   for PTB refer to:
   * S. Grimme, M. Mueller, A. Hansen, J. Chem. Phys., 2023, 158, 124111.
     DOI: 10.1063/5.0137838
   
   with help from (in alphabetical order)
   P. Atkinson, C. Bannwarth, F. Bohle, G. Brandenburg, E. Caldeweyher
   M. Checinski, S. Dohm, S. Ehlert, S. Ehrlich, I. Gerasimov, C. Hölzer
   A. Katbashev, J. Kohn, J. Koopman, C. Lavigne, S. Lehtola, F. März, M. Müller,
   F. Musil, H. Neugebauer, J. Pisarek, C. Plett, P. Pracht, F. Pultar,
   J. Seibert, P. Shushkov, S. Spicher, M. Stahn, M. Steiner, T. Strunk,
   J. Stückrath, T. Rose, and J. Unsleber
   
 * started run on 2025/05/15 at 16:37:01.528     
   ID    Z sym.   atoms
    1    9 F      1
    2    6 C      2-11, 13-16, 18, 20-26
    3    7 N      12, 17, 19
    4    8 O      27-29
    5    1 H      30-51

           -------------------------------------------------
          |                Calculation Setup                |
           -------------------------------------------------

          program call               : xtb /rds/general/user/hgt20/home/callum/QDESCP/Ketanserin_rdkit_conf_10/Ketanserin_rdkit_conf_10.xyz --acc 1 --gfn 2 --chrg 0 --uhf 2 --etemp 300 --input /rds/general/user/hgt20/home/callum/QDESCP/Ketanserin_rdkit_conf_10/Ketanserin_rdkit_conf_10_xtb.inp -P 1
          hostname                   : login-c
          coordinate file            : /rds/general/user/hgt20/home/callum/QDESCP/Ketanserin_rdkit_conf_10/Ketanserin_rdkit_conf_10.xyz
          omp threads                :                     1


           -------------------------------------------------
          |                 G F N 2 - x T B                 |
           -------------------------------------------------

        Reference                      10.1021/acs.jctc.8b01176
      * Hamiltonian:
        H0-scaling (s, p, d)           1.850000    2.230000    2.230000
        zeta-weighting                 0.500000
      * Dispersion:
        s8                             2.700000
        a1                             0.520000
        a2                             5.000000
        s9                             5.000000
      * Repulsion:
        kExp                           1.500000    1.000000
        rExp                           1.000000
      * Coulomb:
        alpha                          2.000000
        third order                    shell-resolved
        anisotropic                    true
        a3                             3.000000
        a5                             4.000000
        cn-shift                       1.200000
        cn-exp                         4.000000
        max-rad                        5.000000


          ...................................................
          :                      SETUP                      :
          :.................................................:
          :  # basis functions                 138          :
          :  # atomic orbitals                 138          :
          :  # shells                           80          :
          :  # electrons                       150          :
          :  max. iterations                   250          :
          :  Hamiltonian                  GFN2-xTB          :
          :  restarted?                      false          :
          :  GBSA solvation                  false          :
          :  PC potential                    false          :
          :  electronic temp.          300.0000000     K    :
          :  accuracy                    1.0000000          :
          :  -> integral cutoff          0.2500000E+02      :
          :  -> integral neglect         0.1000000E-07      :
          :  -> SCF convergence          0.1000000E-05 Eh   :
          :  -> wf. convergence          0.1000000E-03 e    :
          :  Broyden damping             0.4000000          :
          :  net charge                          0          :
          :  unpaired electrons                  2          :
          ...................................................

 iter      E             dE          RMSdq      gap      omega  full diag
   1    -84.8146074 -0.848146E+02  0.411E+00    0.18       0.0  T
   2    -84.7375720  0.770354E-01  0.303E+00    0.74       1.0  T
   3    -84.7718730 -0.343009E-01  0.236E+00    1.93       1.0  T
   4    -84.9362716 -0.164399E+00  0.178E+00    0.99       1.0  T
   5    -85.0230783 -0.868068E-01  0.115E+00    0.53       1.0  T
   6    -84.9294058  0.936725E-01  0.118E+00    0.40       1.0  T
   7    -85.0094470 -0.800412E-01  0.119E+00    0.59       1.0  T
   8    -85.0123875 -0.294051E-02  0.938E-01    0.49       1.0  T
   9    -85.0801719 -0.677844E-01  0.810E-01    0.29       1.0  T
  10    -85.1413665 -0.611946E-01  0.403E-01    0.11       1.0  T
  11    -85.1074191  0.339474E-01  0.629E-01    0.12       1.0  T
  12    -84.9421793  0.165240E+00  0.113E+00    0.24       1.0  T
  13    -85.1447888 -0.202609E+00  0.234E-01    0.06       1.0  T
  14    -85.1377368  0.705201E-02  0.248E-01    0.03       1.0  T
  15    -85.1467782 -0.904140E-02  0.128E-01    0.08       1.0  T
  16    -85.1453288  0.144944E-02  0.117E-01    0.04       1.0  T
  17    -85.1475587 -0.222998E-02  0.502E-02    0.06       1.0  T
  18    -85.1476720 -0.113267E-03  0.156E-02    0.06       1.0  T
  19    -85.1476842 -0.121728E-04  0.539E-03    0.06       2.6  T
  20    -85.1476868 -0.257292E-05  0.277E-03    0.06       5.1  T
  21    -85.1476874 -0.602852E-06  0.128E-03    0.06      11.0  T
  22    -85.1476871  0.255356E-06  0.175E-03    0.06       8.0  T
  23    -85.1476876 -0.514633E-06  0.275E-04    0.06      51.0  T
  24    -85.1476876 -0.405009E-11  0.164E-04    0.06      85.6  T

   *** convergence criteria satisfied after 24 iterations ***

         #    Occupation            Energy/Eh            Energy/eV
      -------------------------------------------------------------
         1        2.0000           -0.8041916             -21.8832
       ...           ...                  ...                  ...
        70        2.0000           -0.4124228             -11.2226
        71        2.0000           -0.4094184             -11.1408
        72        1.9961           -0.4032826             -10.9739
        73        1.9916           -0.4025646             -10.9543
        74        1.9301           -0.4004874             -10.8978
        75        1.0822           -0.3957363             -10.7685
        76        0.7587           -0.2752224              -7.4892 (HOMO)
        77        0.2413           -0.2730453              -7.4299 (LUMO)
        78                         -0.2474251              -6.7328
        79                         -0.2303828              -6.2690
        80                         -0.2148283              -5.8458
        81                         -0.1924994              -5.2382
       ...                                ...                  ...
       138                          0.7047551              19.1774
      -------------------------------------------------------------
                  HL-Gap            0.0021771 Eh            0.0592 eV
             Fermi-level           -0.3360811 Eh           -9.1452 eV

 transition dipole moment (au) for excitation:          75          76
     X       Y       Z   
   0.1503   0.0310   0.0121  total (au/Debye):    0.154   0.391
 dE (eV)             :    3.279
 oscillator strength :  0.26918E-02

 SCC (total)                   0 d,  0 h,  0 min,  0.225 sec
 SCC setup                      ...        0 min,  0.000 sec (  0.217%)
 Dispersion                     ...        0 min,  0.001 sec (  0.298%)
 classical contributions        ...        0 min,  0.000 sec (  0.097%)
 integral evaluation            ...        0 min,  0.010 sec (  4.474%)
 iterations                     ...        0 min,  0.127 sec ( 56.409%)
 molecular gradient             ...        0 min,  0.078 sec ( 34.447%)
 printout                       ...        0 min,  0.009 sec (  4.055%)

         :::::::::::::::::::::::::::::::::::::::::::::::::::::
         ::                     SUMMARY                     ::
         :::::::::::::::::::::::::::::::::::::::::::::::::::::
         :: total energy             -84.002021253336 Eh    ::
         :: gradient norm              0.099896406405 Eh/a0 ::
         :: HOMO-LUMO gap              0.059241726277 eV    ::
         ::.................................................::
         :: SCC energy               -85.148035526474 Eh    ::
         :: -> isotropic ES            0.113944707200 Eh    ::
         :: -> anisotropic ES          0.004002107721 Eh    ::
         :: -> anisotropic XC          0.023888768099 Eh    ::
         :: -> dispersion             -0.055993026491 Eh    ::
         :: repulsion energy           1.146014273138 Eh    ::
         :: add. restraining           0.000000000000 Eh    ::
         :: total charge               0.000000000170 e     ::
         :::::::::::::::::::::::::::::::::::::::::::::::::::::

           -------------------------------------------------
          |                Property Printout                |
           -------------------------------------------------

    * Orbital Energies and Occupations

         #    Occupation            Energy/Eh            Energy/eV
      -------------------------------------------------------------
         1        2.0000           -0.8041916             -21.8832
       ...           ...                  ...                  ...
        64        2.0000           -0.4537412             -12.3469
        65        2.0000           -0.4445703             -12.0974
        66        2.0000           -0.4415436             -12.0150
        67        2.0000           -0.4331291             -11.7860
        68        2.0000           -0.4247285             -11.5575
        69        2.0000           -0.4233230             -11.5192
        70        2.0000           -0.4124228             -11.2226
        71        2.0000           -0.4094184             -11.1408
        72        1.9961           -0.4032826             -10.9739
        73        1.9916           -0.4025646             -10.9543
        74        1.9301           -0.4004874             -10.8978
        75        1.0822           -0.3957363             -10.7685
        76        0.7587           -0.2752224              -7.4892 (HOMO)
        77        0.2413           -0.2730453              -7.4299 (LUMO)
        78                         -0.2474251              -6.7328
        79                         -0.2303828              -6.2690
        80                         -0.2148283              -5.8458
        81                         -0.1924994              -5.2382
        82                         -0.1758457              -4.7850
        83                         -0.0887916              -2.4161
        84                         -0.0867148              -2.3596
        85                         -0.0466940              -1.2706
        86                         -0.0059747              -0.1626
        87                          0.0183585               0.4996
       ...                                ...                  ...
       138                          0.7047551              19.1774
      -------------------------------------------------------------
                  HL-Gap            0.0021771 Eh            0.0592 eV
             Fermi-level           -0.3360811 Eh           -9.1452 eV

     #   Z          covCN         q      C6AA      α(0)
     1   9 F        0.787    -0.233    11.583     4.020
     2   6 C        2.788     0.155    24.638     8.131
     3   6 C        2.915    -0.050    29.251     8.869
     4   6 C        2.924    -0.049    29.211     8.863
     5   6 C        2.968    -0.020    28.500     8.757
     6   6 C        2.932    -0.031    28.781     8.798
     7   6 C        2.914    -0.050    29.249     8.868
     8   6 C        2.825     0.181    24.124     8.048
     9   6 C        3.859    -0.016    20.817     6.489
    10   6 C        3.811    -0.065    21.730     6.635
    11   6 C        3.762    -0.001    20.638     6.476
    12   7 N        2.732    -0.087    22.930     7.112
    13   6 C        3.762    -0.003    20.678     6.482
    14   6 C        3.811    -0.060    21.652     6.623
    15   6 C        3.752    -0.009    20.796     6.503
    16   6 C        3.755     0.004    20.562     6.466
    17   7 N        2.744    -0.115    23.514     7.202
    18   6 C        2.706     0.325    21.477     7.585
    19   7 N        2.702    -0.160    24.458     7.345
    20   6 C        2.917     0.070    26.424     8.429
    21   6 C        2.919    -0.055    29.367     8.887
    22   6 C        2.921    -0.029    28.734     8.790
    23   6 C        2.917    -0.032    28.803     8.801
    24   6 C        2.923    -0.024    28.608     8.771
    25   6 C        2.982    -0.044    29.087     8.847
    26   6 C        2.772     0.258    22.666     7.797
    27   8 O        0.859    -0.435    22.385     6.343
    28   8 O        0.860    -0.454    22.795     6.401
    29   8 O        0.858    -0.339    20.509     6.072
    30   1 H        0.926     0.051     2.307     2.375
    31   1 H        0.926     0.033     2.545     2.495
    32   1 H        0.926     0.056     2.248     2.344
    33   1 H        0.926     0.058     2.217     2.328
    34   1 H        0.924     0.051     2.303     2.373
    35   1 H        0.924     0.063     2.167     2.302
    36   1 H        0.924     0.057     2.233     2.337
    37   1 H        0.922     0.042     2.419     2.432
    38   1 H        0.924     0.063     2.167     2.302
    39   1 H        0.922     0.039     2.460     2.453
    40   1 H        0.924     0.062     2.177     2.307
    41   1 H        0.925     0.069     2.092     2.262
    42   1 H        0.924     0.059     2.211     2.326
    43   1 H        0.924     0.068     2.104     2.269
    44   1 H        0.924     0.065     2.142     2.288
    45   1 H        0.924     0.072     2.059     2.244
    46   1 H        0.924     0.078     2.003     2.213
    47   1 H        0.860     0.200     1.106     1.648
    48   1 H        0.926     0.036     2.505     2.475
    49   1 H        0.926     0.041     2.434     2.440
    50   1 H        0.926     0.043     2.404     2.424
    51   1 H        0.926     0.063     2.169     2.303

 Mol. C6AA /au·bohr⁶  :      30428.710839
 Mol. C8AA /au·bohr⁸  :     722460.741986
 Mol. α(0) /au        :        269.353637


Wiberg/Mayer (AO) data.
largest (>0.10) Wiberg bond orders for each atom

 ---------------------------------------------------------------------------
     #   Z sym  total        # sym  WBO       # sym  WBO       # sym  WBO
 ---------------------------------------------------------------------------
     1   9 F    1.066 --     2 C    0.951
     2   6 C    3.817 --     3 C    1.360     7 C    1.353     1 F    0.951
     3   6 C    3.978 --     4 C    1.474     2 C    1.360    30 H    0.967
     4   6 C    3.938 --     3 C    1.474     5 C    1.307    31 H    0.959
     5   6 C    3.872 --     4 C    1.307     6 C    1.287     8 C    1.059
     6   6 C    3.934 --     7 C    1.490     5 C    1.287    32 H    0.966
     7   6 C    3.978 --     6 C    1.490     2 C    1.353    33 H    0.960
     8   6 C    3.740 --    29 O    1.626     5 C    1.059     9 C    0.887
     9   6 C    3.956 --    14 C    0.999    10 C    0.984    34 H    0.948
                             8 C    0.887
    10   6 C    3.979 --     9 C    0.984    11 C    0.979    35 H    0.973
                            36 H    0.971
    11   6 C    3.972 --    12 N    1.014    10 C    0.979    38 H    0.969
                            37 H    0.949
    12   7 N    3.271 --    15 C    1.022    11 C    1.014    13 C    1.008
    13   6 C    3.972 --    12 N    1.008    14 C    0.984    40 H    0.969
                            39 H    0.952
    14   6 C    3.984 --     9 C    0.999    13 C    0.984    41 H    0.973
                            42 H    0.973
    15   6 C    3.959 --    12 N    1.022    44 H    0.966    43 H    0.965
                            16 C    0.950
    16   6 C    3.932 --    17 N    0.987    45 H    0.965    46 H    0.963
                            15 C    0.950
    17   7 N    3.510 --    18 C    1.111    26 C    1.069    16 C    0.987
                            28 O    0.126    27 O    0.120
    18   6 C    3.956 --    28 O    1.626    19 N    1.141    17 N    1.111
    19   7 N    3.469 --    18 C    1.141    20 C    1.116    47 H    0.927
                            28 O    0.137
    20   6 C    3.929 --    21 C    1.362    25 C    1.289    19 N    1.116
    21   6 C    3.946 --    22 C    1.437    20 C    1.362    48 H    0.967
    22   6 C    3.919 --    21 C    1.437    23 C    1.394    49 H    0.971
    23   6 C    3.962 --    24 C    1.470    22 C    1.394    50 H    0.970
    24   6 C    3.920 --    23 C    1.470    25 C    1.336    51 H    0.966
    25   6 C    3.945 --    24 C    1.336    20 C    1.289    26 C    1.072
    26   6 C    3.872 --    27 O    1.649    25 C    1.072    17 N    1.069
    27   8 O    1.935 --    26 C    1.649    17 N    0.120
    28   8 O    1.966 --    18 C    1.626    19 N    0.137    17 N    0.126
    29   8 O    1.993 --     8 C    1.626
    30   1 H    0.996 --     3 C    0.967
    31   1 H    0.997 --     4 C    0.959
    32   1 H    0.997 --     6 C    0.966
    33   1 H    0.991 --     7 C    0.960
    34   1 H    0.993 --     9 C    0.948
    35   1 H    0.995 --    10 C    0.973
    36   1 H    0.996 --    10 C    0.971
    37   1 H    0.991 --    11 C    0.949
    38   1 H    0.995 --    11 C    0.969
    39   1 H    0.991 --    13 C    0.952
    40   1 H    0.995 --    13 C    0.969
    41   1 H    0.995 --    14 C    0.973
    42   1 H    0.996 --    14 C    0.973
    43   1 H    0.992 --    15 C    0.965
    44   1 H    0.993 --    15 C    0.966
    45   1 H    0.993 --    16 C    0.965
    46   1 H    0.992 --    16 C    0.963
    47   1 H    0.959 --    19 N    0.927
    48   1 H    0.998 --    21 C    0.967
    49   1 H    0.997 --    22 C    0.971
    50   1 H    0.998 --    23 C    0.970
    51   1 H    0.996 --    24 C    0.966
 ---------------------------------------------------------------------------

Topologies differ in total number of bonds
Writing topology from bond orders to xtbtopo.mol

molecular dipole:
                 x           y           z       tot (Debye)
 q only:       -2.407      -0.325      -0.025
   full:       -2.841      -0.296       0.334       7.309
molecular quadrupole (traceless):
                xx          xy          yy          xz          yz          zz
 q only:      -12.524      -4.449      -2.061       2.625       0.014      14.585
  q+dip:       -9.638       1.108      -4.823       1.595       0.468      14.461
   full:      -10.789       0.199      -6.327       2.451       0.234      17.117


           -------------------------------------------------
          | TOTAL ENERGY              -84.002021253336 Eh   |
          | GRADIENT NORM               0.099896406405 Eh/α |
          | HOMO-LUMO GAP               0.059241726277 eV   |
           -------------------------------------------------

------------------------------------------------------------------------
 * finished run on 2025/05/15 at 16:37:01.817     
------------------------------------------------------------------------
 total:
 * wall-time:     0 d,  0 h,  0 min,  0.289 sec
 *  cpu-time:     0 d,  0 h,  0 min,  0.143 sec
 * ratio c/w:     0.494 speedup
 SCF:
 * wall-time:     0 d,  0 h,  0 min,  0.225 sec
 *  cpu-time:     0 d,  0 h,  0 min,  0.129 sec
 * ratio c/w:     0.571 speedup


