----- Optimization -----
      -----------------------------------------------------------      
     |                   =====================                   |     
     |                           x T B                           |     
     |                   =====================                   |     
     |                         S. Grimme                         |     
     |          Mulliken Center for Theoretical Chemistry        |     
     |                    University of Bonn                     |     
      -----------------------------------------------------------      

   * xtb version 6.7.1 (edcfbbe) compiled by 'conda@3ef47c1a292c' on 2024-11-25

   xtb is free software: you can redistribute it and/or modify it under
   the terms of the GNU Lesser General Public License as published by
   the Free Software Foundation, either version 3 of the License, or
   (at your option) any later version.
   
   xtb is distributed in the hope that it will be useful,
   but WITHOUT ANY WARRANTY; without even the implied warranty of
   MERCHANTABILITY or FITNESS FOR A PARTICULAR PURPOSE.  See the
   GNU Lesser General Public License for more details.
   
   Cite this work as:
   * C. Bannwarth, E. Caldeweyher, S. Ehlert, A. Hansen, P. Pracht,
     J. Seibert, S. Spicher, S. Grimme, WIREs Comput. Mol. Sci., 2020, 11,
     e01493. DOI: 10.1002/wcms.1493
   
   for GFN2-xTB:
   * C. Bannwarth, S. Ehlert and S. Grimme., J. Chem. Theory Comput., 2019,
     15, 1652-1671. DOI: 10.1021/acs.jctc.8b01176
   for GFN1-xTB:
   * S. Grimme, C. Bannwarth, P. Shushkov, J. Chem. Theory Comput., 2017,
     13, 1989-2009. DOI: 10.1021/acs.jctc.7b00118
   for GFN0-xTB:
   * P. Pracht, E. Caldeweyher, S. Ehlert, S. Grimme, ChemRxiv, 2019, preprint.
     DOI: 10.26434/chemrxiv.8326202.v1
   for GFN-FF:
   * S. Spicher and S. Grimme, Angew. Chem. Int. Ed., 2020, 59, 15665-15673.
     DOI: 10.1002/anie.202004239
   
   for ALPB and GBSA implicit solvation:
   * S. Ehlert, M. Stahn, S. Spicher, S. Grimme, J. Chem. Theory Comput.,
     2021, 17, 4250-4261. DOI: 10.1021/acs.jctc.1c00471
   
   for ddCOSMO and CPCM-X implicit solvation:
   * M. Stahn, S. Ehlert, S. Grimme, J. Phys. Chem. A,
     2023, XX, XXXX-XXXX. DOI: 10.1021/acs.jpca.3c04382
   
   for DFT-D4:
   * E. Caldeweyher, C. Bannwarth and S. Grimme, J. Chem. Phys., 2017,
     147, 034112. DOI: 10.1063/1.4993215
   * E. Caldeweyher, S. Ehlert, A. Hansen, H. Neugebauer, S. Spicher,
     C. Bannwarth and S. Grimme, J. Chem. Phys., 2019, 150, 154122.
     DOI: 10.1063/1.5090222
   * E. Caldeweyher, J.-M. Mewes, S. Ehlert and S. Grimme, Phys. Chem. Chem. Phys.
     2020, 22, 8499-8512. DOI: 10.1039/D0CP00502A
   
   for sTDA-xTB:
   * S. Grimme and C. Bannwarth, J. Chem. Phys., 2016, 145, 054103.
     DOI: 10.1063/1.4959605
   
   in the mass-spec context:
   * V. Asgeirsson, C. Bauer and S. Grimme, Chem. Sci., 2017, 8, 4879.
     DOI: 10.1039/c7sc00601b
   * J. Koopman and S. Grimme, ACS Omega 2019, 4, 12, 15120-15133.
     DOI: 10.1021/acsomega.9b02011
   
   for metadynamics refer to:
   * S. Grimme, J. Chem. Theory Comput., 2019, 155, 2847-2862
     DOI: 10.1021/acs.jctc.9b00143
   
   for SPH calculations refer to:
   * S. Spicher and S. Grimme, J. Chem. Theory Comput., 2021, 17, 1701-1714
     DOI: 10.1021/acs.jctc.0c01306
   
   for ONIOM refer to:
   * C. Plett, A. Katbashev, S. Ehlert, S. Grimme, M. Bursch,
     Phys. Chem. Chem. Phys., 2023, 25, 17860-17868. DOI: 10.1039/D3CP02178E
   
   for DIPRO refer to:
   * J. Kohn, N. Gildemeister, S. Grimme, D. Fazzi, A. Hansen,
     J. Chem. Phys., 2023, just accepted.
   
   for PTB refer to:
   * S. Grimme, M. Mueller, A. Hansen, J. Chem. Phys., 2023, 158, 124111.
     DOI: 10.1063/5.0137838
   
   with help from (in alphabetical order)
   P. Atkinson, C. Bannwarth, F. Bohle, G. Brandenburg, E. Caldeweyher
   M. Checinski, S. Dohm, S. Ehlert, S. Ehrlich, I. Gerasimov, C. Hölzer
   A. Katbashev, J. Kohn, J. Koopman, C. Lavigne, S. Lehtola, F. März, M. Müller,
   F. Musil, H. Neugebauer, J. Pisarek, C. Plett, P. Pracht, F. Pultar,
   J. Seibert, P. Shushkov, S. Spicher, M. Stahn, M. Steiner, T. Strunk,
   J. Stückrath, T. Rose, and J. Unsleber
   
 * started run on 2025/05/15 at 16:10:05.889     
   ID    Z sym.   atoms
    1    6 C      1, 2, 4-6, 8-12, 14-17, 19-22
    2    7 N      3, 7, 18
    3   17 Cl     13
    4    8 O      23
    5    1 H      24-49

           -------------------------------------------------
          |                Calculation Setup                |
           -------------------------------------------------

          program call               : xtb /rds/general/user/hgt20/home/callum/QDESCP/Hydroxychloroquine_rdkit_conf_8/Hydroxychloroquine_rdkit_conf_8.xyz --opt normal --acc 1 --gfn 2 --chrg 0 --uhf 0 -P 1
          hostname                   : login-c
          coordinate file            : /rds/general/user/hgt20/home/callum/QDESCP/Hydroxychloroquine_rdkit_conf_8/Hydroxychloroquine_rdkit_conf_8.xyz
          omp threads                :                     1


           -------------------------------------------------
          |                 G F N 2 - x T B                 |
           -------------------------------------------------

        Reference                      10.1021/acs.jctc.8b01176
      * Hamiltonian:
        H0-scaling (s, p, d)           1.850000    2.230000    2.230000
        zeta-weighting                 0.500000
      * Dispersion:
        s8                             2.700000
        a1                             0.520000
        a2                             5.000000
        s9                             5.000000
      * Repulsion:
        kExp                           1.500000    1.000000
        rExp                           1.000000
      * Coulomb:
        alpha                          2.000000
        third order                    shell-resolved
        anisotropic                    true
        a3                             3.000000
        a5                             4.000000
        cn-shift                       1.200000
        cn-exp                         4.000000
        max-rad                        5.000000


          ...................................................
          :                      SETUP                      :
          :.................................................:
          :  # basis functions                 124          :
          :  # atomic orbitals                 123          :
          :  # shells                           73          :
          :  # electrons                       126          :
          :  max. iterations                   250          :
          :  Hamiltonian                  GFN2-xTB          :
          :  restarted?                      false          :
          :  GBSA solvation                  false          :
          :  PC potential                    false          :
          :  electronic temp.          300.0000000     K    :
          :  accuracy                    1.0000000          :
          :  -> integral cutoff          0.2500000E+02      :
          :  -> integral neglect         0.1000000E-07      :
          :  -> SCF convergence          0.1000000E-05 Eh   :
          :  -> wf. convergence          0.1000000E-03 e    :
          :  Broyden damping             0.4000000          :
          :  net charge                          0          :
          :  unpaired electrons                  0          :
          ...................................................

 iter      E             dE          RMSdq      gap      omega  full diag
   1    -70.0035208 -0.700035E+02  0.338E+00    2.44       0.0  T
   2    -70.0821891 -0.786683E-01  0.207E+00    2.35       1.0  T
   3    -70.0697439  0.124452E-01  0.112E+00    2.72       1.0  T
   4    -70.0951017 -0.253578E-01  0.393E-01    2.29       1.0  T
   5    -70.1000333 -0.493158E-02  0.117E-01    2.37       1.0  T
   6    -70.1004943 -0.461020E-03  0.546E-02    2.36       1.0  T
   7    -70.1005508 -0.564882E-04  0.264E-02    2.37       1.0  T
   8    -70.1005590 -0.823893E-05  0.117E-02    2.37       1.2  T
   9    -70.1005614 -0.236336E-05  0.671E-03    2.37       2.1  T
  10    -70.1005618 -0.426840E-06  0.484E-03    2.37       3.0  T
  11    -70.1005622 -0.351185E-06  0.279E-03    2.37       5.1  T
  12    -70.1005623 -0.140175E-06  0.151E-03    2.37       9.4  T
  13    -70.1005624 -0.421906E-07  0.744E-04    2.37      19.2  T
  14    -70.1005624 -0.105871E-07  0.391E-04    2.37      36.5  T

   *** convergence criteria satisfied after 14 iterations ***

         #    Occupation            Energy/Eh            Energy/eV
      -------------------------------------------------------------
         1        2.0000           -1.0496149             -28.5615
       ...           ...                  ...                  ...
        57        2.0000           -0.4115050             -11.1976
        58        2.0000           -0.4106693             -11.1749
        59        2.0000           -0.4086936             -11.1211
        60        2.0000           -0.3920731             -10.6689
        61        2.0000           -0.3703746             -10.0784
        62        2.0000           -0.3691328             -10.0446
        63        2.0000           -0.3596083              -9.7854 (HOMO)
        64                         -0.2726030              -7.4179 (LUMO)
        65                         -0.2337556              -6.3608
        66                         -0.2014462              -5.4816
        67                         -0.1572092              -4.2779
        68                         -0.1291049              -3.5131
       ...                                ...                  ...
       123                          0.6645545              18.0834
      -------------------------------------------------------------
                  HL-Gap            0.0870053 Eh            2.3675 eV
             Fermi-level           -0.3161057 Eh           -8.6017 eV

 SCC (total)                   0 d,  0 h,  0 min,  0.075 sec
 SCC setup                      ...        0 min,  0.000 sec (  0.587%)
 Dispersion                     ...        0 min,  0.001 sec (  1.000%)
 classical contributions        ...        0 min,  0.000 sec (  0.258%)
 integral evaluation            ...        0 min,  0.009 sec ( 11.495%)
 iterations                     ...        0 min,  0.037 sec ( 49.218%)
 molecular gradient             ...        0 min,  0.028 sec ( 37.143%)
 printout                       ...        0 min,  0.000 sec (  0.290%)

         :::::::::::::::::::::::::::::::::::::::::::::::::::::
         ::                     SUMMARY                     ::
         :::::::::::::::::::::::::::::::::::::::::::::::::::::
         :: total energy             -69.197026810494 Eh    ::
         :: gradient norm              0.090528660122 Eh/a0 ::
         :: HOMO-LUMO gap              2.367534693116 eV    ::
         ::.................................................::
         :: SCC energy               -70.100402992839 Eh    ::
         :: -> isotropic ES            0.054280397785 Eh    ::
         :: -> anisotropic ES          0.010140280108 Eh    ::
         :: -> anisotropic XC          0.039596492152 Eh    ::
         :: -> dispersion             -0.048426695668 Eh    ::
         :: repulsion energy           0.903376182346 Eh    ::
         :: add. restraining           0.000000000000 Eh    ::
         :: total charge               0.000000000000 e     ::
         :::::::::::::::::::::::::::::::::::::::::::::::::::::

      ----------------------------------------------------------- 
     |                   =====================                   |
     |                        A N C O P T                        |
     |                   =====================                   |
     |               Approximate Normal Coordinate               |
     |                Rational Function Optimizer                |
      ----------------------------------------------------------- 
      ----------------------------------------------------------- 
     |                   =====================                   |
     |                        A N C O P T                        |
     |                   =====================                   |
     |               Approximate Normal Coordinate               |
     |                Rational Function Optimizer                |
      ----------------------------------------------------------- 

          ...................................................
          :                      SETUP                      :
          :.................................................:
          :   optimization level            normal          :
          :   max. optcycles                   200          :
          :   ANC micro-cycles                  20          :
          :   degrees of freedom               141          :
          :.................................................:
          :   RF solver                   davidson          :
          :   write xtbopt.log                true          :
          :   linear?                        false          :
          :   energy convergence         0.5000000E-05 Eh   :
          :   grad. convergence          0.1000000E-02 Eh/α :
          :   maxmium RF displ.          1.0000000          :
          :   Hlow (freq-cutoff)         0.1000000E-01      :
          :   Hmax (freq-cutoff)         5.0000000          :
          :   S6 in model hess.         20.0000000          :
          ...................................................

generating ANC from exact Hessian ...
Using Lindh-Hessian (1995)
 Shifting diagonal of input Hessian by    9.8540389715853615E-003
 Lowest  eigenvalues of input Hessian
    0.000000    0.000000    0.000000    0.000000    0.000000    0.000000
    0.010000    0.010064    0.010110    0.010796    0.010942    0.011490
    0.011793    0.012294    0.013083    0.013878    0.014576    0.014958
 Highest eigenvalues
    1.820679    1.827280    1.880753    1.979665    2.083748    2.160104


........................................................................
.............................. CYCLE    1 ..............................
........................................................................

 iter      E             dE          RMSdq      gap      omega  full diag
   1    -70.1005624 -0.701006E+02  0.262E-04    2.37       0.0  T
   2    -70.1005624 -0.553868E-09  0.214E-04    2.37      66.6  T
   3    -70.1005624 -0.248860E-09  0.181E-04    2.37      79.1  T
     SCC iter.                  ...        0 min,  0.008 sec
     gradient                   ...        0 min,  0.028 sec
 * total energy  :   -69.1970268 Eh     change       -0.2457071E-08 Eh
   gradient norm :     0.0905290 Eh/α   predicted     0.0000000E+00 (-100.00%)
   displ. norm   :     0.2684316 α      lambda       -0.1060528E-01
   maximum displ.:     0.0941268 α      in ANC's #47, #42, #27, ...

........................................................................
.............................. CYCLE    2 ..............................
........................................................................

 iter      E             dE          RMSdq      gap      omega  full diag
   1    -70.1310342 -0.701310E+02  0.153E-01    2.48       0.0  T
   2    -70.1311553 -0.121105E-03  0.966E-02    2.48       1.0  T
   3    -70.1311510  0.424137E-05  0.535E-02    2.50       1.0  T
   4    -70.1311970 -0.459822E-04  0.133E-02    2.49       1.1  T
   5    -70.1312048 -0.780033E-05  0.429E-03    2.49       3.3  T
   6    -70.1312053 -0.528131E-06  0.181E-03    2.49       7.9  T
   7    -70.1312054 -0.253713E-07  0.613E-04    2.49      23.3  T
   8    -70.1312054 -0.551597E-08  0.335E-04    2.49      42.6  T
     SCC iter.                  ...        0 min,  0.020 sec
     gradient                   ...        0 min,  0.028 sec
 * total energy  :   -69.2043940 Eh     change       -0.7367212E-02 Eh
   gradient norm :     0.0391960 Eh/α   predicted    -0.5686993E-02 ( -22.81%)
   displ. norm   :     0.2445465 α      lambda       -0.3643415E-02
   maximum displ.:     0.0835276 α      in ANC's #17, #27, #16, ...

........................................................................
.............................. CYCLE    3 ..............................
........................................................................

 iter      E             dE          RMSdq      gap      omega  full diag
   1    -70.1494231 -0.701494E+02  0.113E-01    2.59       0.0  T
   2    -70.1495486 -0.125520E-03  0.706E-02    2.56       1.0  T
   3    -70.1495900 -0.413438E-04  0.411E-02    2.58       1.0  T
   4    -70.1496035 -0.134931E-04  0.120E-02    2.57       1.2  T
   5    -70.1496092 -0.572596E-05  0.392E-03    2.58       3.6  T
   6    -70.1496096 -0.423472E-06  0.165E-03    2.58       8.7  T
   7    -70.1496096 -0.214067E-07  0.501E-04    2.58      28.5  T
   8    -70.1496096 -0.473307E-08  0.228E-04    2.58      62.5  T
     SCC iter.                  ...        0 min,  0.020 sec
     gradient                   ...        0 min,  0.028 sec
 * total energy  :   -69.2065759 Eh     change       -0.2181834E-02 Eh
   gradient norm :     0.0141511 Eh/α   predicted    -0.1931503E-02 ( -11.47%)
   displ. norm   :     0.1689302 α      lambda       -0.8031860E-03
   maximum displ.:     0.0559335 α      in ANC's #17, #5, #27, ...

........................................................................
.............................. CYCLE    4 ..............................
........................................................................

 iter      E             dE          RMSdq      gap      omega  full diag
   1    -70.1517094 -0.701517E+02  0.582E-02    2.61       0.0  T
   2    -70.1517456 -0.362643E-04  0.355E-02    2.58       1.0  T
   3    -70.1517582 -0.125734E-04  0.209E-02    2.60       1.0  T
   4    -70.1517633 -0.510072E-05  0.650E-03    2.59       2.2  T
   5    -70.1517648 -0.148515E-05  0.219E-03    2.59       6.5  T
   6    -70.1517649 -0.893041E-07  0.110E-03    2.59      13.0  T
   7    -70.1517649 -0.123112E-07  0.336E-04    2.59      42.5  T
   8    -70.1517649 -0.148957E-08  0.214E-04    2.59      66.6  T
     SCC iter.                  ...        0 min,  0.021 sec
     gradient                   ...        0 min,  0.028 sec
 * total energy  :   -69.2071941 Eh     change       -0.6182907E-03 Eh
   gradient norm :     0.0150730 Eh/α   predicted    -0.4130593E-03 ( -33.19%)
   displ. norm   :     0.2569722 α      lambda       -0.9281186E-03
   maximum displ.:     0.1146043 α      in ANC's #5, #22, #17, ...

........................................................................
.............................. CYCLE    5 ..............................
........................................................................

 iter      E             dE          RMSdq      gap      omega  full diag
   1    -70.1515648 -0.701516E+02  0.832E-02    2.62       0.0  T
   2    -70.1516275 -0.626586E-04  0.500E-02    2.58       1.0  T
   3    -70.1516436 -0.160939E-04  0.303E-02    2.61       1.0  T
   4    -70.1516577 -0.140910E-04  0.893E-03    2.60       1.6  T
   5    -70.1516606 -0.290223E-05  0.314E-03    2.60       4.5  T
   6    -70.1516607 -0.135181E-06  0.162E-03    2.60       8.8  T
   7    -70.1516607 -0.330297E-07  0.419E-04    2.60      34.1  T
   8    -70.1516607 -0.230251E-08  0.261E-04    2.60      54.7  T
     SCC iter.                  ...        0 min,  0.021 sec
     gradient                   ...        0 min,  0.028 sec
 * total energy  :   -69.2078272 Eh     change       -0.6330798E-03 Eh
   gradient norm :     0.0149948 Eh/α   predicted    -0.4947164E-03 ( -21.86%)
   displ. norm   :     0.2148056 α      lambda       -0.5267857E-03
   maximum displ.:     0.1326038 α      in ANC's #5, #3, #6, ...

........................................................................
.............................. CYCLE    6 ..............................
........................................................................

 iter      E             dE          RMSdq      gap      omega  full diag
   1    -70.1517259 -0.701517E+02  0.612E-02    2.61       0.0  T
   2    -70.1517450 -0.191061E-04  0.360E-02    2.59       1.0  T
   3    -70.1517417  0.331877E-05  0.219E-02    2.60       1.0  T
   4    -70.1517541 -0.123957E-04  0.539E-03    2.59       2.6  T
   5    -70.1517551 -0.101966E-05  0.221E-03    2.60       6.5  T
   6    -70.1517551 -0.402117E-07  0.109E-03    2.60      13.2  T
   7    -70.1517552 -0.217032E-07  0.217E-04    2.60      65.7  T
   8    -70.1517552 -0.641975E-09  0.120E-04    2.60     119.2  T
     SCC iter.                  ...        0 min,  0.021 sec
     gradient                   ...        0 min,  0.028 sec
 * total energy  :   -69.2082354 Eh     change       -0.4081535E-03 Eh
   gradient norm :     0.0114540 Eh/α   predicted    -0.2755483E-03 ( -32.49%)
   displ. norm   :     0.3405999 α      lambda       -0.6468409E-03
   maximum displ.:     0.2216175 α      in ANC's #5, #3, #2, ...

........................................................................
.............................. CYCLE    7 ..............................
........................................................................

 iter      E             dE          RMSdq      gap      omega  full diag
   1    -70.1515973 -0.701516E+02  0.926E-02    2.61       0.0  T
   2    -70.1516172 -0.198974E-04  0.528E-02    2.59       1.0  T
   3    -70.1515965  0.207283E-04  0.280E-02    2.61       1.0  T
   4    -70.1516266 -0.301629E-04  0.615E-03    2.59       2.3  T
   5    -70.1516275 -0.909828E-06  0.309E-03    2.59       4.6  T
   6    -70.1516276 -0.664139E-07  0.121E-03    2.59      11.8  T
   7    -70.1516277 -0.386408E-07  0.289E-04    2.59      49.4  T
   8    -70.1516277 -0.860695E-09  0.198E-04    2.59      72.2  T
     SCC iter.                  ...        0 min,  0.021 sec
     gradient                   ...        0 min,  0.028 sec
 * total energy  :   -69.2087340 Eh     change       -0.4986428E-03 Eh
   gradient norm :     0.0124335 Eh/α   predicted    -0.3610586E-03 ( -27.59%)
   displ. norm   :     0.4240820 α      lambda       -0.7776628E-03
   maximum displ.:     0.3003183 α      in ANC's #5, #3, #14, ...

........................................................................
.............................. CYCLE    8 ..............................
........................................................................

 iter      E             dE          RMSdq      gap      omega  full diag
   1    -70.1526668 -0.701527E+02  0.106E-01    2.59       0.0  T
   2    -70.1526753 -0.851029E-05  0.613E-02    2.59       1.0  T
   3    -70.1526745  0.782893E-06  0.112E-02    2.59       1.3  T
   4    -70.1526782 -0.368085E-05  0.494E-03    2.59       2.9  T
   5    -70.1526783 -0.146942E-06  0.246E-03    2.59       5.8  T
   6    -70.1526785 -0.180753E-06  0.606E-04    2.59      23.6  T
   7    -70.1526785 -0.870888E-08  0.318E-04    2.59      44.9  T
     SCC iter.                  ...        0 min,  0.018 sec
     gradient                   ...        0 min,  0.028 sec
 * total energy  :   -69.2092566 Eh     change       -0.5225606E-03 Eh
   gradient norm :     0.0084787 Eh/α   predicted    -0.4587677E-03 ( -12.21%)
   displ. norm   :     0.5431078 α      lambda       -0.6497710E-03
   maximum displ.:     0.3585058 α      in ANC's #5, #3, #14, ...

........................................................................
.............................. CYCLE    9 ..............................
........................................................................

 iter      E             dE          RMSdq      gap      omega  full diag
   1    -70.1472821 -0.701473E+02  0.142E-01    2.58       0.0  T
   2    -70.1472992 -0.171071E-04  0.827E-02    2.59       1.0  T
   3    -70.1473009 -0.169123E-05  0.129E-02    2.58       1.1  T
   4    -70.1473048 -0.393889E-05  0.666E-03    2.59       2.1  T
   5    -70.1473052 -0.428715E-06  0.235E-03    2.59       6.1  T
   6    -70.1473053 -0.104840E-06  0.836E-04    2.59      17.1  T
   7    -70.1473054 -0.236272E-07  0.382E-04    2.59      37.4  T
     SCC iter.                  ...        0 min,  0.018 sec
     gradient                   ...        0 min,  0.028 sec
 * total energy  :   -69.2091063 Eh     change        0.1503117E-03 Eh
   gradient norm :     0.0308645 Eh/α   predicted    -0.4207295E-03 (-379.90%)
   displ. norm   :     0.1487756 α      lambda       -0.1200199E-02
   maximum displ.:     0.0617992 α      in ANC's #5, #6, #22, ...

........................................................................
.............................. CYCLE   10 ..............................
........................................................................

 iter      E             dE          RMSdq      gap      omega  full diag
   1    -70.1549594 -0.701550E+02  0.532E-02    2.59       0.0  T
   2    -70.1549638 -0.441005E-05  0.302E-02    2.59       1.0  T
   3    -70.1549609  0.291564E-05  0.102E-02    2.58       1.4  T
   4    -70.1549652 -0.427677E-05  0.309E-03    2.59       4.6  T
   5    -70.1549654 -0.196662E-06  0.164E-03    2.59       8.7  T
   6    -70.1549654 -0.352135E-07  0.578E-04    2.59      24.7  T
   7    -70.1549655 -0.893920E-08  0.172E-04    2.59      83.3  T
     SCC iter.                  ...        0 min,  0.018 sec
     gradient                   ...        0 min,  0.051 sec
 * total energy  :   -69.2096736 Eh     change       -0.5673119E-03 Eh
   gradient norm :     0.0051886 Eh/α   predicted    -0.6133849E-03 (   8.12%)
   displ. norm   :     0.1803557 α      lambda       -0.1488913E-03
   maximum displ.:     0.1293507 α      in ANC's #5, #3, #7, ...

........................................................................
.............................. CYCLE   11 ..............................
........................................................................

 iter      E             dE          RMSdq      gap      omega  full diag
   1    -70.1551960 -0.701552E+02  0.430E-02    2.58       0.0  T
   2    -70.1551979 -0.191192E-05  0.250E-02    2.59       1.0  T
   3    -70.1551952  0.275855E-05  0.856E-03    2.58       1.7  T
   4    -70.1551987 -0.351906E-05  0.205E-03    2.59       7.0  T
   5    -70.1551988 -0.931972E-07  0.103E-03    2.59      13.8  T
   6    -70.1551988 -0.110313E-07  0.369E-04    2.59      38.7  T
   7    -70.1551988 -0.394894E-08  0.832E-05    2.59     171.6  T
     SCC iter.                  ...        0 min,  0.018 sec
     gradient                   ...        0 min,  0.028 sec
 * total energy  :   -69.2098052 Eh     change       -0.1316032E-03 Eh
   gradient norm :     0.0044162 Eh/α   predicted    -0.7687069E-04 ( -41.59%)
   displ. norm   :     0.4644313 α      lambda       -0.3467331E-03
   maximum displ.:     0.3242213 α      in ANC's #5, #7, #3, ...

........................................................................
.............................. CYCLE   12 ..............................
........................................................................

 iter      E             dE          RMSdq      gap      omega  full diag
   1    -70.1536623 -0.701537E+02  0.110E-01    2.57       0.0  T
   2    -70.1536753 -0.130019E-04  0.639E-02    2.59       1.0  T
   3    -70.1536549  0.203903E-04  0.236E-02    2.57       1.0  T
   4    -70.1536807 -0.257702E-04  0.518E-03    2.58       2.8  T
   5    -70.1536813 -0.631823E-06  0.258E-03    2.58       5.5  T
   6    -70.1536814 -0.691168E-07  0.947E-04    2.58      15.1  T
   7    -70.1536814 -0.236975E-07  0.228E-04    2.58      62.6  T
     SCC iter.                  ...        0 min,  0.018 sec
     gradient                   ...        0 min,  0.039 sec
 * total energy  :   -69.2100154 Eh     change       -0.2101918E-03 Eh
   gradient norm :     0.0071790 Eh/α   predicted    -0.2107708E-03 (   0.28%)
   displ. norm   :     0.1663978 α      lambda       -0.1239871E-03
   maximum displ.:     0.1086283 α      in ANC's #5, #7, #9, ...

........................................................................
.............................. CYCLE   13 ..............................
........................................................................

 iter      E             dE          RMSdq      gap      omega  full diag
   1    -70.1547541 -0.701548E+02  0.378E-02    2.58       0.0  T
   2    -70.1547551 -0.104310E-05  0.218E-02    2.58       1.0  T
   3    -70.1547532  0.192287E-05  0.703E-03    2.58       2.0  T
   4    -70.1547555 -0.231031E-05  0.138E-03    2.58      10.4  T
   5    -70.1547556 -0.619693E-07  0.625E-04    2.58      22.9  T
   6    -70.1547556 -0.292742E-08  0.280E-04    2.58      51.0  T
     SCC iter.                  ...        0 min,  0.016 sec
     gradient                   ...        0 min,  0.028 sec
 * total energy  :   -69.2101046 Eh     change       -0.8925781E-04 Eh
   gradient norm :     0.0031018 Eh/α   predicted    -0.6371199E-04 ( -28.62%)
   displ. norm   :     0.1879640 α      lambda       -0.8158373E-04
   maximum displ.:     0.1164003 α      in ANC's #5, #7, #9, ...

........................................................................
.............................. CYCLE   14 ..............................
........................................................................

 iter      E             dE          RMSdq      gap      omega  full diag
   1    -70.1556928 -0.701557E+02  0.427E-02    2.58       0.0  T
   2    -70.1556937 -0.966093E-06  0.248E-02    2.58       1.0  T
   3    -70.1556920  0.170328E-05  0.662E-03    2.58       2.2  T
   4    -70.1556941 -0.204671E-05  0.140E-03    2.58      10.2  T
   5    -70.1556941 -0.551424E-07  0.673E-04    2.58      21.2  T
   6    -70.1556941 -0.389583E-08  0.289E-04    2.58      49.4  T
     SCC iter.                  ...        0 min,  0.019 sec
     gradient                   ...        0 min,  0.028 sec
 * total energy  :   -69.2101617 Eh     change       -0.5705230E-04 Eh
   gradient norm :     0.0026419 Eh/α   predicted    -0.4223306E-04 ( -25.97%)
   displ. norm   :     0.1472967 α      lambda       -0.4772457E-04
   maximum displ.:     0.0824778 α      in ANC's #5, #9, #11, ...

........................................................................
.............................. CYCLE   15 ..............................
........................................................................

 iter      E             dE          RMSdq      gap      omega  full diag
   1    -70.1558033 -0.701558E+02  0.331E-02    2.58       0.0  T
   2    -70.1558036 -0.343690E-06  0.194E-02    2.58       1.0  T
   3    -70.1558034  0.227889E-06  0.288E-03    2.58       5.0  T
   4    -70.1558037 -0.326661E-06  0.918E-04    2.58      15.6  T
   5    -70.1558037 -0.161247E-07  0.481E-04    2.58      29.7  T
     SCC iter.                  ...        0 min,  0.013 sec
     gradient                   ...        0 min,  0.028 sec
 * total energy  :   -69.2101952 Eh     change       -0.3354902E-04 Eh
   gradient norm :     0.0027491 Eh/α   predicted    -0.2438684E-04 ( -27.31%)
   displ. norm   :     0.1127529 α      lambda       -0.3571383E-04
   maximum displ.:     0.0490332 α      in ANC's #9, #11, #5, ...

........................................................................
.............................. CYCLE   16 ..............................
........................................................................

 iter      E             dE          RMSdq      gap      omega  full diag
   1    -70.1562598 -0.701563E+02  0.244E-02    2.58       0.0  T
   2    -70.1562600 -0.186347E-06  0.145E-02    2.58       1.0  T
   3    -70.1562598  0.204981E-06  0.213E-03    2.58       6.7  T
   4    -70.1562601 -0.255317E-06  0.698E-04    2.58      20.5  T
   5    -70.1562601 -0.132053E-07  0.366E-04    2.58      39.1  T
     SCC iter.                  ...        0 min,  0.016 sec
     gradient                   ...        0 min,  0.028 sec
 * total energy  :   -69.2102201 Eh     change       -0.2488937E-04 Eh
   gradient norm :     0.0026695 Eh/α   predicted    -0.1808517E-04 ( -27.34%)
   displ. norm   :     0.1037479 α      lambda       -0.2869433E-04
   maximum displ.:     0.0436971 α      in ANC's #11, #9, #17, ...

........................................................................
.............................. CYCLE   17 ..............................
........................................................................

 iter      E             dE          RMSdq      gap      omega  full diag
   1    -70.1556438 -0.701556E+02  0.208E-02    2.58       0.0  T
   2    -70.1556440 -0.233518E-06  0.124E-02    2.58       1.2  T
   3    -70.1556437  0.356308E-06  0.275E-03    2.58       5.2  T
   4    -70.1556441 -0.414390E-06  0.665E-04    2.58      21.5  T
   5    -70.1556441 -0.174728E-07  0.294E-04    2.58      48.6  T
     SCC iter.                  ...        0 min,  0.015 sec
     gradient                   ...        0 min,  0.049 sec
 * total energy  :   -69.2102398 Eh     change       -0.1971065E-04 Eh
   gradient norm :     0.0019283 Eh/α   predicted    -0.1450302E-04 ( -26.42%)
   displ. norm   :     0.1513396 α      lambda       -0.2475604E-04
   maximum displ.:     0.0611344 α      in ANC's #17, #5, #3, ...

........................................................................
.............................. CYCLE   18 ..............................
........................................................................

 iter      E             dE          RMSdq      gap      omega  full diag
   1    -70.1560476 -0.701560E+02  0.305E-02    2.58       0.0  T
   2    -70.1560490 -0.134821E-05  0.180E-02    2.58       1.0  T
   3    -70.1560470  0.196244E-05  0.778E-03    2.59       1.8  T
   4    -70.1560495 -0.249087E-05  0.163E-03    2.58       8.8  T
   5    -70.1560496 -0.830916E-07  0.725E-04    2.58      19.7  T
   6    -70.1560496 -0.452368E-08  0.310E-04    2.58      46.2  T
     SCC iter.                  ...        0 min,  0.016 sec
     gradient                   ...        0 min,  0.028 sec
 * total energy  :   -69.2102554 Eh     change       -0.1560087E-04 Eh
   gradient norm :     0.0017397 Eh/α   predicted    -0.1250428E-04 ( -19.85%)
   displ. norm   :     0.0527741 α      lambda       -0.1450698E-04
   maximum displ.:     0.0244883 α      in ANC's #10, #5, #6, ...

........................................................................
.............................. CYCLE   19 ..............................
........................................................................

 iter      E             dE          RMSdq      gap      omega  full diag
   1    -70.1549521 -0.701550E+02  0.110E-02    2.58       0.0  T
   2    -70.1549523 -0.173321E-06  0.655E-03    2.58       2.2  T
   3    -70.1549521  0.168916E-06  0.223E-03    2.58       6.4  T
   4    -70.1549523 -0.213473E-06  0.642E-04    2.58      22.3  T
   5    -70.1549523 -0.120833E-07  0.309E-04    2.58      46.2  T
     SCC iter.                  ...        0 min,  0.013 sec
     gradient                   ...        0 min,  0.028 sec
 * total energy  :   -69.2102680 Eh     change       -0.1257012E-04 Eh
   gradient norm :     0.0019809 Eh/α   predicted    -0.7268075E-05 ( -42.18%)
   displ. norm   :     0.0559810 α      lambda       -0.1205926E-04
   maximum displ.:     0.0264013 α      in ANC's #10, #12, #4, ...

........................................................................
.............................. CYCLE   20 ..............................
........................................................................

 iter      E             dE          RMSdq      gap      omega  full diag
   1    -70.1551943 -0.701552E+02  0.104E-02    2.58       0.0  T
   2    -70.1551944 -0.970628E-07  0.611E-03    2.58       2.3  T
   3    -70.1551944  0.666372E-07  0.139E-03    2.58      10.3  T
   4    -70.1551945 -0.880956E-07  0.385E-04    2.58      37.1  T
   5    -70.1551945 -0.368843E-08  0.220E-04    2.58      64.9  T
     SCC iter.                  ...        0 min,  0.013 sec
     gradient                   ...        0 min,  0.042 sec
 * total energy  :   -69.2102807 Eh     change       -0.1273236E-04 Eh
   gradient norm :     0.0014196 Eh/α   predicted    -0.6039020E-05 ( -52.57%)
   displ. norm   :     0.1355026 α      lambda       -0.1374286E-04
   maximum displ.:     0.0602766 α      in ANC's #10, #6, #4, ...
 * RMSD in coord.:     0.4279837 α      energy gain  -0.1325393E-01 Eh

generating ANC from exact Hessian ...
Using Lindh-Hessian (1995)
 Shifting diagonal of input Hessian by    9.8450180852981423E-003
 Lowest  eigenvalues of input Hessian
    0.000000    0.000000    0.000000    0.000000    0.000000    0.000000
    0.010000    0.010059    0.010125    0.010898    0.011038    0.011560
    0.011985    0.012572    0.013110    0.014149    0.014574    0.015257
 Highest eigenvalues
    1.849272    1.912811    1.957903    2.029243    2.151705    2.197008


........................................................................
.............................. CYCLE   21 ..............................
........................................................................

 iter      E             dE          RMSdq      gap      omega  full diag
   1    -70.1550202 -0.701550E+02  0.193E-02    2.58       0.0  T
   2    -70.1550204 -0.118804E-06  0.115E-02    2.58       1.2  T
   3    -70.1550203  0.334330E-07  0.129E-03    2.58      11.1  T
   4    -70.1550204 -0.646629E-07  0.489E-04    2.58      29.2  T
   5    -70.1550204 -0.310187E-08  0.269E-04    2.58      53.1  T
     SCC iter.                  ...        0 min,  0.013 sec
     gradient                   ...        0 min,  0.028 sec
 * total energy  :   -69.2102949 Eh     change       -0.1412851E-04 Eh
   gradient norm :     0.0014239 Eh/α   predicted     0.0000000E+00 (-100.00%)
   displ. norm   :     0.0207280 α      lambda       -0.5881209E-05
   maximum displ.:     0.0084557 α      in ANC's #4, #6, #11, ...

........................................................................
.............................. CYCLE   22 ..............................
........................................................................

 iter      E             dE          RMSdq      gap      omega  full diag
   1    -70.1558478 -0.701558E+02  0.684E-03    2.58       0.0  T
   2    -70.1558479 -0.523647E-07  0.400E-03    2.58       3.6  T
   3    -70.1558478  0.332051E-07  0.984E-04    2.58      14.5  T
   4    -70.1558479 -0.418498E-07  0.287E-04    2.58      49.9  T
     SCC iter.                  ...        0 min,  0.011 sec
     gradient                   ...        0 min,  0.028 sec
 * total energy  :   -69.2103009 Eh     change       -0.6020311E-05 Eh
   gradient norm :     0.0004765 Eh/α   predicted    -0.2995253E-05 ( -50.25%)
   displ. norm   :     0.0356847 α      lambda       -0.4007730E-05
   maximum displ.:     0.0164443 α      in ANC's #4, #6, #7, ...

........................................................................
.............................. CYCLE   23 ..............................
........................................................................

 iter      E             dE          RMSdq      gap      omega  full diag
   1    -70.1560042 -0.701560E+02  0.911E-03    2.58       0.0  T
   2    -70.1560043 -0.459117E-07  0.537E-03    2.58       2.7  T
   3    -70.1560042  0.390346E-07  0.974E-04    2.58      14.7  T
   4    -70.1560043 -0.487268E-07  0.274E-04    2.58      52.1  T
     SCC iter.                  ...        0 min,  0.011 sec
     gradient                   ...        0 min,  0.037 sec
 * total energy  :   -69.2103053 Eh     change       -0.4395910E-05 Eh
   gradient norm :     0.0005602 Eh/α   predicted    -0.2005889E-05 ( -54.37%)
   displ. norm   :     0.0596803 α      lambda       -0.4344692E-05
   maximum displ.:     0.0286788 α      in ANC's #6, #4, #7, ...

   *** GEOMETRY OPTIMIZATION CONVERGED AFTER 23 ITERATIONS ***

------------------------------------------------------------------------
 total energy gain   :        -0.0132785 Eh       -8.3324 kcal/mol
 total RMSD          :         0.4304596 a0        0.2278 Å
 total power (kW/mol):        -1.5157669 (step)  -24.6972 (real)
------------------------------------------------------------------------

 ANCopt (total)                0 d,  0 h,  0 min,  1.412 sec
 optimizer setup                ...        0 min,  0.000 sec (  0.005%)
 model hessian                  ...        0 min,  0.051 sec (  3.587%)
 ANC generation                 ...        0 min,  0.004 sec (  0.295%)
 coordinate transformation      ...        0 min,  0.000 sec (  0.018%)
 single point calculation       ...        0 min,  1.349 sec ( 95.583%)
 optimization log               ...        0 min,  0.004 sec (  0.289%)
 hessian update                 ...        0 min,  0.000 sec (  0.026%)
 rational function              ...        0 min,  0.002 sec (  0.138%)

================
 final structure:
================
49
 xtb: 6.7.1 (edcfbbe)
C            1.21982828250921       -2.76360175279076       -0.29463124081496
C            0.79348519642483       -1.30901773514888       -0.51721211933104
N            1.72175257076629       -0.40019568760272        0.12130509668067
C            2.96192716369364       -0.08539483167206       -0.33228675574033
C            3.41859057238138       -0.44996231750673       -1.59240746225251
C            4.69813949596544       -0.07847777996272       -1.99786764402883
N            5.54501396774041        0.59989410966904       -1.26848416152745
C            5.14094584522512        0.98622567267470       -0.04365685816540
C            3.85373311957277        0.68571300684125        0.48487197409489
C            3.53622983132031        1.16239017121054        1.77071306862987
C            4.43476078376151        1.88291556842208        2.50987060260127
C            5.70317114795878        2.15671099515267        1.98134629744123
Cl           6.82278271681414        3.06200086893756        2.93973897008512
C            6.05655628552943        1.72567100203896        0.73447302889333
C           -0.60464567467064       -1.02099818388542        0.03935545891717
C           -1.71853120004254       -1.67211020537504       -0.77538988235968
C           -3.10262573991398       -1.41075489602861       -0.17236059062356
N           -3.38695801480073        0.00434955638233        0.01155142358680
C           -4.32790568060749        0.25928661371522        1.09233993445357
C           -5.73377460258040       -0.32693498008733        0.92485689892166
C           -3.69975387967614        0.69157339830586       -1.23337712346229
C           -3.42387075540243        2.19429330752357       -1.09817253814838
O           -2.16327360716649        2.42817842492883       -0.52700297176693
H            2.24543233631997       -2.90671228735195       -0.62657890030469
H            1.16313243192249       -3.01538245309744        0.76226805489274
H            0.58168219727910       -3.44348663169035       -0.85084973524845
H            0.79129134433422       -1.08985506294218       -1.59028355437944
H            1.54645127803897       -0.24232011135067        1.10014505615514
H            2.80331194036434       -1.02286705913504       -2.26604477361348
H            5.05378669403556       -0.36728495736762       -2.97938090178851
H            2.56139173519552        0.97741558147954        2.19892754239414
H            4.17815942703955        2.24442295281440        3.49319759895749
H            7.02509461403955        1.93484752442534        0.31097295797435
H           -0.75887268452200        0.05876295358716        0.03066290463487
H           -0.66210927135630       -1.36660054657198        1.07454265253166
H           -1.57890540761776       -2.75364498827024       -0.81017197724821
H           -1.67345285861101       -1.30216772980908       -1.80071910153382
H           -3.13618391525339       -1.87961524994477        0.81439557609922
H           -3.85924815090973       -1.90243077697605       -0.80532349347525
H           -4.40986847782062        1.34078208126161        1.21955755956175
H           -3.88068295907242       -0.14504627113860        2.00624028411029
H           -6.33464301609499       -0.07645557177448        1.79503562173631
H           -6.22490294662221        0.08064312566940        0.04476829398721
H           -5.69611055439988       -1.40955985011686        0.83268759130752
H           -3.03548460224685        0.29494108491132       -2.00170454480682
H           -4.73650907744214        0.53560364941076       -1.56692770420296
H           -4.20936620928699        2.67693698914946       -0.49741748568639
H           -3.41954559062329        2.66282585975549       -2.08489395246676
H           -2.07942610149420        1.79419341933346        0.19912102433099

 Bond Distances (Angstroems)
 ---------------------------
C1-C2=1.5320         C1-H24=1.0874        C1-H25=1.0880        C1-H26=1.0858        C2-C1=1.5320         C2-N3=1.4475         
C2-C15=1.5322        C2-H27=1.0952        N3-C2=1.4475         N3-C4=1.3575         N3-H28=1.0069        C4-N3=1.3575         
C4-C5=1.3890         C4-C9=1.4345         C5-C4=1.3890         C5-C6=1.3927         C5-H29=1.0773        C6-C5=1.3927         
C6-N7=1.3074         C6-H30=1.0832        N7-C6=1.3074         N7-C8=1.3464         C8-N7=1.3464         C8-C9=1.4236         
C8-C14=1.4109        C9-C4=1.4345         C9-C8=1.4236         C9-C10=1.4076        C10-C9=1.4076        C10-C11=1.3685       
C10-H31=1.0807       C11-C10=1.3685       C11-C12=1.4011       C11-H32=1.0786       C12-C11=1.4011       C12-Cl13=1.7296      
C12-C14=1.3658       Cl13-C12=1.7296      C14-C8=1.4109        C14-C12=1.3658       C14-H33=1.0776       C15-C2=1.5322        
C15-C16=1.5259       C15-H34=1.0908       C15-H35=1.0929       C16-C15=1.5259       C16-C17=1.5322       C16-H36=1.0911       
C16-H37=1.0910       C17-C16=1.5322       C17-N18=1.4551       C17-H38=1.0930       C17-H39=1.1022       N18-C17=1.4551       
N18-C19=1.4555       N18-C21=1.4560       C19-N18=1.4555       C19-C20=1.5324       C19-H40=1.0920       C19-H41=1.0949       
C20-C19=1.5324       C20-H42=1.0867       C20-H43=1.0871       C20-H44=1.0872       C21-N18=1.4560       C21-C22=1.5338       
C21-H45=1.0904       C21-H46=1.1002       C22-C21=1.5338       C22-O23=1.4036       C22-H47=1.1004       C22-H48=1.0923       
O23-C22=1.4036       O23-H49=0.9676       H24-C1=1.0874        H25-C1=1.0880        H26-C1=1.0858        H27-C2=1.0952        
H28-N3=1.0069        H29-C5=1.0773        H30-C6=1.0832        H31-C10=1.0807       H32-C11=1.0786       H33-C14=1.0776       
H34-C15=1.0908       H35-C15=1.0929       H36-C16=1.0911       H37-C16=1.0910       H38-C17=1.0930       H39-C17=1.1022       
H40-C19=1.0920       H41-C19=1.0949       H42-C20=1.0867       H43-C20=1.0871       H44-C20=1.0872       H45-C21=1.0904       
H46-C21=1.1002       H47-C22=1.1004       H48-C22=1.0923       H49-O23=0.9676       
 C  H  Rav=1.0894 sigma=0.0067  Rmin=1.0773  Rmax=1.1022    24
 C  C  Rav=1.4521 sigma=0.0669  Rmin=1.3658  Rmax=1.5338    15
 N  H  Rav=1.0069 sigma=0.0000  Rmin=1.0069  Rmax=1.0069     1
 N  C  Rav=1.4036 sigma=0.0594  Rmin=1.3074  Rmax=1.4560     7
 O  H  Rav=0.9676 sigma=0.0000  Rmin=0.9676  Rmax=0.9676     1
 O  C  Rav=1.4036 sigma=0.0000  Rmin=1.4036  Rmax=1.4036     1
 Cl C  Rav=1.7296 sigma=0.0000  Rmin=1.7296  Rmax=1.7296     1

 selected bond angles (degree)
 --------------------
H24-C1-C2=110.06               H25-C1-C2=110.26               H25-C1-H24=108.37              H26-C1-C2=110.89               
H26-C1-H24=108.39              H26-C1-H25=108.79              N3-C2-C1=110.71                C15-C2-C1=112.31               
C15-C2-N3=107.87               H27-C2-C1=109.44               H27-C2-N3=107.93               H27-C2-C15=108.45              
C4-N3-C2=125.74                H28-N3-C2=114.56               H28-N3-C4=116.58               C5-C4-N3=122.86                
C9-C4-N3=120.15                C9-C4-C5=116.97                C6-C5-C4=119.75                H29-C5-C4=121.27               
H29-C5-C6=118.98               N7-C6-C5=124.83                H30-C6-C5=119.63               H30-C6-N7=115.54               
C8-N7-C6=117.52                C9-C8-N7=123.27                C14-C8-N7=117.22               C14-C8-C9=119.52               
C8-C9-C4=117.65                C10-C9-C4=124.21               C10-C9-C8=118.14               C11-C10-C9=121.57              
H31-C10-C9=120.49              H31-C10-C11=117.93             

 selected dihedral angles (degree)
 ---------------------------------
N3-C2-C1-H24=305.39           N3-C2-C1-H25= 64.90           N3-C2-C1-H26=185.46           C15-C2-C1-H24=184.74          
C15-C2-C1-H25=304.25          C15-C2-C1-H26= 64.81          H27-C2-C1-H24= 64.23          H27-C2-C1-H25=183.74          
H27-C2-C1-H26=304.30          C4-N3-C2-C1= 75.35            C4-N3-C2-C15=198.60           C4-N3-C2-H27=315.59           
H28-N3-C2-C1=276.13           H28-N3-C2-C15= 39.38          H28-N3-C2-H27=156.37          C5-C4-N3-C2= 10.21            
C5-C4-N3-H28=169.06           C9-C4-N3-C2=188.54            C9-C4-N3-H28=347.39           C6-C5-C4-N3=179.22            
C6-C5-C4-C9=  0.84            H29-C5-C4-N3=358.84           H29-C5-C4-C9=180.46           N7-C6-C5-C4=  0.55            
N7-C6-C5-H29=180.92           H30-C6-C5-C4=179.75           H30-C6-C5-H29=  0.12          C8-N7-C6-C5=358.84            
C8-N7-C6-H30=179.62           C9-C8-N7-C6=  0.35            C14-C8-N7-C6=180.42           C8-C9-C4-N3=180.05            
C8-C9-C4-C5=358.48            C10-C9-C4-N3=  0.00           C10-C9-C4-C5=178.43           C4-C9-C8-N7=  0.99            
C4-C9-C8-C14=180.92           C10-C9-C8-N7=181.03           C10-C9-C8-C14=  0.96          C11-C10-C9-C4=179.33          
C11-C10-C9-C8=359.28          H31-C10-C9-C4=358.53          H31-C10-C9-C8=178.48          
           -------------------------------------------------
          |                Final Singlepoint                |
           -------------------------------------------------

          ...................................................
          :                      SETUP                      :
          :.................................................:
          :  # basis functions                 124          :
          :  # atomic orbitals                 123          :
          :  # shells                           73          :
          :  # electrons                       126          :
          :  max. iterations                   250          :
          :  Hamiltonian                  GFN2-xTB          :
          :  restarted?                      false          :
          :  GBSA solvation                  false          :
          :  PC potential                    false          :
          :  electronic temp.          300.0000000     K    :
          :  accuracy                    1.0000000          :
          :  -> integral cutoff          0.2500000E+02      :
          :  -> integral neglect         0.1000000E-07      :
          :  -> SCF convergence          0.1000000E-05 Eh   :
          :  -> wf. convergence          0.1000000E-03 e    :
          :  Broyden damping             0.4000000          :
          :  net charge                          0          :
          :  unpaired electrons                  0          :
          ...................................................

 iter      E             dE          RMSdq      gap      omega  full diag
   1    -70.1560043 -0.701560E+02  0.150E-04    2.58       0.0  T
   2    -70.1560043 -0.150578E-09  0.109E-04    2.58     131.3  T
   3    -70.1560043 -0.211685E-09  0.778E-05    2.58     183.6  T

   *** convergence criteria satisfied after 3 iterations ***

         #    Occupation            Energy/Eh            Energy/eV
      -------------------------------------------------------------
         1        2.0000           -1.0470993             -28.4930
       ...           ...                  ...                  ...
        57        2.0000           -0.4104808             -11.1697
        58        2.0000           -0.4092492             -11.1362
        59        2.0000           -0.4068104             -11.0699
        60        2.0000           -0.3908456             -10.6354
        61        2.0000           -0.3653490              -9.9417
        62        2.0000           -0.3641322              -9.9085
        63        2.0000           -0.3557741              -9.6811 (HOMO)
        64                         -0.2608681              -7.0986 (LUMO)
        65                         -0.2324951              -6.3265
        66                         -0.1942638              -5.2862
        67                         -0.1491641              -4.0590
        68                         -0.1292053              -3.5159
       ...                                ...                  ...
       123                          0.6866312              18.6842
      -------------------------------------------------------------
                  HL-Gap            0.0949060 Eh            2.5825 eV
             Fermi-level           -0.3083211 Eh           -8.3898 eV

 SCC (total)                   0 d,  0 h,  0 min,  0.046 sec
 SCC setup                      ...        0 min,  0.000 sec (  0.798%)
 Dispersion                     ...        0 min,  0.000 sec (  0.901%)
 classical contributions        ...        0 min,  0.000 sec (  0.424%)
 integral evaluation            ...        0 min,  0.008 sec ( 18.051%)
 iterations                     ...        0 min,  0.008 sec ( 17.946%)
 molecular gradient             ...        0 min,  0.028 sec ( 61.347%)
 printout                       ...        0 min,  0.000 sec (  0.516%)

         :::::::::::::::::::::::::::::::::::::::::::::::::::::
         ::                     SUMMARY                     ::
         :::::::::::::::::::::::::::::::::::::::::::::::::::::
         :: total energy             -69.210305291486 Eh    ::
         :: gradient norm              0.000559200767 Eh/a0 ::
         :: HOMO-LUMO gap              2.582524818537 eV    ::
         ::.................................................::
         :: SCC energy               -70.155808311714 Eh    ::
         :: -> isotropic ES            0.053328013549 Eh    ::
         :: -> anisotropic ES          0.009609149927 Eh    ::
         :: -> anisotropic XC          0.037455734279 Eh    ::
         :: -> dispersion             -0.049073723004 Eh    ::
         :: repulsion energy           0.945503020228 Eh    ::
         :: add. restraining           0.000000000000 Eh    ::
         :: total charge               0.000000000000 e     ::
         :::::::::::::::::::::::::::::::::::::::::::::::::::::

           -------------------------------------------------
          |                Property Printout                |
           -------------------------------------------------

    * Orbital Energies and Occupations

         #    Occupation            Energy/Eh            Energy/eV
      -------------------------------------------------------------
         1        2.0000           -1.0470993             -28.4930
       ...           ...                  ...                  ...
        51        2.0000           -0.4503854             -12.2556
        52        2.0000           -0.4453376             -12.1183
        53        2.0000           -0.4412652             -12.0074
        54        2.0000           -0.4389065             -11.9433
        55        2.0000           -0.4335393             -11.7972
        56        2.0000           -0.4269819             -11.6188
        57        2.0000           -0.4104808             -11.1697
        58        2.0000           -0.4092492             -11.1362
        59        2.0000           -0.4068104             -11.0699
        60        2.0000           -0.3908456             -10.6354
        61        2.0000           -0.3653490              -9.9417
        62        2.0000           -0.3641322              -9.9085
        63        2.0000           -0.3557741              -9.6811 (HOMO)
        64                         -0.2608681              -7.0986 (LUMO)
        65                         -0.2324951              -6.3265
        66                         -0.1942638              -5.2862
        67                         -0.1491641              -4.0590
        68                         -0.1292053              -3.5159
        69                         -0.0642633              -1.7487
        70                         -0.0126593              -0.3445
        71                         -0.0030419              -0.0828
        72                          0.0243370               0.6622
        73                          0.0294003               0.8000
        74                          0.0294965               0.8026
       ...                                ...                  ...
       123                          0.6866312              18.6842
      -------------------------------------------------------------
                  HL-Gap            0.0949060 Eh            2.5825 eV
             Fermi-level           -0.3083211 Eh           -8.3898 eV

     #   Z          covCN         q      C6AA      α(0)
     1   6 C        3.754    -0.115    22.766     6.804
     2   6 C        3.786     0.044    19.844     6.345
     3   7 N        2.695    -0.170    24.668     7.377
     4   6 C        2.901     0.084    26.124     8.380
     5   6 C        2.913    -0.082    30.059     8.990
     6   6 C        2.907     0.063    26.578     8.453
     7   7 N        1.843    -0.257    27.526     7.775
     8   6 C        2.981     0.093    25.925     8.352
     9   6 C        2.983    -0.027    28.677     8.784
    10   6 C        2.919    -0.036    28.895     8.815
    11   6 C        2.951    -0.046    29.132     8.853
    12   6 C        2.885     0.098    25.832     8.332
    13  17 Cl       0.969    -0.183   104.896    15.669
    14   6 C        2.962    -0.052    29.296     8.878
    15   6 C        3.807    -0.074    21.908     6.663
    16   6 C        3.801    -0.062    21.700     6.632
    17   6 C        3.753     0.009    20.482     6.453
    18   7 N        2.726    -0.188    25.067     7.436
    19   6 C        3.750     0.004    20.565     6.468
    20   6 C        3.750    -0.110    22.663     6.789
    21   6 C        3.749    -0.004    20.705     6.490
    22   6 C        3.675     0.077    19.519     6.330
    23   8 O        1.655    -0.445    21.744     6.295
    24   1 H        0.925     0.046     2.372     2.408
    25   1 H        0.925     0.040     2.453     2.449
    26   1 H        0.925     0.044     2.398     2.422
    27   1 H        0.924     0.049     2.338     2.391
    28   1 H        0.860     0.163     1.316     1.797
    29   1 H        0.926     0.027     2.624     2.533
    30   1 H        0.925     0.033     2.546     2.495
    31   1 H        0.926     0.032     2.556     2.500
    32   1 H        0.926     0.052     2.297     2.370
    33   1 H        0.926     0.072     2.061     2.245
    34   1 H        0.924     0.059     2.208     2.324
    35   1 H        0.924     0.036     2.499     2.472
    36   1 H        0.924     0.038     2.476     2.461
    37   1 H        0.924     0.038     2.479     2.462
    38   1 H        0.924     0.036     2.501     2.473
    39   1 H        0.923     0.014     2.832     2.632
    40   1 H        0.924     0.039     2.468     2.457
    41   1 H        0.924     0.031     2.579     2.512
    42   1 H        0.925     0.037     2.495     2.470
    43   1 H        0.925     0.035     2.521     2.483
    44   1 H        0.925     0.035     2.523     2.484
    45   1 H        0.924     0.047     2.356     2.400
    46   1 H        0.923     0.014     2.832     2.632
    47   1 H        0.923     0.018     2.761     2.599
    48   1 H        0.924     0.044     2.392     2.418
    49   1 H        0.805     0.300     0.720     1.333

 Mol. C6AA /au·bohr⁶  :      25112.054995
 Mol. C8AA /au·bohr⁸  :     598079.699744
 Mol. α(0) /au        :        243.586194


Wiberg/Mayer (AO) data.
largest (>0.10) Wiberg bond orders for each atom

 ---------------------------------------------------------------------------
     #   Z sym  total        # sym  WBO       # sym  WBO       # sym  WBO
 ---------------------------------------------------------------------------
     1   6 C    3.991 --     2 C    0.995    25 H    0.986    24 H    0.984
                            26 H    0.982
     2   6 C    3.973 --     1 C    0.995    15 C    0.992     3 N    0.988
                            27 H    0.957
     3   7 N    3.410 --     4 C    1.222     2 C    0.988    28 H    0.932
     4   6 C    3.970 --     5 C    1.390     3 N    1.222     9 C    1.188
     5   6 C    3.978 --     4 C    1.390     6 C    1.370    29 H    0.965
     6   6 C    3.982 --     7 N    1.501     5 C    1.370    30 H    0.963
     7   7 N    3.047 --     6 C    1.501     8 C    1.283
     8   6 C    3.983 --     7 N    1.283    14 C    1.269     9 C    1.246
     9   6 C    3.987 --    10 C    1.306     8 C    1.246     4 C    1.188
    10   6 C    3.992 --    11 C    1.537     9 C    1.306    31 H    0.959
                            14 C    0.111
    11   6 C    3.987 --    10 C    1.537    12 C    1.303    32 H    0.968
    12   6 C    3.916 --    14 C    1.512    11 C    1.303    13 Cl   0.968
    13  17 Cl   1.099 --    12 C    0.968
    14   6 C    3.986 --    12 C    1.512     8 C    1.269    33 H    0.963
                            10 C    0.111
    15   6 C    3.993 --    16 C    1.008     2 C    0.992    35 H    0.975
                            34 H    0.968
    16   6 C    3.997 --    15 C    1.008    17 C    1.000    36 H    0.973
                            37 H    0.972
    17   6 C    3.987 --    18 N    1.002    16 C    1.000    38 H    0.972
                            39 H    0.967
    18   7 N    3.144 --    21 C    1.004    19 C    1.004    17 C    1.002
    19   6 C    3.986 --    20 C    1.005    18 N    1.004    41 H    0.973
                            40 H    0.970
    20   6 C    3.997 --    19 C    1.005    44 H    0.987    42 H    0.986
                            43 H    0.985
    21   6 C    3.987 --    18 N    1.004    22 C    0.991    45 H    0.969
                            46 H    0.963
    22   6 C    3.964 --    23 O    1.009    21 C    0.991    48 H    0.973
                            47 H    0.965
    23   8 O    1.955 --    22 C    1.009    49 H    0.880
    24   1 H    0.998 --     1 C    0.984
    25   1 H    0.998 --     1 C    0.986
    26   1 H    0.997 --     1 C    0.982
    27   1 H    0.997 --     2 C    0.957
    28   1 H    0.973 --     3 N    0.932
    29   1 H    0.999 --     5 C    0.965
    30   1 H    0.998 --     6 C    0.963
    31   1 H    0.999 --    10 C    0.959
    32   1 H    0.997 --    11 C    0.968
    33   1 H    0.994 --    14 C    0.963
    34   1 H    0.996 --    15 C    0.968
    35   1 H    0.999 --    15 C    0.975
    36   1 H    0.998 --    16 C    0.973
    37   1 H    0.999 --    16 C    0.972
    38   1 H    0.998 --    17 C    0.972
    39   1 H    0.999 --    17 C    0.967
    40   1 H    0.998 --    19 C    0.970
    41   1 H    0.999 --    19 C    0.973
    42   1 H    0.999 --    20 C    0.986
    43   1 H    0.999 --    20 C    0.985
    44   1 H    0.999 --    20 C    0.987
    45   1 H    0.998 --    21 C    0.969
    46   1 H    1.000 --    21 C    0.963
    47   1 H    1.000 --    22 C    0.965
    48   1 H    0.998 --    22 C    0.973
    49   1 H    0.910 --    23 O    0.880
 ---------------------------------------------------------------------------

Topologies differ in total number of bonds
Writing topology from bond orders to xtbtopo.mol

molecular dipole:
                 x           y           z       tot (Debye)
 q only:       -2.399      -1.554       0.005
   full:       -3.052      -1.884       0.301       9.148
molecular quadrupole (traceless):
                xx          xy          yy          xz          yz          zz
 q only:      -19.333     -13.905       6.065      -8.132      -2.598      13.268
  q+dip:      -20.242     -11.595       2.806      -4.063       0.911      17.436
   full:      -20.704     -12.690       5.026      -2.409      -0.489      15.678

           -------------------------------------------------
          |                Geometry Summary                 |
           -------------------------------------------------

      molecular mass/u    :      335.8721578
   center of mass at/Å    :        1.3824766       0.5163714       0.2847872
  moments of inertia/u·Å² :        0.1249316E+04   0.6042443E+04   0.6592399E+04
rotational constants/cm⁻¹ :        0.1349349E-01   0.2789871E-02   0.2557132E-02

 * 50 selected distances

     #   Z          #   Z                                           value/Å
     1   6 C        2   6 C                                       1.5320332
     2   6 C        3   7 N                                       1.4475298
     3   7 N        4   6 C                                       1.3575266
     4   6 C        5   6 C                                       1.3890124
     5   6 C        6   6 C                                       1.3927112
     6   6 C        7   7 N                                       1.3074347
     7   7 N        8   6 C                                       1.3463749
     4   6 C        9   6 C                                       1.4344595
     8   6 C        9   6 C                                       1.4235756
     9   6 C       10   6 C                                       1.4076282
    10   6 C       11   6 C                                       1.3685280
    11   6 C       12   6 C                                       1.4011306
    12   6 C       13  17 Cl                                      1.7296233 (max)
     8   6 C       14   6 C                                       1.4108892
    12   6 C       14   6 C                                       1.3657854
     2   6 C       15   6 C                                       1.5321531
    15   6 C       16   6 C                                       1.5259418
    16   6 C       17   6 C                                       1.5322105
    17   6 C       18   7 N                                       1.4550565
    18   7 N       19   6 C                                       1.4554998
    19   6 C       20   6 C                                       1.5323753
    18   7 N       21   6 C                                       1.4560101
    21   6 C       22   6 C                                       1.5338055
    22   6 C       23   8 O                                       1.4035820
     1   6 C       24   1 H                                       1.0874437
     1   6 C       25   1 H                                       1.0879542
     1   6 C       26   1 H                                       1.0857500
     2   6 C       27   1 H                                       1.0952258
     3   7 N       28   1 H                                       1.0068680
     5   6 C       29   1 H                                       1.0772999
     6   6 C       30   1 H                                       1.0831727
    10   6 C       31   1 H                                       1.0806909
    11   6 C       32   1 H                                       1.0786399
    14   6 C       33   1 H                                       1.0775778
    15   6 C       34   1 H                                       1.0907547
    15   6 C       35   1 H                                       1.0928659
    16   6 C       36   1 H                                       1.0910650
    16   6 C       37   1 H                                       1.0909582
    17   6 C       38   1 H                                       1.0929978
    17   6 C       39   1 H                                       1.1022091
    19   6 C       40   1 H                                       1.0920325
    19   6 C       41   1 H                                       1.0948549
    20   6 C       42   1 H                                       1.0867355
    20   6 C       43   1 H                                       1.0871445
    20   6 C       44   1 H                                       1.0871939
    21   6 C       45   1 H                                       1.0903660
    21   6 C       46   1 H                                       1.1002019
    22   6 C       47   1 H                                       1.1003885
    22   6 C       48   1 H                                       1.0923190
    23   8 O       49   1 H                                       0.9675865 (min)

 * 7 distinct bonds (by element types)

   Z      Z             #   av. dist./Å        max./Å        min./Å
   1 H    6 C          24     1.0894101     1.1022091     1.0772999
   6 C    6 C          15     1.4521493     1.5338055     1.3657854
   1 H    7 N           1     1.0068680     1.0068680     1.0068680
   6 C    7 N           7     1.4036332     1.4560101     1.3074347
   1 H    8 O           1     0.9675865     0.9675865     0.9675865
   6 C    8 O           1     1.4035820     1.4035820     1.4035820
   6 C   17 Cl          1     1.7296233     1.7296233     1.7296233


optimized geometry written to: xtbopt.xyz


           -------------------------------------------------
          | TOTAL ENERGY              -69.210305291486 Eh   |
          | GRADIENT NORM               0.000559200767 Eh/α |
          | HOMO-LUMO GAP               2.582524818537 eV   |
           -------------------------------------------------

------------------------------------------------------------------------
 * finished run on 2025/05/15 at 16:10:07.438     
------------------------------------------------------------------------
 total:
 * wall-time:     0 d,  0 h,  0 min,  1.549 sec
 *  cpu-time:     0 d,  0 h,  0 min,  1.417 sec
 * ratio c/w:     0.915 speedup
 SCF:
 * wall-time:     0 d,  0 h,  0 min,  0.075 sec
 *  cpu-time:     0 d,  0 h,  0 min,  0.075 sec
 * ratio c/w:     0.995 speedup
 ANC optimizer:
 * wall-time:     0 d,  0 h,  0 min,  1.459 sec
 *  cpu-time:     0 d,  0 h,  0 min,  1.329 sec
 * ratio c/w:     0.911 speedup



----- Single-point -----
      -----------------------------------------------------------      
     |                   =====================                   |     
     |                           x T B                           |     
     |                   =====================                   |     
     |                         S. Grimme                         |     
     |          Mulliken Center for Theoretical Chemistry        |     
     |                    University of Bonn                     |     
      -----------------------------------------------------------      

   * xtb version 6.7.1 (edcfbbe) compiled by 'conda@3ef47c1a292c' on 2024-11-25

   xtb is free software: you can redistribute it and/or modify it under
   the terms of the GNU Lesser General Public License as published by
   the Free Software Foundation, either version 3 of the License, or
   (at your option) any later version.
   
   xtb is distributed in the hope that it will be useful,
   but WITHOUT ANY WARRANTY; without even the implied warranty of
   MERCHANTABILITY or FITNESS FOR A PARTICULAR PURPOSE.  See the
   GNU Lesser General Public License for more details.
   
   Cite this work as:
   * C. Bannwarth, E. Caldeweyher, S. Ehlert, A. Hansen, P. Pracht,
     J. Seibert, S. Spicher, S. Grimme, WIREs Comput. Mol. Sci., 2020, 11,
     e01493. DOI: 10.1002/wcms.1493
   
   for GFN2-xTB:
   * C. Bannwarth, S. Ehlert and S. Grimme., J. Chem. Theory Comput., 2019,
     15, 1652-1671. DOI: 10.1021/acs.jctc.8b01176
   for GFN1-xTB:
   * S. Grimme, C. Bannwarth, P. Shushkov, J. Chem. Theory Comput., 2017,
     13, 1989-2009. DOI: 10.1021/acs.jctc.7b00118
   for GFN0-xTB:
   * P. Pracht, E. Caldeweyher, S. Ehlert, S. Grimme, ChemRxiv, 2019, preprint.
     DOI: 10.26434/chemrxiv.8326202.v1
   for GFN-FF:
   * S. Spicher and S. Grimme, Angew. Chem. Int. Ed., 2020, 59, 15665-15673.
     DOI: 10.1002/anie.202004239
   
   for ALPB and GBSA implicit solvation:
   * S. Ehlert, M. Stahn, S. Spicher, S. Grimme, J. Chem. Theory Comput.,
     2021, 17, 4250-4261. DOI: 10.1021/acs.jctc.1c00471
   
   for ddCOSMO and CPCM-X implicit solvation:
   * M. Stahn, S. Ehlert, S. Grimme, J. Phys. Chem. A,
     2023, XX, XXXX-XXXX. DOI: 10.1021/acs.jpca.3c04382
   
   for DFT-D4:
   * E. Caldeweyher, C. Bannwarth and S. Grimme, J. Chem. Phys., 2017,
     147, 034112. DOI: 10.1063/1.4993215
   * E. Caldeweyher, S. Ehlert, A. Hansen, H. Neugebauer, S. Spicher,
     C. Bannwarth and S. Grimme, J. Chem. Phys., 2019, 150, 154122.
     DOI: 10.1063/1.5090222
   * E. Caldeweyher, J.-M. Mewes, S. Ehlert and S. Grimme, Phys. Chem. Chem. Phys.
     2020, 22, 8499-8512. DOI: 10.1039/D0CP00502A
   
   for sTDA-xTB:
   * S. Grimme and C. Bannwarth, J. Chem. Phys., 2016, 145, 054103.
     DOI: 10.1063/1.4959605
   
   in the mass-spec context:
   * V. Asgeirsson, C. Bauer and S. Grimme, Chem. Sci., 2017, 8, 4879.
     DOI: 10.1039/c7sc00601b
   * J. Koopman and S. Grimme, ACS Omega 2019, 4, 12, 15120-15133.
     DOI: 10.1021/acsomega.9b02011
   
   for metadynamics refer to:
   * S. Grimme, J. Chem. Theory Comput., 2019, 155, 2847-2862
     DOI: 10.1021/acs.jctc.9b00143
   
   for SPH calculations refer to:
   * S. Spicher and S. Grimme, J. Chem. Theory Comput., 2021, 17, 1701-1714
     DOI: 10.1021/acs.jctc.0c01306
   
   for ONIOM refer to:
   * C. Plett, A. Katbashev, S. Ehlert, S. Grimme, M. Bursch,
     Phys. Chem. Chem. Phys., 2023, 25, 17860-17868. DOI: 10.1039/D3CP02178E
   
   for DIPRO refer to:
   * J. Kohn, N. Gildemeister, S. Grimme, D. Fazzi, A. Hansen,
     J. Chem. Phys., 2023, just accepted.
   
   for PTB refer to:
   * S. Grimme, M. Mueller, A. Hansen, J. Chem. Phys., 2023, 158, 124111.
     DOI: 10.1063/5.0137838
   
   with help from (in alphabetical order)
   P. Atkinson, C. Bannwarth, F. Bohle, G. Brandenburg, E. Caldeweyher
   M. Checinski, S. Dohm, S. Ehlert, S. Ehrlich, I. Gerasimov, C. Hölzer
   A. Katbashev, J. Kohn, J. Koopman, C. Lavigne, S. Lehtola, F. März, M. Müller,
   F. Musil, H. Neugebauer, J. Pisarek, C. Plett, P. Pracht, F. Pultar,
   J. Seibert, P. Shushkov, S. Spicher, M. Stahn, M. Steiner, T. Strunk,
   J. Stückrath, T. Rose, and J. Unsleber
   
 * started run on 2025/05/15 at 16:10:07.458     
   ID    Z sym.   atoms
    1    6 C      1, 2, 4-6, 8-12, 14-17, 19-22
    2    7 N      3, 7, 18
    3   17 Cl     13
    4    8 O      23
    5    1 H      24-49

           -------------------------------------------------
          |                Calculation Setup                |
           -------------------------------------------------

          program call               : xtb /rds/general/user/hgt20/home/callum/QDESCP/Hydroxychloroquine_rdkit_conf_8/Hydroxychloroquine_rdkit_conf_8.xyz --acc 1 --gfn 2 --chrg 0 --uhf 0 --etemp 300 --input /rds/general/user/hgt20/home/callum/QDESCP/Hydroxychloroquine_rdkit_conf_8/Hydroxychloroquine_rdkit_conf_8_xtb.inp -P 1
          hostname                   : login-c
          coordinate file            : /rds/general/user/hgt20/home/callum/QDESCP/Hydroxychloroquine_rdkit_conf_8/Hydroxychloroquine_rdkit_conf_8.xyz
          omp threads                :                     1


           -------------------------------------------------
          |                 G F N 2 - x T B                 |
           -------------------------------------------------

        Reference                      10.1021/acs.jctc.8b01176
      * Hamiltonian:
        H0-scaling (s, p, d)           1.850000    2.230000    2.230000
        zeta-weighting                 0.500000
      * Dispersion:
        s8                             2.700000
        a1                             0.520000
        a2                             5.000000
        s9                             5.000000
      * Repulsion:
        kExp                           1.500000    1.000000
        rExp                           1.000000
      * Coulomb:
        alpha                          2.000000
        third order                    shell-resolved
        anisotropic                    true
        a3                             3.000000
        a5                             4.000000
        cn-shift                       1.200000
        cn-exp                         4.000000
        max-rad                        5.000000

q/qsh data taken from xtbrestart
CAMM data taken from xtbrestart

          ...................................................
          :                      SETUP                      :
          :.................................................:
          :  # basis functions                 124          :
          :  # atomic orbitals                 123          :
          :  # shells                           73          :
          :  # electrons                       126          :
          :  max. iterations                   250          :
          :  Hamiltonian                  GFN2-xTB          :
          :  restarted?                       true          :
          :  GBSA solvation                  false          :
          :  PC potential                    false          :
          :  electronic temp.          300.0000000     K    :
          :  accuracy                    1.0000000          :
          :  -> integral cutoff          0.2500000E+02      :
          :  -> integral neglect         0.1000000E-07      :
          :  -> SCF convergence          0.1000000E-05 Eh   :
          :  -> wf. convergence          0.1000000E-03 e    :
          :  Broyden damping             0.4000000          :
          :  net charge                          0          :
          :  unpaired electrons                  0          :
          ...................................................

 iter      E             dE          RMSdq      gap      omega  full diag
   1    -70.1560043 -0.701560E+02  0.421E-05    2.58       0.0  T
   2    -70.1560043 -0.135287E-10  0.362E-05    2.58     395.1  T
   3    -70.1560043 -0.124487E-10  0.288E-05    2.58     495.5  T

   *** convergence criteria satisfied after 3 iterations ***

         #    Occupation            Energy/Eh            Energy/eV
      -------------------------------------------------------------
         1        2.0000           -1.0470995             -28.4930
       ...           ...                  ...                  ...
        57        2.0000           -0.4104807             -11.1697
        58        2.0000           -0.4092490             -11.1362
        59        2.0000           -0.4068098             -11.0699
        60        2.0000           -0.3908452             -10.6354
        61        2.0000           -0.3653487              -9.9416
        62        2.0000           -0.3641320              -9.9085
        63        2.0000           -0.3557734              -9.6811 (HOMO)
        64                         -0.2608677              -7.0986 (LUMO)
        65                         -0.2324946              -6.3265
        66                         -0.1942634              -5.2862
        67                         -0.1491636              -4.0589
        68                         -0.1292035              -3.5158
[...]
     DOI: 10.1063/1.4959605
   
   in the mass-spec context:
   * V. Asgeirsson, C. Bauer and S. Grimme, Chem. Sci., 2017, 8, 4879.
     DOI: 10.1039/c7sc00601b
   * J. Koopman and S. Grimme, ACS Omega 2019, 4, 12, 15120-15133.
     DOI: 10.1021/acsomega.9b02011
   
   for metadynamics refer to:
   * S. Grimme, J. Chem. Theory Comput., 2019, 155, 2847-2862
     DOI: 10.1021/acs.jctc.9b00143
   
   for SPH calculations refer to:
   * S. Spicher and S. Grimme, J. Chem. Theory Comput., 2021, 17, 1701-1714
     DOI: 10.1021/acs.jctc.0c01306
   
   for ONIOM refer to:
   * C. Plett, A. Katbashev, S. Ehlert, S. Grimme, M. Bursch,
     Phys. Chem. Chem. Phys., 2023, 25, 17860-17868. DOI: 10.1039/D3CP02178E
   
   for DIPRO refer to:
   * J. Kohn, N. Gildemeister, S. Grimme, D. Fazzi, A. Hansen,
     J. Chem. Phys., 2023, just accepted.
   
   for PTB refer to:
   * S. Grimme, M. Mueller, A. Hansen, J. Chem. Phys., 2023, 158, 124111.
     DOI: 10.1063/5.0137838
   
   with help from (in alphabetical order)
   P. Atkinson, C. Bannwarth, F. Bohle, G. Brandenburg, E. Caldeweyher
   M. Checinski, S. Dohm, S. Ehlert, S. Ehrlich, I. Gerasimov, C. Hölzer
   A. Katbashev, J. Kohn, J. Koopman, C. Lavigne, S. Lehtola, F. März, M. Müller,
   F. Musil, H. Neugebauer, J. Pisarek, C. Plett, P. Pracht, F. Pultar,
   J. Seibert, P. Shushkov, S. Spicher, M. Stahn, M. Steiner, T. Strunk,
   J. Stückrath, T. Rose, and J. Unsleber
   
 * started run on 2025/05/15 at 16:10:09.634     
   ID    Z sym.   atoms
    1    6 C      1, 2, 4-6, 8-12, 14-17, 19-22
    2    7 N      3, 7, 18
    3   17 Cl     13
    4    8 O      23
    5    1 H      24-49

           -------------------------------------------------
          |                Calculation Setup                |
           -------------------------------------------------

          program call               : xtb /rds/general/user/hgt20/home/callum/QDESCP/Hydroxychloroquine_rdkit_conf_8/Hydroxychloroquine_rdkit_conf_8.xyz --acc 1 --gfn 2 --chrg 0 --uhf 2 --etemp 300 --input /rds/general/user/hgt20/home/callum/QDESCP/Hydroxychloroquine_rdkit_conf_8/Hydroxychloroquine_rdkit_conf_8_xtb.inp -P 1
          hostname                   : login-c
          coordinate file            : /rds/general/user/hgt20/home/callum/QDESCP/Hydroxychloroquine_rdkit_conf_8/Hydroxychloroquine_rdkit_conf_8.xyz
          omp threads                :                     1


           -------------------------------------------------
          |                 G F N 2 - x T B                 |
           -------------------------------------------------

        Reference                      10.1021/acs.jctc.8b01176
      * Hamiltonian:
        H0-scaling (s, p, d)           1.850000    2.230000    2.230000
        zeta-weighting                 0.500000
      * Dispersion:
        s8                             2.700000
        a1                             0.520000
        a2                             5.000000
        s9                             5.000000
      * Repulsion:
        kExp                           1.500000    1.000000
        rExp                           1.000000
      * Coulomb:
        alpha                          2.000000
        third order                    shell-resolved
        anisotropic                    true
        a3                             3.000000
        a5                             4.000000
        cn-shift                       1.200000
        cn-exp                         4.000000
        max-rad                        5.000000


          ...................................................
          :                      SETUP                      :
          :.................................................:
          :  # basis functions                 124          :
          :  # atomic orbitals                 123          :
          :  # shells                           73          :
          :  # electrons                       126          :
          :  max. iterations                   250          :
          :  Hamiltonian                  GFN2-xTB          :
          :  restarted?                      false          :
          :  GBSA solvation                  false          :
          :  PC potential                    false          :
          :  electronic temp.          300.0000000     K    :
          :  accuracy                    1.0000000          :
          :  -> integral cutoff          0.2500000E+02      :
          :  -> integral neglect         0.1000000E-07      :
          :  -> SCF convergence          0.1000000E-05 Eh   :
          :  -> wf. convergence          0.1000000E-03 e    :
          :  Broyden damping             0.4000000          :
          :  net charge                          0          :
          :  unpaired electrons                  2          :
          ...................................................

 iter      E             dE          RMSdq      gap      omega  full diag
   1    -69.8658814 -0.698659E+02  0.338E+00    0.47       0.0  T
   2    -69.9170604 -0.511790E-01  0.239E+00    0.87       1.0  T
   3    -69.9460731 -0.290127E-01  0.180E+00    0.67       1.0  T
   4    -70.0105352 -0.644621E-01  0.881E-01    0.74       1.0  T
   5    -70.0363443 -0.258092E-01  0.631E-01    0.70       1.0  T
   6    -70.0378180 -0.147362E-02  0.385E-01    0.70       1.0  T
   7    -70.0359160  0.190196E-02  0.478E-01    0.69       1.0  T
   8    -70.0428381 -0.692206E-02  0.328E-01    0.70       1.0  T
   9    -70.0450950 -0.225695E-02  0.231E-01    0.70       1.0  T
  10    -70.0477949 -0.269987E-02  0.577E-02    0.70       1.0  T
  11    -70.0474180  0.376935E-03  0.111E-01    0.70       1.0  T
  12    -70.0479629 -0.544936E-03  0.305E-02    0.70       1.0  T
  13    -70.0479560  0.686652E-05  0.331E-02    0.70       1.0  T
  14    -70.0480324 -0.763850E-04  0.137E-02    0.70       1.0  T
  15    -70.0480322  0.199980E-06  0.107E-02    0.70       1.3  T
  16    -70.0480389 -0.665365E-05  0.731E-03    0.70       2.0  T
  17    -70.0480415 -0.261956E-05  0.924E-04    0.70      15.5  T
  18    -70.0480415  0.119050E-07  0.120E-03    0.70      11.9  T
  19    -70.0480416 -0.955450E-07  0.169E-04    0.70      84.7  T
  20    -70.0480416  0.722754E-08  0.362E-04    0.70      39.5  T

   *** convergence criteria satisfied after 20 iterations ***

         #    Occupation            Energy/Eh            Energy/eV
      -------------------------------------------------------------
         1        2.0000           -1.0378701             -28.2419
       ...           ...                  ...                  ...
        58        2.0000           -0.4015488             -10.9267
        59        2.0000           -0.3996327             -10.8746
        60        2.0000           -0.3817713             -10.3885
        61        1.9823           -0.3710520             -10.0968
        62        1.7743           -0.3684081             -10.0249
        63        1.2434           -0.3661591              -9.9637
        64        1.0000           -0.2522545              -6.8642 (HOMO)
        65        0.0000           -0.2265537              -6.1648 (LUMO)
        66                         -0.1875268              -5.1029
        67                         -0.1420130              -3.8644
        68                         -0.1185015              -3.2246
        69                         -0.0581058              -1.5811
       ...                                ...                  ...
       123                          0.6939776              18.8841
      -------------------------------------------------------------
                  HL-Gap            0.0257009 Eh            0.6994 eV
             Fermi-level           -0.3033204 Eh           -8.2538 eV

 transition dipole moment (au) for excitation:          63          64
     X       Y       Z   
  -1.5871  -0.4571   0.4591  total (au/Debye):    1.714   4.357
 dE (eV)             :    3.100
 oscillator strength :  0.31559E+00

 SCC (total)                   0 d,  0 h,  0 min,  0.118 sec
 SCC setup                      ...        0 min,  0.000 sec (  0.352%)
 Dispersion                     ...        0 min,  0.001 sec (  0.497%)
 classical contributions        ...        0 min,  0.000 sec (  0.160%)
 integral evaluation            ...        0 min,  0.009 sec (  7.304%)
 iterations                     ...        0 min,  0.070 sec ( 59.207%)
 molecular gradient             ...        0 min,  0.031 sec ( 26.157%)
 printout                       ...        0 min,  0.007 sec (  6.317%)

         :::::::::::::::::::::::::::::::::::::::::::::::::::::
         ::                     SUMMARY                     ::
         :::::::::::::::::::::::::::::::::::::::::::::::::::::
         :: total energy             -69.102342581583 Eh    ::
         :: gradient norm              0.108715876087 Eh/a0 ::
         :: HOMO-LUMO gap              0.699356243515 eV    ::
         ::.................................................::
         :: SCC energy               -70.047845601811 Eh    ::
         :: -> isotropic ES            0.050132306415 Eh    ::
         :: -> anisotropic ES          0.009700020673 Eh    ::
         :: -> anisotropic XC          0.033606160811 Eh    ::
         :: -> dispersion             -0.049019925657 Eh    ::
         :: repulsion energy           0.945503020228 Eh    ::
         :: add. restraining           0.000000000000 Eh    ::
         :: total charge               0.000000000027 e     ::
         :::::::::::::::::::::::::::::::::::::::::::::::::::::

           -------------------------------------------------
          |                Property Printout                |
           -------------------------------------------------

    * Orbital Energies and Occupations

         #    Occupation            Energy/Eh            Energy/eV
      -------------------------------------------------------------
         1        2.0000           -1.0378701             -28.2419
       ...           ...                  ...                  ...
        52        2.0000           -0.4497572             -12.2385
        53        2.0000           -0.4430674             -12.0565
        54        2.0000           -0.4334465             -11.7947
        55        2.0000           -0.4252965             -11.5729
        56        2.0000           -0.4221670             -11.4877
        57        2.0000           -0.4139947             -11.2654
        58        2.0000           -0.4015488             -10.9267
        59        2.0000           -0.3996327             -10.8746
        60        2.0000           -0.3817713             -10.3885
        61        1.9823           -0.3710520             -10.0968
        62        1.7743           -0.3684081             -10.0249
        63        1.2434           -0.3661591              -9.9637
        64        1.0000           -0.2522545              -6.8642 (HOMO)
        65        0.0000           -0.2265537              -6.1648 (LUMO)
        66                         -0.1875268              -5.1029
        67                         -0.1420130              -3.8644
        68                         -0.1185015              -3.2246
        69                         -0.0581058              -1.5811
        70                         -0.0154745              -0.4211
        71                         -0.0085839              -0.2336
        72                          0.0327593               0.8914
        73                          0.0358394               0.9752
        74                          0.0391038               1.0641
        75                          0.0391927               1.0665
       ...                                ...                  ...
       123                          0.6939776              18.8841
      -------------------------------------------------------------
                  HL-Gap            0.0257009 Eh            0.6994 eV
             Fermi-level           -0.3033204 Eh           -8.2538 eV

     #   Z          covCN         q      C6AA      α(0)
     1   6 C        3.754    -0.115    22.753     6.802
     2   6 C        3.786     0.043    19.861     6.348
     3   7 N        2.695    -0.146    24.159     7.300
     4   6 C        2.901     0.046    26.965     8.514
     5   6 C        2.913    -0.057    29.409     8.893
     6   6 C        2.907     0.035    27.219     8.555
     7   7 N        1.843    -0.204    26.271     7.596
     8   6 C        2.981     0.091    25.971     8.359
     9   6 C        2.983    -0.021    28.531     8.762
    10   6 C        2.919    -0.062    29.532     8.912
    11   6 C        2.951    -0.046    29.136     8.853
    12   6 C        2.885     0.085    26.103     8.376
    13  17 Cl       0.969    -0.191   105.165    15.689
    14   6 C        2.962    -0.065    29.607     8.925
    15   6 C        3.807    -0.074    21.916     6.664
    16   6 C        3.801    -0.063    21.704     6.633
    17   6 C        3.753     0.008    20.505     6.457
    18   7 N        2.726    -0.180    24.897     7.411
    19   6 C        3.750     0.003    20.586     6.471
    20   6 C        3.750    -0.110    22.671     6.791
    21   6 C        3.749    -0.005    20.727     6.493
    22   6 C        3.675     0.076    19.525     6.331
    23   8 O        1.655    -0.444    21.720     6.291
    24   1 H        0.925     0.049     2.333     2.389
    25   1 H        0.925     0.043     2.412     2.429
    26   1 H        0.925     0.046     2.368     2.406
    27   1 H        0.924     0.052     2.290     2.366
    28   1 H        0.860     0.169     1.278     1.771
    29   1 H        0.926     0.033     2.544     2.494
    30   1 H        0.925     0.033     2.546     2.495
    31   1 H        0.926     0.020     2.736     2.587
    32   1 H        0.926     0.043     2.410     2.427
    33   1 H        0.926     0.060     2.195     2.317
    34   1 H        0.924     0.060     2.194     2.316
    35   1 H        0.924     0.038     2.470     2.458
    36   1 H        0.924     0.039     2.457     2.451
    37   1 H        0.924     0.039     2.465     2.455
    38   1 H        0.924     0.038     2.473     2.459
    39   1 H        0.923     0.017     2.778     2.606
    40   1 H        0.924     0.041     2.439     2.442
    41   1 H        0.924     0.033     2.550     2.497
    42   1 H        0.925     0.039     2.468     2.457
    43   1 H        0.925     0.036     2.507     2.476
    44   1 H        0.925     0.035     2.510     2.477
    45   1 H        0.924     0.048     2.339     2.392
    46   1 H        0.923     0.017     2.786     2.610
    47   1 H        0.923     0.019     2.743     2.590
    48   1 H        0.924     0.046     2.372     2.409
    49   1 H        0.805     0.300     0.720     1.333

 Mol. C6AA /au·bohr⁶  :      25096.484272
 Mol. C8AA /au·bohr⁸  :     598102.415899
 Mol. α(0) /au        :        243.537211


Wiberg/Mayer (AO) data.
largest (>0.10) Wiberg bond orders for each atom

 ---------------------------------------------------------------------------
     #   Z sym  total        # sym  WBO       # sym  WBO       # sym  WBO
 ---------------------------------------------------------------------------
     1   6 C    3.982 --     2 C    0.986    25 H    0.986    24 H    0.983
                            26 H    0.981
     2   6 C    3.970 --     3 N    0.995    15 C    0.990     1 C    0.986
                            27 H    0.955
     3   7 N    3.352 --     4 C    1.208     2 C    0.995    28 H    0.929
     4   6 C    3.876 --     5 C    1.231     3 N    1.208     9 C    1.184
     5   6 C    3.867 --     6 C    1.453     4 C    1.231    29 H    0.962
     6   6 C    3.948 --     5 C    1.453     7 N    1.332    30 H    0.958
     7   7 N    2.884 --     6 C    1.332     8 C    1.282
     8   6 C    3.960 --     7 N    1.282    14 C    1.265     9 C    1.228
     9   6 C    3.953 --    10 C    1.313     8 C    1.228     4 C    1.184
    10   6 C    3.901 --    11 C    1.341     9 C    1.313    31 H    0.956
    11   6 C    3.948 --    12 C    1.418    10 C    1.341    32 H    0.969
    12   6 C    3.888 --    11 C    1.418    14 C    1.331    13 Cl   0.960
    13  17 Cl   1.083 --    12 C    0.960
    14   6 C    3.856 --    12 C    1.331     8 C    1.265    33 H    0.964
    15   6 C    3.991 --    16 C    1.008     2 C    0.990    35 H    0.975
                            34 H    0.968
    16   6 C    3.995 --    15 C    1.008    17 C    0.999    36 H    0.973
                            37 H    0.972
    17   6 C    3.985 --    18 N    1.002    16 C    0.999    38 H    0.972
                            39 H    0.965
    18   7 N    3.138 --    21 C    1.004    19 C    1.003    17 C    1.002
    19   6 C    3.984 --    20 C    1.004    18 N    1.003    41 H    0.972
                            40 H    0.969
    20   6 C    3.993 --    19 C    1.004    44 H    0.987    42 H    0.985
                            43 H    0.985
    21   6 C    3.985 --    18 N    1.004    22 C    0.991    45 H    0.968
                            46 H    0.962
    22   6 C    3.963 --    23 O    1.009    21 C    0.991    48 H    0.973
                            47 H    0.965
    23   8 O    1.956 --    22 C    1.009    49 H    0.880
    24   1 H    0.997 --     1 C    0.983
    25   1 H    0.998 --     1 C    0.986
    26   1 H    0.996 --     1 C    0.981
    27   1 H    0.995 --     2 C    0.955
    28   1 H    0.971 --     3 N    0.929
    29   1 H    0.995 --     5 C    0.962
    30   1 H    0.989 --     6 C    0.958
    31   1 H    0.995 --    10 C    0.956
    32   1 H    0.997 --    11 C    0.969
    33   1 H    0.994 --    14 C    0.964
    34   1 H    0.996 --    15 C    0.968
    35   1 H    0.998 --    15 C    0.975
    36   1 H    0.998 --    16 C    0.973
    37   1 H    0.998 --    16 C    0.972
    38   1 H    0.998 --    17 C    0.972
    39   1 H    0.996 --    17 C    0.965
    40   1 H    0.998 --    19 C    0.969
    41   1 H    0.998 --    19 C    0.972
    42   1 H    0.998 --    20 C    0.985
    43   1 H    0.999 --    20 C    0.985
    44   1 H    0.999 --    20 C    0.987
    45   1 H    0.998 --    21 C    0.968
    46   1 H    0.997 --    21 C    0.962
    47   1 H    1.000 --    22 C    0.965
    48   1 H    0.998 --    22 C    0.973
    49   1 H    0.910 --    23 O    0.880
 ---------------------------------------------------------------------------

Topologies differ in total number of bonds
Writing topology from bond orders to xtbtopo.mol

molecular dipole:
                 x           y           z       tot (Debye)
 q only:       -3.025      -1.902      -0.397
   full:       -3.616      -2.246      -0.170      10.829
molecular quadrupole (traceless):
                xx          xy          yy          xz          yz          zz
 q only:      -21.646     -17.944       7.564     -13.336      -4.266      14.082
  q+dip:      -21.320     -16.224       3.648     -11.140      -1.496      17.673
   full:      -21.775     -17.161       5.665      -9.477      -2.598      16.111


           -------------------------------------------------
          | TOTAL ENERGY              -69.102342581583 Eh   |
          | GRADIENT NORM               0.108715876087 Eh/α |
          | HOMO-LUMO GAP               0.699356243515 eV   |
           -------------------------------------------------

------------------------------------------------------------------------
 * finished run on 2025/05/15 at 16:10:09.767     
------------------------------------------------------------------------
 total:
 * wall-time:     0 d,  0 h,  0 min,  0.132 sec
 *  cpu-time:     0 d,  0 h,  0 min,  0.113 sec
 * ratio c/w:     0.853 speedup
 SCF:
 * wall-time:     0 d,  0 h,  0 min,  0.119 sec
 *  cpu-time:     0 d,  0 h,  0 min,  0.100 sec
 * ratio c/w:     0.844 speedup


