49
 energy: -69.210305291486 gnorm: 0.000559200767 xtb: 6.7.1 (edcfbbe)
C            1.21982828250921       -2.76360175279076       -0.29463124081496
C            0.79348519642483       -1.30901773514888       -0.51721211933104
N            1.72175257076629       -0.40019568760272        0.12130509668067
C            2.96192716369364       -0.08539483167206       -0.33228675574033
C            3.41859057238138       -0.44996231750673       -1.59240746225251
C            4.69813949596544       -0.07847777996272       -1.99786764402883
N            5.54501396774041        0.59989410966904       -1.26848416152745
C            5.14094584522512        0.98622567267470       -0.04365685816540
C            3.85373311957277        0.68571300684125        0.48487197409489
C            3.53622983132031        1.16239017121054        1.77071306862987
C            4.43476078376151        1.88291556842208        2.50987060260127
C            5.70317114795878        2.15671099515267        1.98134629744123
Cl           6.82278271681414        3.06200086893756        2.93973897008512
C            6.05655628552943        1.72567100203896        0.73447302889333
C           -0.60464567467064       -1.02099818388542        0.03935545891717
C           -1.71853120004254       -1.67211020537504       -0.77538988235968
C           -3.10262573991398       -1.41075489602861       -0.17236059062356
N           -3.38695801480073        0.00434955638233        0.01155142358680
C           -4.32790568060749        0.25928661371522        1.09233993445357
C           -5.73377460258040       -0.32693498008733        0.92485689892166
C           -3.69975387967614        0.69157339830586       -1.23337712346229
C           -3.42387075540243        2.19429330752357       -1.09817253814838
O           -2.16327360716649        2.42817842492883       -0.52700297176693
H            2.24543233631997       -2.90671228735195       -0.62657890030469
H            1.16313243192249       -3.01538245309744        0.76226805489274
H            0.58168219727910       -3.44348663169035       -0.85084973524845
H            0.79129134433422       -1.08985506294218       -1.59028355437944
H            1.54645127803897       -0.24232011135067        1.10014505615514
H            2.80331194036434       -1.02286705913504       -2.26604477361348
H            5.05378669403556       -0.36728495736762       -2.97938090178851
H            2.56139173519552        0.97741558147954        2.19892754239414
H            4.17815942703955        2.24442295281440        3.49319759895749
H            7.02509461403955        1.93484752442534        0.31097295797435
H           -0.75887268452200        0.05876295358716        0.03066290463487
H           -0.66210927135630       -1.36660054657198        1.07454265253166
H           -1.57890540761776       -2.75364498827024       -0.81017197724821
H           -1.67345285861101       -1.30216772980908       -1.80071910153382
H           -3.13618391525339       -1.87961524994477        0.81439557609922
H           -3.85924815090973       -1.90243077697605       -0.80532349347525
H           -4.40986847782062        1.34078208126161        1.21955755956175
H           -3.88068295907242       -0.14504627113860        2.00624028411029
H           -6.33464301609499       -0.07645557177448        1.79503562173631
H           -6.22490294662221        0.08064312566940        0.04476829398721
H           -5.69611055439988       -1.40955985011686        0.83268759130752
H           -3.03548460224685        0.29494108491132       -2.00170454480682
H           -4.73650907744214        0.53560364941076       -1.56692770420296
H           -4.20936620928699        2.67693698914946       -0.49741748568639
H           -3.41954559062329        2.66282585975549       -2.08489395246676
H           -2.07942610149420        1.79419341933346        0.19912102433099
