----- Optimization -----
      -----------------------------------------------------------      
     |                   =====================                   |     
     |                           x T B                           |     
     |                   =====================                   |     
     |                         S. Grimme                         |     
     |          Mulliken Center for Theoretical Chemistry        |     
     |                    University of Bonn                     |     
      -----------------------------------------------------------      

   * xtb version 6.7.1 (edcfbbe) compiled by 'conda@3ef47c1a292c' on 2024-11-25

   xtb is free software: you can redistribute it and/or modify it under
   the terms of the GNU Lesser General Public License as published by
   the Free Software Foundation, either version 3 of the License, or
   (at your option) any later version.
   
   xtb is distributed in the hope that it will be useful,
   but WITHOUT ANY WARRANTY; without even the implied warranty of
   MERCHANTABILITY or FITNESS FOR A PARTICULAR PURPOSE.  See the
   GNU Lesser General Public License for more details.
   
   Cite this work as:
   * C. Bannwarth, E. Caldeweyher, S. Ehlert, A. Hansen, P. Pracht,
     J. Seibert, S. Spicher, S. Grimme, WIREs Comput. Mol. Sci., 2020, 11,
     e01493. DOI: 10.1002/wcms.1493
   
   for GFN2-xTB:
   * C. Bannwarth, S. Ehlert and S. Grimme., J. Chem. Theory Comput., 2019,
     15, 1652-1671. DOI: 10.1021/acs.jctc.8b01176
   for GFN1-xTB:
   * S. Grimme, C. Bannwarth, P. Shushkov, J. Chem. Theory Comput., 2017,
     13, 1989-2009. DOI: 10.1021/acs.jctc.7b00118
   for GFN0-xTB:
   * P. Pracht, E. Caldeweyher, S. Ehlert, S. Grimme, ChemRxiv, 2019, preprint.
     DOI: 10.26434/chemrxiv.8326202.v1
   for GFN-FF:
   * S. Spicher and S. Grimme, Angew. Chem. Int. Ed., 2020, 59, 15665-15673.
     DOI: 10.1002/anie.202004239
   
   for ALPB and GBSA implicit solvation:
   * S. Ehlert, M. Stahn, S. Spicher, S. Grimme, J. Chem. Theory Comput.,
     2021, 17, 4250-4261. DOI: 10.1021/acs.jctc.1c00471
   
   for ddCOSMO and CPCM-X implicit solvation:
   * M. Stahn, S. Ehlert, S. Grimme, J. Phys. Chem. A,
     2023, XX, XXXX-XXXX. DOI: 10.1021/acs.jpca.3c04382
   
   for DFT-D4:
   * E. Caldeweyher, C. Bannwarth and S. Grimme, J. Chem. Phys., 2017,
     147, 034112. DOI: 10.1063/1.4993215
   * E. Caldeweyher, S. Ehlert, A. Hansen, H. Neugebauer, S. Spicher,
     C. Bannwarth and S. Grimme, J. Chem. Phys., 2019, 150, 154122.
     DOI: 10.1063/1.5090222
   * E. Caldeweyher, J.-M. Mewes, S. Ehlert and S. Grimme, Phys. Chem. Chem. Phys.
     2020, 22, 8499-8512. DOI: 10.1039/D0CP00502A
   
   for sTDA-xTB:
   * S. Grimme and C. Bannwarth, J. Chem. Phys., 2016, 145, 054103.
     DOI: 10.1063/1.4959605
   
   in the mass-spec context:
   * V. Asgeirsson, C. Bauer and S. Grimme, Chem. Sci., 2017, 8, 4879.
     DOI: 10.1039/c7sc00601b
   * J. Koopman and S. Grimme, ACS Omega 2019, 4, 12, 15120-15133.
     DOI: 10.1021/acsomega.9b02011
   
   for metadynamics refer to:
   * S. Grimme, J. Chem. Theory Comput., 2019, 155, 2847-2862
     DOI: 10.1021/acs.jctc.9b00143
   
   for SPH calculations refer to:
   * S. Spicher and S. Grimme, J. Chem. Theory Comput., 2021, 17, 1701-1714
     DOI: 10.1021/acs.jctc.0c01306
   
   for ONIOM refer to:
   * C. Plett, A. Katbashev, S. Ehlert, S. Grimme, M. Bursch,
     Phys. Chem. Chem. Phys., 2023, 25, 17860-17868. DOI: 10.1039/D3CP02178E
   
   for DIPRO refer to:
   * J. Kohn, N. Gildemeister, S. Grimme, D. Fazzi, A. Hansen,
     J. Chem. Phys., 2023, just accepted.
   
   for PTB refer to:
   * S. Grimme, M. Mueller, A. Hansen, J. Chem. Phys., 2023, 158, 124111.
     DOI: 10.1063/5.0137838
   
   with help from (in alphabetical order)
   P. Atkinson, C. Bannwarth, F. Bohle, G. Brandenburg, E. Caldeweyher
   M. Checinski, S. Dohm, S. Ehlert, S. Ehrlich, I. Gerasimov, C. Hölzer
   A. Katbashev, J. Kohn, J. Koopman, C. Lavigne, S. Lehtola, F. März, M. Müller,
   F. Musil, H. Neugebauer, J. Pisarek, C. Plett, P. Pracht, F. Pultar,
   J. Seibert, P. Shushkov, S. Spicher, M. Stahn, M. Steiner, T. Strunk,
   J. Stückrath, T. Rose, and J. Unsleber
   
 * started run on 2025/05/15 at 16:37:10.700     
   ID    Z sym.   atoms
    1    6 C      1-3, 5-8, 10, 11, 13, 15, 16, 18-20, 22, 23
    2    8 O      4, 21, 24
    3    7 N      9, 14, 17
    4   16 S      12
    5    1 H      25-43

           -------------------------------------------------
          |                Calculation Setup                |
           -------------------------------------------------

          program call               : xtb /rds/general/user/hgt20/home/callum/QDESCP/Omeprazole_rdkit_conf_21/Omeprazole_rdkit_conf_21.xyz --opt normal --acc 1 --gfn 2 --chrg 0 --uhf 0 -P 1
          hostname                   : login-c
          coordinate file            : /rds/general/user/hgt20/home/callum/QDESCP/Omeprazole_rdkit_conf_21/Omeprazole_rdkit_conf_21.xyz
          omp threads                :                     1


           -------------------------------------------------
          |                 G F N 2 - x T B                 |
           -------------------------------------------------

        Reference                      10.1021/acs.jctc.8b01176
      * Hamiltonian:
        H0-scaling (s, p, d)           1.850000    2.230000    2.230000
        zeta-weighting                 0.500000
      * Dispersion:
        s8                             2.700000
        a1                             0.520000
        a2                             5.000000
        s9                             5.000000
      * Repulsion:
        kExp                           1.500000    1.000000
        rExp                           1.000000
      * Coulomb:
        alpha                          2.000000
        third order                    shell-resolved
        anisotropic                    true
        a3                             3.000000
        a5                             4.000000
        cn-shift                       1.200000
        cn-exp                         4.000000
        max-rad                        5.000000


          ...................................................
          :                      SETUP                      :
          :.................................................:
          :  # basis functions                 121          :
          :  # atomic orbitals                 120          :
          :  # shells                           68          :
          :  # electrons                       126          :
          :  max. iterations                   250          :
          :  Hamiltonian                  GFN2-xTB          :
          :  restarted?                      false          :
          :  GBSA solvation                  false          :
          :  PC potential                    false          :
          :  electronic temp.          300.0000000     K    :
          :  accuracy                    1.0000000          :
          :  -> integral cutoff          0.2500000E+02      :
          :  -> integral neglect         0.1000000E-07      :
          :  -> SCF convergence          0.1000000E-05 Eh   :
          :  -> wf. convergence          0.1000000E-03 e    :
          :  Broyden damping             0.4000000          :
          :  net charge                          0          :
          :  unpaired electrons                  0          :
          ...................................................

 iter      E             dE          RMSdq      gap      omega  full diag
   1    -71.0434132 -0.710434E+02  0.454E+00    3.07       0.0  T
   2    -71.1576270 -0.114214E+00  0.267E+00    2.57       1.0  T
   3    -71.1558160  0.181099E-02  0.128E+00    2.59       1.0  T
   4    -71.1693373 -0.135212E-01  0.500E-01    2.46       1.0  T
   5    -71.1766348 -0.729755E-02  0.167E-01    2.50       1.0  T
   6    -71.1768902 -0.255425E-03  0.739E-02    2.49       1.0  T
   7    -71.1769517 -0.615175E-04  0.308E-02    2.50       1.0  T
   8    -71.1769607 -0.896423E-05  0.194E-02    2.49       1.0  T
   9    -71.1769632 -0.252185E-05  0.798E-03    2.49       1.9  T
  10    -71.1769640 -0.749764E-06  0.306E-03    2.49       5.0  T
  11    -71.1769640 -0.538448E-07  0.167E-03    2.49       9.1  T
  12    -71.1769641 -0.191611E-07  0.683E-04    2.49      22.3  T
  13    -71.1769641 -0.667330E-08  0.256E-04    2.49      59.6  T

   *** convergence criteria satisfied after 13 iterations ***

         #    Occupation            Energy/Eh            Energy/eV
      -------------------------------------------------------------
         1        2.0000           -0.7539033             -20.5148
       ...           ...                  ...                  ...
        57        2.0000           -0.4249049             -11.5623
        58        2.0000           -0.4060104             -11.0481
        59        2.0000           -0.4027270             -10.9588
        60        2.0000           -0.3891548             -10.5894
        61        2.0000           -0.3804747             -10.3532
        62        2.0000           -0.3741301             -10.1806
        63        2.0000           -0.3686696             -10.0320 (HOMO)
        64                         -0.2770794              -7.5397 (LUMO)
        65                         -0.2594489              -7.0600
        66                         -0.2483521              -6.7580
        67                         -0.2017289              -5.4893
        68                         -0.1928558              -5.2479
       ...                                ...                  ...
       120                          0.8118439              22.0914
      -------------------------------------------------------------
                  HL-Gap            0.0915903 Eh            2.4923 eV
             Fermi-level           -0.3228745 Eh           -8.7859 eV

 SCC (total)                   0 d,  0 h,  0 min,  0.090 sec
 SCC setup                      ...        0 min,  0.000 sec (  0.443%)
 Dispersion                     ...        0 min,  0.000 sec (  0.540%)
 classical contributions        ...        0 min,  0.000 sec (  0.170%)
 integral evaluation            ...        0 min,  0.008 sec (  9.291%)
 iterations                     ...        0 min,  0.032 sec ( 35.021%)
 molecular gradient             ...        0 min,  0.049 sec ( 54.208%)
 printout                       ...        0 min,  0.000 sec (  0.315%)

         :::::::::::::::::::::::::::::::::::::::::::::::::::::
         ::                     SUMMARY                     ::
         :::::::::::::::::::::::::::::::::::::::::::::::::::::
         :: total energy             -70.296341481061 Eh    ::
         :: gradient norm              0.110297938165 Eh/a0 ::
         :: HOMO-LUMO gap              2.492297818227 eV    ::
         ::.................................................::
         :: SCC energy               -71.177103129977 Eh    ::
         :: -> isotropic ES            0.094257004264 Eh    ::
         :: -> anisotropic ES          0.007106754866 Eh    ::
         :: -> anisotropic XC          0.030920211691 Eh    ::
         :: -> dispersion             -0.048039212828 Eh    ::
         :: repulsion energy           0.880761648915 Eh    ::
         :: add. restraining           0.000000000000 Eh    ::
         :: total charge               0.000000000000 e     ::
         :::::::::::::::::::::::::::::::::::::::::::::::::::::

      ----------------------------------------------------------- 
     |                   =====================                   |
     |                        A N C O P T                        |
     |                   =====================                   |
     |               Approximate Normal Coordinate               |
     |                Rational Function Optimizer                |
      ----------------------------------------------------------- 
      ----------------------------------------------------------- 
     |                   =====================                   |
     |                        A N C O P T                        |
     |                   =====================                   |
     |               Approximate Normal Coordinate               |
     |                Rational Function Optimizer                |
      ----------------------------------------------------------- 

          ...................................................
          :                      SETUP                      :
          :.................................................:
          :   optimization level            normal          :
          :   max. optcycles                   200          :
          :   ANC micro-cycles                  20          :
          :   degrees of freedom               123          :
          :.................................................:
          :   RF solver                   davidson          :
          :   write xtbopt.log                true          :
          :   linear?                        false          :
          :   energy convergence         0.5000000E-05 Eh   :
          :   grad. convergence          0.1000000E-02 Eh/α :
          :   maxmium RF displ.          1.0000000          :
          :   Hlow (freq-cutoff)         0.1000000E-01      :
          :   Hmax (freq-cutoff)         5.0000000          :
          :   S6 in model hess.         20.0000000          :
          ...................................................

generating ANC from exact Hessian ...
Using Lindh-Hessian (1995)
 Shifting diagonal of input Hessian by    9.8002604324726027E-003
 Lowest  eigenvalues of input Hessian
    0.000000    0.000000    0.000000    0.000000    0.000000    0.000000
    0.010000    0.010236    0.010408    0.010813    0.011722    0.012246
    0.012776    0.013036    0.013939    0.014195    0.015518    0.015991
 Highest eigenvalues
    1.979081    2.031128    2.034514    2.101402    2.227409    2.271787


........................................................................
.............................. CYCLE    1 ..............................
........................................................................

 iter      E             dE          RMSdq      gap      omega  full diag
   1    -71.1769641 -0.711770E+02  0.100E-04    2.49       0.0  T
   2    -71.1769641 -0.626414E-10  0.612E-05    2.49     249.3  T
   3    -71.1769641 -0.297575E-10  0.430E-05    2.49     354.8  T
     SCC iter.                  ...        0 min,  0.008 sec
     gradient                   ...        0 min,  0.025 sec
 * total energy  :   -70.2963415 Eh     change       -0.1316465E-08 Eh
   gradient norm :     0.1102984 Eh/α   predicted     0.0000000E+00 (-100.00%)
   displ. norm   :     0.2819226 α      lambda       -0.1468313E-01
   maximum displ.:     0.0761949 α      in ANC's #40, #37, #31, ...

........................................................................
.............................. CYCLE    2 ..............................
........................................................................

 iter      E             dE          RMSdq      gap      omega  full diag
   1    -71.2131671 -0.712132E+02  0.205E-01    2.61       0.0  T
   2    -71.2133024 -0.135321E-03  0.134E-01    2.61       1.0  T
   3    -71.2132648  0.376207E-04  0.609E-02    2.61       1.0  T
   4    -71.2133488 -0.840134E-04  0.183E-02    2.61       1.0  T
   5    -71.2133569 -0.813914E-05  0.727E-03    2.62       2.1  T
   6    -71.2133570 -0.105368E-06  0.350E-03    2.62       4.4  T
   7    -71.2133572 -0.201404E-06  0.159E-03    2.62       9.6  T
   8    -71.2133572 -0.251956E-07  0.837E-04    2.62      18.2  T
   9    -71.2133572 -0.419044E-08  0.286E-04    2.62      53.3  T
     SCC iter.                  ...        0 min,  0.021 sec
     gradient                   ...        0 min,  0.025 sec
 * total energy  :   -70.3066646 Eh     change       -0.1032310E-01 Eh
   gradient norm :     0.0555725 Eh/α   predicted    -0.7930699E-02 ( -23.18%)
   displ. norm   :     0.2424218 α      lambda       -0.5275406E-02
   maximum displ.:     0.0882213 α      in ANC's #13, #9, #17, ...

........................................................................
.............................. CYCLE    3 ..............................
........................................................................

 iter      E             dE          RMSdq      gap      omega  full diag
   1    -71.2355521 -0.712356E+02  0.155E-01    2.67       0.0  T
   2    -71.2357191 -0.167007E-03  0.106E-01    2.68       1.0  T
   3    -71.2357460 -0.268850E-04  0.551E-02    2.68       1.0  T
   4    -71.2357476 -0.167148E-05  0.147E-02    2.68       1.0  T
   5    -71.2357535 -0.587140E-05  0.503E-03    2.68       3.0  T
   6    -71.2357537 -0.204984E-06  0.298E-03    2.68       5.1  T
   7    -71.2357538 -0.554513E-07  0.109E-03    2.68      14.0  T
   8    -71.2357538 -0.172330E-07  0.633E-04    2.68      24.1  T
   9    -71.2357538 -0.232410E-08  0.193E-04    2.68      78.9  T
     SCC iter.                  ...        0 min,  0.052 sec
     gradient                   ...        0 min,  0.025 sec
 * total energy  :   -70.3097007 Eh     change       -0.3036148E-02 Eh
   gradient norm :     0.0177518 Eh/α   predicted    -0.2793827E-02 (  -7.98%)
   displ. norm   :     0.1634203 α      lambda       -0.6986871E-03
   maximum displ.:     0.0737734 α      in ANC's #13, #6, #11, ...

........................................................................
.............................. CYCLE    4 ..............................
........................................................................

 iter      E             dE          RMSdq      gap      omega  full diag
   1    -71.2365347 -0.712365E+02  0.638E-02    2.67       0.0  T
   2    -71.2365587 -0.239092E-04  0.411E-02    2.67       1.0  T
   3    -71.2365617 -0.307313E-05  0.221E-02    2.67       1.0  T
   4    -71.2365613  0.474718E-06  0.697E-03    2.67       2.2  T
   5    -71.2365629 -0.161364E-05  0.249E-03    2.67       6.1  T
   6    -71.2365630 -0.968670E-07  0.120E-03    2.67      12.7  T
   7    -71.2365630 -0.640493E-08  0.363E-04    2.67      42.0  T
   8    -71.2365630 -0.152063E-08  0.210E-04    2.67      72.5  T
     SCC iter.                  ...        0 min,  0.052 sec
     gradient                   ...        0 min,  0.026 sec
 * total energy  :   -70.3102099 Eh     change       -0.5091649E-03 Eh
   gradient norm :     0.0097382 Eh/α   predicted    -0.3587180E-03 ( -29.55%)
   displ. norm   :     0.2118456 α      lambda       -0.4685113E-03
   maximum displ.:     0.1049420 α      in ANC's #6, #11, #13, ...

........................................................................
.............................. CYCLE    5 ..............................
........................................................................

 iter      E             dE          RMSdq      gap      omega  full diag
   1    -71.2349075 -0.712349E+02  0.676E-02    2.65       0.0  T
   2    -71.2349235 -0.160649E-04  0.415E-02    2.65       1.0  T
   3    -71.2349245 -0.966122E-06  0.213E-02    2.64       1.0  T
   4    -71.2349263 -0.183689E-05  0.732E-03    2.64       2.1  T
   5    -71.2349282 -0.189229E-05  0.253E-03    2.64       6.0  T
   6    -71.2349283 -0.557537E-07  0.105E-03    2.64      14.5  T
   7    -71.2349283 -0.574130E-08  0.394E-04    2.64      38.7  T
   8    -71.2349283 -0.143733E-08  0.249E-04    2.64      61.2  T
     SCC iter.                  ...        0 min,  0.018 sec
     gradient                   ...        0 min,  0.065 sec
 * total energy  :   -70.3105021 Eh     change       -0.2921743E-03 Eh
   gradient norm :     0.0057145 Eh/α   predicted    -0.2448302E-03 ( -16.20%)
   displ. norm   :     0.1261493 α      lambda       -0.1193250E-03
   maximum displ.:     0.0754731 α      in ANC's #6, #11, #13, ...

........................................................................
.............................. CYCLE    6 ..............................
........................................................................

 iter      E             dE          RMSdq      gap      omega  full diag
   1    -71.2342777 -0.712343E+02  0.303E-02    2.64       0.0  T
   2    -71.2342785 -0.770315E-06  0.176E-02    2.64       1.0  T
   3    -71.2342770  0.152991E-05  0.768E-03    2.64       2.0  T
   4    -71.2342790 -0.198986E-05  0.183E-03    2.64       8.3  T
   5    -71.2342790 -0.309465E-07  0.935E-04    2.64      16.3  T
   6    -71.2342790 -0.112099E-07  0.297E-04    2.64      51.3  T
     SCC iter.                  ...        0 min,  0.014 sec
     gradient                   ...        0 min,  0.065 sec
 * total energy  :   -70.3105902 Eh     change       -0.8809483E-04 Eh
   gradient norm :     0.0045483 Eh/α   predicted    -0.6061911E-04 ( -31.19%)
   displ. norm   :     0.1508183 α      lambda       -0.1050465E-03
   maximum displ.:     0.0926975 α      in ANC's #6, #11, #7, ...

........................................................................
.............................. CYCLE    7 ..............................
........................................................................

 iter      E             dE          RMSdq      gap      omega  full diag
   1    -71.2341502 -0.712342E+02  0.326E-02    2.63       0.0  T
   2    -71.2341509 -0.739061E-06  0.182E-02    2.63       1.0  T
   3    -71.2341502  0.696237E-06  0.545E-03    2.63       2.8  T
   4    -71.2341510 -0.833735E-06  0.217E-03    2.63       7.0  T
   5    -71.2341512 -0.113964E-06  0.754E-04    2.63      20.2  T
   6    -71.2341512 -0.305809E-08  0.330E-04    2.63      46.2  T
     SCC iter.                  ...        0 min,  0.014 sec
     gradient                   ...        0 min,  0.070 sec
 * total energy  :   -70.3106636 Eh     change       -0.7343280E-04 Eh
   gradient norm :     0.0038104 Eh/α   predicted    -0.5372549E-04 ( -26.84%)
   displ. norm   :     0.1225562 α      lambda       -0.6156090E-04
   maximum displ.:     0.0709966 α      in ANC's #6, #4, #11, ...

........................................................................
.............................. CYCLE    8 ..............................
........................................................................

 iter      E             dE          RMSdq      gap      omega  full diag
   1    -71.2344112 -0.712344E+02  0.252E-02    2.64       0.0  T
   2    -71.2344117 -0.579329E-06  0.142E-02    2.64       1.1  T
   3    -71.2344116  0.106031E-06  0.397E-03    2.64       3.8  T
   4    -71.2344118 -0.133209E-06  0.152E-03    2.64      10.0  T
   5    -71.2344118 -0.620882E-07  0.571E-04    2.64      26.7  T
   6    -71.2344118 -0.576921E-08  0.220E-04    2.64      69.3  T
     SCC iter.                  ...        0 min,  0.014 sec
     gradient                   ...        0 min,  0.025 sec
 * total energy  :   -70.3107097 Eh     change       -0.4604943E-04 Eh
   gradient norm :     0.0036525 Eh/α   predicted    -0.3124336E-04 ( -32.15%)
   displ. norm   :     0.1474382 α      lambda       -0.6021020E-04
   maximum displ.:     0.0772721 α      in ANC's #6, #16, #4, ...

........................................................................
.............................. CYCLE    9 ..............................
........................................................................

 iter      E             dE          RMSdq      gap      omega  full diag
   1    -71.2347571 -0.712348E+02  0.297E-02    2.64       0.0  T
   2    -71.2347576 -0.515024E-06  0.171E-02    2.64       1.0  T
   3    -71.2347573  0.298600E-06  0.442E-03    2.64       3.4  T
   4    -71.2347577 -0.355981E-06  0.168E-03    2.64       9.1  T
   5    -71.2347578 -0.701243E-07  0.543E-04    2.64      28.1  T
   6    -71.2347578 -0.261427E-08  0.211E-04    2.64      72.3  T
     SCC iter.                  ...        0 min,  0.053 sec
     gradient                   ...        0 min,  0.026 sec
 * total energy  :   -70.3107520 Eh     change       -0.4232558E-04 Eh
   gradient norm :     0.0033196 Eh/α   predicted    -0.3076075E-04 ( -27.32%)
   displ. norm   :     0.1173029 α      lambda       -0.3982292E-04
   maximum displ.:     0.0543868 α      in ANC's #16, #4, #6, ...

........................................................................
.............................. CYCLE   10 ..............................
........................................................................

 iter      E             dE          RMSdq      gap      omega  full diag
   1    -71.2351000 -0.712351E+02  0.247E-02    2.64       0.0  T
   2    -71.2351002 -0.205997E-06  0.144E-02    2.64       1.1  T
   3    -71.2350999  0.371868E-06  0.360E-03    2.64       4.2  T
   4    -71.2351003 -0.458314E-06  0.957E-04    2.64      15.9  T
   5    -71.2351003 -0.987805E-08  0.353E-04    2.64      43.2  T
     SCC iter.                  ...        0 min,  0.012 sec
     gradient                   ...        0 min,  0.065 sec
 * total energy  :   -70.3107809 Eh     change       -0.2891071E-04 Eh
   gradient norm :     0.0025040 Eh/α   predicted    -0.2021930E-04 ( -30.06%)
   displ. norm   :     0.1062099 α      lambda       -0.3228230E-04
   maximum displ.:     0.0553898 α      in ANC's #16, #4, #3, ...

........................................................................
.............................. CYCLE   11 ..............................
........................................................................

 iter      E             dE          RMSdq      gap      omega  full diag
   1    -71.2353503 -0.712354E+02  0.240E-02    2.65       0.0  T
   2    -71.2353505 -0.242427E-06  0.139E-02    2.65       1.1  T
   3    -71.2353503  0.213977E-06  0.306E-03    2.65       5.0  T
   4    -71.2353506 -0.262595E-06  0.113E-03    2.65      13.5  T
   5    -71.2353506 -0.310818E-07  0.378E-04    2.65      40.3  T
   6    -71.2353506 -0.307850E-09  0.170E-04    2.65      89.5  T
     SCC iter.                  ...        0 min,  0.014 sec
     gradient                   ...        0 min,  0.065 sec
 * total energy  :   -70.3108044 Eh     change       -0.2347032E-04 Eh
   gradient norm :     0.0019414 Eh/α   predicted    -0.1632497E-04 ( -30.44%)
   displ. norm   :     0.1638246 α      lambda       -0.2744538E-04
   maximum displ.:     0.0853324 α      in ANC's #16, #4, #2, ...

........................................................................
.............................. CYCLE   12 ..............................
........................................................................

 iter      E             dE          RMSdq      gap      omega  full diag
   1    -71.2352951 -0.712353E+02  0.374E-02    2.65       0.0  T
   2    -71.2352958 -0.741202E-06  0.216E-02    2.65       1.0  T
   3    -71.2352957  0.156201E-06  0.417E-03    2.65       3.7  T
   4    -71.2352959 -0.231285E-06  0.172E-03    2.65       8.9  T
   5    -71.2352960 -0.800043E-07  0.624E-04    2.65      24.4  T
   6    -71.2352960 -0.927983E-09  0.269E-04    2.65      56.7  T
     SCC iter.                  ...        0 min,  0.014 sec
     gradient                   ...        0 min,  0.070 sec
 * total energy  :   -70.3108300 Eh     change       -0.2566248E-04 Eh
   gradient norm :     0.0030778 Eh/α   predicted    -0.1389017E-04 ( -45.87%)
   displ. norm   :     0.0723723 α      lambda       -0.2038882E-04
   maximum displ.:     0.0324091 α      in ANC's #16, #2, #3, ...

........................................................................
.............................. CYCLE   13 ..............................
........................................................................

 iter      E             dE          RMSdq      gap      omega  full diag
   1    -71.2353857 -0.712354E+02  0.165E-02    2.65       0.0  T
   2    -71.2353858 -0.154888E-06  0.961E-03    2.65       1.6  T
   3    -71.2353858  0.167936E-07  0.159E-03    2.65       9.6  T
   4    -71.2353858 -0.409219E-07  0.666E-04    2.65      22.9  T
   5    -71.2353858 -0.875499E-08  0.294E-04    2.65      51.8  T
     SCC iter.                  ...        0 min,  0.012 sec
     gradient                   ...        0 min,  0.026 sec
 * total energy  :   -70.3108478 Eh     change       -0.1782080E-04 Eh
   gradient norm :     0.0028302 Eh/α   predicted    -0.1024887E-04 ( -42.49%)
   displ. norm   :     0.2307116 α      lambda       -0.5443319E-04
   maximum displ.:     0.1040875 α      in ANC's #16, #2, #3, ...

........................................................................
.............................. CYCLE   14 ..............................
........................................................................

 iter      E             dE          RMSdq      gap      omega  full diag
   1    -71.2346001 -0.712346E+02  0.511E-02    2.65       0.0  T
   2    -71.2346012 -0.109962E-05  0.298E-02    2.66       1.0  T
   3    -71.2346011  0.178173E-06  0.462E-03    2.66       3.3  T
   4    -71.2346015 -0.386970E-06  0.218E-03    2.66       7.0  T
   5    -71.2346016 -0.936133E-07  0.802E-04    2.66      19.0  T
   6    -71.2346016 -0.748234E-08  0.387E-04    2.66      39.4  T
     SCC iter.                  ...        0 min,  0.053 sec
     gradient                   ...        0 min,  0.026 sec
 * total energy  :   -70.3108805 Eh     change       -0.3268806E-04 Eh
   gradient norm :     0.0025448 Eh/α   predicted    -0.2867192E-04 ( -12.29%)
   displ. norm   :     0.0737076 α      lambda       -0.1894499E-04
   maximum displ.:     0.0326620 α      in ANC's #1, #6, #2, ...

........................................................................
.............................. CYCLE   15 ..............................
........................................................................

 iter      E             dE          RMSdq      gap      omega  full diag
   1    -71.2355265 -0.712355E+02  0.180E-02    2.66       0.0  T
   2    -71.2355269 -0.336232E-06  0.103E-02    2.67       1.5  T
   3    -71.2355268  0.214444E-07  0.215E-03    2.67       7.1  T
   4    -71.2355269 -0.509756E-07  0.103E-03    2.67      14.8  T
   5    -71.2355269 -0.246313E-07  0.379E-04    2.67      40.3  T
   6    -71.2355269 -0.126619E-08  0.151E-04    2.67     101.2  T
     SCC iter.                  ...        0 min,  0.014 sec
     gradient                   ...        0 min,  0.066 sec
 * total energy  :   -70.3108906 Eh     change       -0.1003421E-04 Eh
   gradient norm :     0.0015532 Eh/α   predicted    -0.9524951E-05 (  -5.08%)
   displ. norm   :     0.0990811 α      lambda       -0.8375310E-05
   maximum displ.:     0.0417610 α      in ANC's #1, #2, #16, ...

........................................................................
.............................. CYCLE   16 ..............................
........................................................................

 iter      E             dE          RMSdq      gap      omega  full diag
   1    -71.2353021 -0.712353E+02  0.215E-02    2.67       0.0  T
   2    -71.2353023 -0.226751E-06  0.123E-02    2.67       1.2  T
   3    -71.2353023  0.218276E-07  0.220E-03    2.67       6.9  T
   4    -71.2353023 -0.500967E-07  0.111E-03    2.67      13.7  T
   5    -71.2353024 -0.242712E-07  0.369E-04    2.67      41.4  T
   6    -71.2353024 -0.198490E-08  0.142E-04    2.67     107.1  T
     SCC iter.                  ...        0 min,  0.014 sec
     gradient                   ...        0 min,  0.069 sec
 * total energy  :   -70.3108978 Eh     change       -0.7248418E-05 Eh
   gradient norm :     0.0009960 Eh/α   predicted    -0.4213192E-05 ( -41.87%)
   displ. norm   :     0.0342976 α      lambda       -0.5387893E-05
   maximum displ.:     0.0182330 α      in ANC's #1, #9, #4, ...

........................................................................
.............................. CYCLE   17 ..............................
........................................................................

 iter      E             dE          RMSdq      gap      omega  full diag
   1    -71.2357771 -0.712358E+02  0.885E-03    2.67       0.0  T
   2    -71.2357772 -0.814453E-07  0.518E-03    2.67       2.9  T
   3    -71.2357771  0.426297E-07  0.139E-03    2.67      11.0  T
   4    -71.2357772 -0.566566E-07  0.437E-04    2.67      34.9  T
   5    -71.2357772 -0.448176E-08  0.210E-04    2.67      72.7  T
     SCC iter.                  ...        0 min,  0.012 sec
     gradient                   ...        0 min,  0.071 sec
 * total energy  :   -70.3109028 Eh     change       -0.5028278E-05 Eh
   gradient norm :     0.0010401 Eh/α   predicted    -0.2697028E-05 ( -46.36%)
   displ. norm   :     0.0381603 α      lambda       -0.3210010E-05
   maximum displ.:     0.0236568 α      in ANC's #1, #2, #14, ...

........................................................................
.............................. CYCLE   18 ..............................
........................................................................

 iter      E             dE          RMSdq      gap      omega  full diag
   1    -71.2355595 -0.712356E+02  0.857E-03    2.67       0.0  T
   2    -71.2355595 -0.304683E-07  0.483E-03    2.67       3.2  T
   3    -71.2355595  0.117921E-07  0.106E-03    2.67      14.4  T
   4    -71.2355595 -0.125913E-07  0.553E-04    2.67      27.6  T
   5    -71.2355595 -0.814755E-08  0.140E-04    2.67     108.9  T
     SCC iter.                  ...        0 min,  0.012 sec
     gradient                   ...        0 min,  0.025 sec
 * total energy  :   -70.3109065 Eh     change       -0.3621750E-05 Eh
   gradient norm :     0.0008276 Eh/α   predicted    -0.1607590E-05 ( -55.61%)
   displ. norm   :     0.0521917 α      lambda       -0.3288789E-05
   maximum displ.:     0.0332453 α      in ANC's #1, #2, #6, ...

   *** GEOMETRY OPTIMIZATION CONVERGED AFTER 18 ITERATIONS ***

------------------------------------------------------------------------
 total energy gain   :        -0.0145650 Eh       -9.1397 kcal/mol
 total RMSD          :         0.2516459 a0        0.1332 Å
 total power (kW/mol):        -2.1244639 (step)  -26.5526 (real)
------------------------------------------------------------------------

 ANCopt (total)                0 d,  0 h,  0 min,  1.440 sec
 optimizer setup                ...        0 min,  0.000 sec (  0.007%)
 model hessian                  ...        0 min,  0.010 sec (  0.693%)
 ANC generation                 ...        0 min,  0.002 sec (  0.110%)
 coordinate transformation      ...        0 min,  0.000 sec (  0.010%)
 single point calculation       ...        0 min,  1.394 sec ( 96.779%)
 optimization log               ...        0 min,  0.031 sec (  2.148%)
 hessian update                 ...        0 min,  0.000 sec (  0.016%)
 rational function              ...        0 min,  0.001 sec (  0.087%)

================
 final structure:
================
43
 xtb: 6.7.1 (edcfbbe)
C           -3.84686289197937       -2.58090832760201       -1.88599368274802
C           -3.17673336997882       -1.47601995317202       -1.13358277489759
C           -3.73930941819448       -0.19716862798317       -1.04789039058890
O           -4.92668784658841        0.07624350328394       -1.69695962892054
C           -6.07935387583304       -0.17255708519579       -0.91776316362859
C           -3.07759987746585        0.81769765488870       -0.35300919932300
C           -3.62900031996018        2.20791500089504       -0.31365512150600
C           -1.95465963060472       -1.66300958971557       -0.50563141268556
N           -1.33362988817835       -0.72424109500177        0.18401883106524
C           -1.87582020758033        0.48754879773932        0.28301095201391
C           -1.10964822320486        1.48817629855963        1.06353582454867
S            0.06099255938172        2.44025277474030       -0.09919106705584
C            1.47653052986424        1.36713136270771        0.22407676078732
N            2.70136297887212        1.79391457959994        0.32478626562385
C            3.46240092129676        0.66764850760591        0.48699041793215
C            2.62555592111633       -0.47321020706321        0.45701387612577
N            1.35522948235580        0.00962015089134        0.27407016723687
C            3.14457694736595       -1.75130388728693        0.60483231069701
C            4.50353768718066       -1.85973686540393        0.78122680847021
C            5.34674506966010       -0.73080768827620        0.81495408608701
O            6.66826546806783       -1.01997780901306        1.00360194533021
C            7.57861181630262        0.04996921137842        1.06817617310018
C            4.83801362769811        0.54603049569970        0.66711326564122
O            0.31515414714098        3.70935665733140        0.56655402999739
H           -4.50357608633878       -2.16955881659274       -2.64882807655006
H           -4.44285480348711       -3.19445717313355       -1.20905294440650
H           -3.10607865708586       -3.22310774152396       -2.35641735039202
H           -6.15120941287810       -1.22712529002238       -0.63261364876049
H           -6.08747654405734        0.44093907154484       -0.01057130650498
H           -6.92873085130580        0.09288194706303       -1.54408543629496
H           -4.44747424222908        2.29948831193347       -1.02262187090256
H           -3.99830007724600        2.45062866142509        0.68305399989615
H           -2.85642814166248        2.92877355096292       -0.57452409841282
H           -1.44865088806101       -2.61842304259938       -0.55532272805781
H           -0.51065083268329        1.02338044193460        1.84180814616925
H           -1.74204908520621        2.26188823928767        1.48974603039744
H            0.47265262181294       -0.50791389198613        0.25117606955499
H            2.50944276908324       -2.62333218258625        0.58355133605040
H            4.96794453270594       -2.82539314150012        0.90254083633582
H            7.59642984460534        0.61933567257744        0.13320984548127
H            8.55496748018621       -0.40297584370373        1.23351878078745
H            7.34637401455600        0.72492467885562        1.89833365668786
H            5.44799675255619        1.43248268845436        0.68671348562002

 Bond Distances (Angstroems)
 ---------------------------
C1-C2=1.4953         C1-H25=1.0874        C1-H26=1.0908        C1-H27=1.0874        C2-C1=1.4953         C2-C3=1.3997         
C2-C8=1.3866         C3-C2=1.3997         C3-O4=1.3805         C3-C6=1.3967         O4-C3=1.3805         O4-C5=1.4134         
C5-O4=1.4134         C5-H28=1.0948        C5-H29=1.0952        C5-H30=1.0882        C6-C3=1.3967         C6-C7=1.4961         
C6-C10=1.3992        C7-C6=1.4961         C7-H31=1.0867        C7-H32=1.0903        C7-H33=1.0884        C8-C2=1.3866         
C8-N9=1.3201         C8-H34=1.0823        N9-C8=1.3201         N9-C10=1.3312        C10-C6=1.3992        C10-N9=1.3312        
C10-C11=1.4824       C11-C10=1.4824       C11-S12=1.9049       C11-H35=1.0865       C11-H36=1.0864       S12-C11=1.9049       
S12-C13=1.8055       S12-O24=1.4555       C13-S12=1.8055       C13-N14=1.3010       C13-N17=1.3638       N14-C13=1.3010       
N14-C15=1.3689       C15-N14=1.3689       C15-C16=1.4152       C15-C23=1.3927       C16-C15=1.4152       C16-N17=1.3712       
C16-C18=1.3874       N17-C13=1.3638       N17-C16=1.3712       N17-H37=1.0234       C18-C16=1.3874       C18-C19=1.3746       
C18-H38=1.0790       C19-C18=1.3746       C19-C20=1.4095       C19-H39=1.0784       C20-C19=1.4095       C20-O21=1.3659       
C20-C23=1.3824       O21-C20=1.3659       O21-C22=1.4063       C22-O21=1.4063       C22-H40=1.0948       C22-H41=1.0889       
C22-H42=1.0948       C23-C15=1.3927       C23-C20=1.3824       C23-H43=1.0762       O24-S12=1.4555       H25-C1=1.0874        
H26-C1=1.0908        H27-C1=1.0874        H28-C5=1.0948        H29-C5=1.0952        H30-C5=1.0882        H31-C7=1.0867        
H32-C7=1.0903        H33-C7=1.0884        H34-C8=1.0823        H35-C11=1.0865       H36-C11=1.0864       H37-N17=1.0234       
H38-C18=1.0790       H39-C19=1.0784       H40-C22=1.0948       H41-C22=1.0889       H42-C22=1.0948       H43-C23=1.0762       
 C  H  Rav=1.0876 sigma=0.0056  Rmin=1.0762  Rmax=1.0952    18
 C  C  Rav=1.4168 sigma=0.0422  Rmin=1.3746  Rmax=1.4961    13
 N  H  Rav=1.0234 sigma=0.0000  Rmin=1.0234  Rmax=1.0234     1
 N  C  Rav=1.3427 sigma=0.0269  Rmin=1.3010  Rmax=1.3712     6
 O  C  Rav=1.3915 sigma=0.0192  Rmin=1.3659  Rmax=1.4134     4
 S  C  Rav=1.8552 sigma=0.0497  Rmin=1.8055  Rmax=1.9049     2
 S  O  Rav=1.4555 sigma=0.0000  Rmin=1.4555  Rmax=1.4555     1

 selected bond angles (degree)
 --------------------
H25-C1-C2=110.13               H26-C1-C2=110.38               H26-C1-H25=108.55              H27-C1-C2=110.41               
H27-C1-H25=109.35              H27-C1-H26=107.97              C3-C2-C1=121.72                C8-C2-C1=121.55                
C8-C2-C3=116.72                O4-C3-C2=119.86                C6-C3-C2=120.26                C6-C3-O4=119.83                
C5-O4-C3=114.04                H28-C5-O4=111.51               H29-C5-O4=111.35               H29-C5-H28=108.87              
H30-C5-O4=106.04               H30-C5-H28=109.49              H30-C5-H29=109.53              C7-C6-C3=120.91                
C10-C6-C3=117.49               C10-C6-C7=121.59               H31-C7-C6=109.80               H32-C7-C6=110.84               
H32-C7-H31=108.82              H33-C7-C6=110.34               H33-C7-H31=108.81              H33-C7-H32=108.19              
N9-C8-C2=123.73                H34-C8-C2=120.68               H34-C8-N9=115.58               C10-N9-C8=119.64               
N9-C10-C6=122.06               C11-C10-C6=121.60              C11-C10-N9=116.30              

 selected dihedral angles (degree)
 ---------------------------------
C3-C2-C1-H25= 24.57           C3-C2-C1-H26=264.73           C3-C2-C1-H27=145.43           C8-C2-C1-H25=205.71           
C8-C2-C1-H26= 85.87           C8-C2-C1-H27=326.57           O4-C3-C2-C1=358.36            O4-C3-C2-C8=177.27            
C6-C3-C2-C1=180.92            C6-C3-C2-C8=359.83            C5-O4-C3-C2= 89.85            C5-O4-C3-C6=267.30            
H28-C5-O4-C3=298.56           H29-C5-O4-C3= 60.38           H30-C5-O4-C3=179.45           C7-C6-C3-C2=176.71            
C7-C6-C3-O4=359.27            C10-C6-C3-C2=357.66           C10-C6-C3-O4=180.22           H31-C7-C6-C3=349.68           
H31-C7-C6-C10=168.69          H32-C7-C6-C3=109.93           H32-C7-C6-C10=288.94          H33-C7-C6-C3=229.75           
H33-C7-C6-C10= 48.76          N9-C8-C2-C1=180.92            N9-C8-C2-C3=  2.01            H34-C8-C2-C1=  0.67           
H34-C8-C2-C3=181.75           C10-N9-C8-C2=358.89           C10-N9-C8-H34=179.13          N9-C10-C6-C3=  3.36           
N9-C10-C6-C7=184.32           C11-C10-C6-C3=180.99          C11-C10-C6-C7=  1.94          C6-C10-N9-C8=358.31           
C11-C10-N9-C8=180.57          
           -------------------------------------------------
          |                Final Singlepoint                |
           -------------------------------------------------

          ...................................................
          :                      SETUP                      :
          :.................................................:
          :  # basis functions                 121          :
          :  # atomic orbitals                 120          :
          :  # shells                           68          :
          :  # electrons                       126          :
          :  max. iterations                   250          :
          :  Hamiltonian                  GFN2-xTB          :
          :  restarted?                      false          :
          :  GBSA solvation                  false          :
          :  PC potential                    false          :
          :  electronic temp.          300.0000000     K    :
          :  accuracy                    1.0000000          :
          :  -> integral cutoff          0.2500000E+02      :
          :  -> integral neglect         0.1000000E-07      :
          :  -> SCF convergence          0.1000000E-05 Eh   :
          :  -> wf. convergence          0.1000000E-03 e    :
          :  Broyden damping             0.4000000          :
          :  net charge                          0          :
          :  unpaired electrons                  0          :
          ...................................................

 iter      E             dE          RMSdq      gap      omega  full diag
   1    -71.2355595 -0.712356E+02  0.580E-05    2.67       0.0  T
   2    -71.2355595 -0.395914E-10  0.363E-05    2.67     419.9  T
   3    -71.2355595 -0.311360E-10  0.214E-05    2.67     711.9  T

   *** convergence criteria satisfied after 3 iterations ***

         #    Occupation            Energy/Eh            Energy/eV
      -------------------------------------------------------------
         1        2.0000           -0.7574244             -20.6106
       ...           ...                  ...                  ...
        57        2.0000           -0.4214652             -11.4687
        58        2.0000           -0.4054052             -11.0316
        59        2.0000           -0.3989476             -10.8559
        60        2.0000           -0.3922388             -10.6734
        61        2.0000           -0.3828320             -10.4174
        62        2.0000           -0.3760222             -10.2321
        63        2.0000           -0.3673864              -9.9971 (HOMO)
        64                         -0.2693467              -7.3293 (LUMO)
        65                         -0.2570645              -6.9951
        66                         -0.2434306              -6.6241
        67                         -0.2044275              -5.5628
        68                         -0.1952060              -5.3118
       ...                                ...                  ...
       120                          0.9431063              25.6632
      -------------------------------------------------------------
                  HL-Gap            0.0980396 Eh            2.6678 eV
             Fermi-level           -0.3183666 Eh           -8.6632 eV

 SCC (total)                   0 d,  0 h,  0 min,  0.080 sec
 SCC setup                      ...        0 min,  0.000 sec (  0.395%)
 Dispersion                     ...        0 min,  0.000 sec (  0.422%)
 classical contributions        ...        0 min,  0.000 sec (  0.181%)
 integral evaluation            ...        0 min,  0.046 sec ( 57.950%)
 iterations                     ...        0 min,  0.007 sec (  8.832%)
 molecular gradient             ...        0 min,  0.025 sec ( 32.016%)
 printout                       ...        0 min,  0.000 sec (  0.197%)

         :::::::::::::::::::::::::::::::::::::::::::::::::::::
         ::                     SUMMARY                     ::
         :::::::::::::::::::::::::::::::::::::::::::::::::::::
         :: total energy             -70.310906461271 Eh    ::
         :: gradient norm              0.000828067730 Eh/a0 ::
         :: HOMO-LUMO gap              2.667793471744 eV    ::
         ::.................................................::
         :: SCC energy               -71.235696965397 Eh    ::
         :: -> isotropic ES            0.089825790391 Eh    ::
         :: -> anisotropic ES          0.004257101174 Eh    ::
         :: -> anisotropic XC          0.029287701595 Eh    ::
         :: -> dispersion             -0.048536856206 Eh    ::
         :: repulsion energy           0.924790504126 Eh    ::
         :: add. restraining           0.000000000000 Eh    ::
         :: total charge              -0.000000000000 e     ::
         :::::::::::::::::::::::::::::::::::::::::::::::::::::

           -------------------------------------------------
          |                Property Printout                |
           -------------------------------------------------

    * Orbital Energies and Occupations

         #    Occupation            Energy/Eh            Energy/eV
      -------------------------------------------------------------
         1        2.0000           -0.7574244             -20.6106
       ...           ...                  ...                  ...
        51        2.0000           -0.4501038             -12.2479
        52        2.0000           -0.4437235             -12.0743
        53        2.0000           -0.4343160             -11.8183
        54        2.0000           -0.4331057             -11.7854
        55        2.0000           -0.4305966             -11.7171
        56        2.0000           -0.4285118             -11.6604
        57        2.0000           -0.4214652             -11.4687
        58        2.0000           -0.4054052             -11.0316
        59        2.0000           -0.3989476             -10.8559
        60        2.0000           -0.3922388             -10.6734
        61        2.0000           -0.3828320             -10.4174
        62        2.0000           -0.3760222             -10.2321
        63        2.0000           -0.3673864              -9.9971 (HOMO)
        64                         -0.2693467              -7.3293 (LUMO)
        65                         -0.2570645              -6.9951
        66                         -0.2434306              -6.6241
        67                         -0.2044275              -5.5628
        68                         -0.1952060              -5.3118
        69                         -0.1813193              -4.9340
        70                         -0.1593994              -4.3375
        71                         -0.1386302              -3.7723
        72                         -0.0750339              -2.0418
        73                         -0.0591221              -1.6088
        74                         -0.0117959              -0.3210
       ...                                ...                  ...
       120                          0.9431063              25.6632
      -------------------------------------------------------------
                  HL-Gap            0.0980396 Eh            2.6678 eV
             Fermi-level           -0.3183666 Eh           -8.6632 eV

     #   Z          covCN         q      C6AA      α(0)
     1   6 C        3.757    -0.106    22.580     6.775
     2   6 C        2.958    -0.013    28.346     8.733
     3   6 C        2.894     0.139    24.968     8.192
     4   8 O        1.703    -0.304    19.058     5.894
     5   6 C        3.656     0.044    20.123     6.440
     6   6 C        2.960    -0.018    28.463     8.751
     7   6 C        3.757    -0.113    22.707     6.794
     8   6 C        2.902     0.040    27.100     8.536
     9   7 N        1.842    -0.252    27.422     7.761
    10   6 C        2.979     0.073    26.360     8.422
    11   6 C        3.794    -0.099    22.403     6.740
    12  16 S        2.849     0.400   125.807    18.878
    13   6 C        3.209     0.105    25.112     8.159
    14   7 N        1.902    -0.272    27.898     7.831
    15   6 C        3.222     0.066    25.827     8.262
    16   6 C        3.106     0.034    27.100     8.530
    17   7 N        2.784    -0.144    24.113     7.293
    18   6 C        2.907    -0.052    29.291     8.874
    19   6 C        2.928    -0.057    29.428     8.896
    20   6 C        2.870     0.135    25.045     8.204
    21   8 O        1.705    -0.272    18.508     5.808
    22   6 C        3.645     0.037    20.289     6.474
    23   6 C        2.908    -0.080    29.995     8.980
    24   8 O        0.860    -0.448    22.653     6.381
    25   1 H        0.925     0.063     2.163     2.300
    26   1 H        0.924     0.051     2.308     2.376
    27   1 H        0.925     0.049     2.328     2.386
    28   1 H        0.924     0.035     2.521     2.483
    29   1 H        0.924     0.035     2.519     2.482
    30   1 H        0.925     0.062     2.175     2.306
    31   1 H        0.925     0.067     2.122     2.278
    32   1 H        0.924     0.052     2.289     2.366
    33   1 H        0.925     0.060     2.204     2.322
    34   1 H        0.925     0.045     2.386     2.416
    35   1 H        0.925     0.073     2.051     2.239
    36   1 H        0.925     0.079     1.987     2.204
    37   1 H        0.860     0.202     1.096     1.640
    38   1 H        0.926     0.037     2.489     2.467
    39   1 H        0.926     0.052     2.295     2.369
    40   1 H        0.924     0.041     2.436     2.441
    41   1 H        0.925     0.060     2.194     2.317
    42   1 H        0.924     0.041     2.431     2.438
    43   1 H        0.926     0.053     2.286     2.364

 Mol. C6AA /au·bohr⁶  :      23667.403058
 Mol. C8AA /au·bohr⁸  :     592215.920122
 Mol. α(0) /au        :        239.801022


Wiberg/Mayer (AO) data.
largest (>0.10) Wiberg bond orders for each atom

 ---------------------------------------------------------------------------
     #   Z sym  total        # sym  WBO       # sym  WBO       # sym  WBO
 ---------------------------------------------------------------------------
     1   6 C    3.993 --     2 C    1.029    25 H    0.979    27 H    0.979
                            26 H    0.964
     2   6 C    3.982 --     8 C    1.403     3 C    1.355     1 C    1.029
     3   6 C    3.945 --     6 C    1.380     2 C    1.355     4 O    1.008
     4   8 O    2.110 --     3 C    1.008     5 C    0.966
     5   6 C    3.945 --    29 H    0.980    30 H    0.979    28 H    0.979
                             4 O    0.966
     6   6 C    3.986 --     3 C    1.380    10 C    1.352     7 C    1.030
     7   6 C    3.992 --     6 C    1.030    31 H    0.979    33 H    0.969
                            32 H    0.964
     8   6 C    3.982 --     9 N    1.428     2 C    1.403    34 H    0.961
     9   7 N    3.115 --     8 C    1.428    10 C    1.381
    10   6 C    3.982 --     9 N    1.381     6 C    1.352    11 C    1.048
    11   6 C    3.984 --    10 C    1.048    35 H    0.966    36 H    0.961
                            12 S    0.859
    12  16 S    3.800 --    24 O    1.857    13 C    0.924    11 C    0.859
    13   6 C    3.946 --    14 N    1.550    17 N    1.226    12 S    0.924
    14   7 N    3.027 --    13 C    1.550    15 C    1.214    17 N    0.126
    15   6 C    3.977 --    23 C    1.319    16 C    1.250    14 N    1.214
    16   6 C    3.955 --    18 C    1.328    15 C    1.250    17 N    1.162
    17   7 N    3.550 --    13 C    1.226    16 C    1.162    37 H    0.872
                            14 N    0.126
    18   6 C    3.988 --    19 C    1.513    16 C    1.328    38 H    0.968
                            23 C    0.106
    19   6 C    3.981 --    18 C    1.513    20 C    1.296    39 H    0.968
    20   6 C    3.934 --    23 C    1.437    19 C    1.296    21 O    1.055
    21   8 O    2.219 --    20 C    1.055    22 C    0.987
    22   6 C    3.947 --    21 O    0.987    41 H    0.980    42 H    0.976
                            40 H    0.976
    23   6 C    3.983 --    20 C    1.437    15 C    1.319    43 H    0.963
                            18 C    0.106
    24   8 O    2.044 --    12 S    1.857
    25   1 H    0.996 --     1 C    0.979
    26   1 H    0.996 --     1 C    0.964
    27   1 H    0.997 --     1 C    0.979
    28   1 H    0.999 --     5 C    0.979
    29   1 H    0.999 --     5 C    0.980
    30   1 H    0.995 --     5 C    0.979
    31   1 H    0.995 --     7 C    0.979
    32   1 H    0.997 --     7 C    0.964
    33   1 H    0.996 --     7 C    0.969
    34   1 H    0.997 --     8 C    0.961
    35   1 H    0.994 --    11 C    0.966
    36   1 H    0.993 --    11 C    0.961
    37   1 H    0.959 --    17 N    0.872
    38   1 H    0.998 --    18 C    0.968
    39   1 H    0.997 --    19 C    0.968
    40   1 H    0.998 --    22 C    0.976
    41   1 H    0.996 --    22 C    0.980
    42   1 H    0.998 --    22 C    0.976
    43   1 H    0.997 --    23 C    0.963
 ---------------------------------------------------------------------------

Topologies differ in total number of bonds
Writing topology from bond orders to xtbtopo.mol

molecular dipole:
                 x           y           z       tot (Debye)
 q only:       -1.718      -1.546      -0.295
   full:       -2.166      -1.947      -0.068       7.405
molecular quadrupole (traceless):
                xx          xy          yy          xz          yz          zz
 q only:       23.165       1.023     -18.414      -1.286      -0.969      -4.752
  q+dip:       26.019       1.461     -20.034      -1.176       1.494      -5.985
   full:       25.603       2.161     -22.449      -3.424       0.900      -3.154

           -------------------------------------------------
          |                Geometry Summary                 |
           -------------------------------------------------

      molecular mass/u    :      345.4164963
   center of mass at/Å    :        0.3401464       0.2714173       0.0243852
  moments of inertia/u·Å² :        0.9730316E+03   0.5132804E+04   0.5970789E+04
rotational constants/cm⁻¹ :        0.1732486E-01   0.3284293E-02   0.2823351E-02

 * 42 selected distances

     #   Z          #   Z                                           value/Å
     2   6 C        3   6 C                                       1.3997486
     3   6 C        4   8 O                                       1.3805481
     4   8 O        5   6 C                                       1.4133960
     3   6 C        6   6 C                                       1.3966651
     2   6 C        8   6 C                                       1.3866336
     8   6 C        9   7 N                                       1.3200689
     6   6 C       10   6 C                                       1.3992121
     9   7 N       10   6 C                                       1.3312418
    10   6 C       11   6 C                                       1.4823948
    12  16 S       13   6 C                                       1.8055027 (max)
    13   6 C       14   7 N                                       1.3009616
    14   7 N       15   6 C                                       1.3689282
    15   6 C       16   6 C                                       1.4151916
    13   6 C       17   7 N                                       1.3638366
    16   6 C       17   7 N                                       1.3712488
    16   6 C       18   6 C                                       1.3873561
    18   6 C       19   6 C                                       1.3746445
    19   6 C       20   6 C                                       1.4094743
    20   6 C       21   8 O                                       1.3658784
    21   8 O       22   6 C                                       1.4063027
    15   6 C       23   6 C                                       1.3926758
    20   6 C       23   6 C                                       1.3823823
    12  16 S       24   8 O                                       1.4554861
     1   6 C       25   1 H                                       1.0873809
     1   6 C       26   1 H                                       1.0908242
     1   6 C       27   1 H                                       1.0874190
     5   6 C       28   1 H                                       1.0948003
     5   6 C       29   1 H                                       1.0951898
     5   6 C       30   1 H                                       1.0881999
     7   6 C       31   1 H                                       1.0867011
     7   6 C       32   1 H                                       1.0902851
     7   6 C       33   1 H                                       1.0883739
     8   6 C       34   1 H                                       1.0822796
    11   6 C       35   1 H                                       1.0865271
    11   6 C       36   1 H                                       1.0863776
    17   7 N       37   1 H                                       1.0233805 (min)
    18   6 C       38   1 H                                       1.0790189
    19   6 C       39   1 H                                       1.0783706
    22   6 C       40   1 H                                       1.0948324
    22   6 C       41   1 H                                       1.0889298
    22   6 C       42   1 H                                       1.0948338
    23   6 C       43   1 H                                       1.0762255

 * 7 distinct bonds (by element types)

   Z      Z             #   av. dist./Å        max./Å        min./Å
   1 H    6 C          18     1.0875872     1.0951898     1.0762255
   6 C    6 C          11     1.4023981     1.4823948     1.3746445
   1 H    7 N           1     1.0233805     1.0233805     1.0233805
   6 C    7 N           6     1.3427143     1.3712488     1.3009616
   6 C    8 O           4     1.3915313     1.4133960     1.3658784
   6 C   16 S           1     1.8055027     1.8055027     1.8055027
   8 O   16 S           1     1.4554861     1.4554861     1.4554861


optimized geometry written to: xtbopt.xyz


           -------------------------------------------------
          | TOTAL ENERGY              -70.310906461271 Eh   |
          | GRADIENT NORM               0.000828067730 Eh/α |
          | HOMO-LUMO GAP               2.667793471744 eV   |
           -------------------------------------------------

------------------------------------------------------------------------
 * finished run on 2025/05/15 at 16:37:12.330     
------------------------------------------------------------------------
 total:
 * wall-time:     0 d,  0 h,  0 min,  1.630 sec
 *  cpu-time:     0 d,  0 h,  0 min,  1.015 sec
 * ratio c/w:     0.623 speedup
 SCF:
 * wall-time:     0 d,  0 h,  0 min,  0.091 sec
 *  cpu-time:     0 d,  0 h,  0 min,  0.067 sec
 * ratio c/w:     0.741 speedup
 ANC optimizer:
 * wall-time:     0 d,  0 h,  0 min,  1.523 sec
 *  cpu-time:     0 d,  0 h,  0 min,  0.935 sec
 * ratio c/w:     0.614 speedup



----- Single-point -----
      -----------------------------------------------------------      
     |                   =====================                   |     
     |                           x T B                           |     
     |                   =====================                   |     
     |                         S. Grimme                         |     
     |          Mulliken Center for Theoretical Chemistry        |     
     |                    University of Bonn                     |     
      -----------------------------------------------------------      

   * xtb version 6.7.1 (edcfbbe) compiled by 'conda@3ef47c1a292c' on 2024-11-25

   xtb is free software: you can redistribute it and/or modify it under
   the terms of the GNU Lesser General Public License as published by
   the Free Software Foundation, either version 3 of the License, or
   (at your option) any later version.
   
   xtb is distributed in the hope that it will be useful,
   but WITHOUT ANY WARRANTY; without even the implied warranty of
   MERCHANTABILITY or FITNESS FOR A PARTICULAR PURPOSE.  See the
   GNU Lesser General Public License for more details.
   
   Cite this work as:
   * C. Bannwarth, E. Caldeweyher, S. Ehlert, A. Hansen, P. Pracht,
     J. Seibert, S. Spicher, S. Grimme, WIREs Comput. Mol. Sci., 2020, 11,
     e01493. DOI: 10.1002/wcms.1493
   
   for GFN2-xTB:
   * C. Bannwarth, S. Ehlert and S. Grimme., J. Chem. Theory Comput., 2019,
     15, 1652-1671. DOI: 10.1021/acs.jctc.8b01176
   for GFN1-xTB:
   * S. Grimme, C. Bannwarth, P. Shushkov, J. Chem. Theory Comput., 2017,
     13, 1989-2009. DOI: 10.1021/acs.jctc.7b00118
   for GFN0-xTB:
   * P. Pracht, E. Caldeweyher, S. Ehlert, S. Grimme, ChemRxiv, 2019, preprint.
     DOI: 10.26434/chemrxiv.8326202.v1
   for GFN-FF:
   * S. Spicher and S. Grimme, Angew. Chem. Int. Ed., 2020, 59, 15665-15673.
     DOI: 10.1002/anie.202004239
   
   for ALPB and GBSA implicit solvation:
   * S. Ehlert, M. Stahn, S. Spicher, S. Grimme, J. Chem. Theory Comput.,
     2021, 17, 4250-4261. DOI: 10.1021/acs.jctc.1c00471
   
   for ddCOSMO and CPCM-X implicit solvation:
   * M. Stahn, S. Ehlert, S. Grimme, J. Phys. Chem. A,
     2023, XX, XXXX-XXXX. DOI: 10.1021/acs.jpca.3c04382
   
   for DFT-D4:
   * E. Caldeweyher, C. Bannwarth and S. Grimme, J. Chem. Phys., 2017,
     147, 034112. DOI: 10.1063/1.4993215
   * E. Caldeweyher, S. Ehlert, A. Hansen, H. Neugebauer, S. Spicher,
     C. Bannwarth and S. Grimme, J. Chem. Phys., 2019, 150, 154122.
     DOI: 10.1063/1.5090222
   * E. Caldeweyher, J.-M. Mewes, S. Ehlert and S. Grimme, Phys. Chem. Chem. Phys.
     2020, 22, 8499-8512. DOI: 10.1039/D0CP00502A
   
   for sTDA-xTB:
   * S. Grimme and C. Bannwarth, J. Chem. Phys., 2016, 145, 054103.
     DOI: 10.1063/1.4959605
   
   in the mass-spec context:
   * V. Asgeirsson, C. Bauer and S. Grimme, Chem. Sci., 2017, 8, 4879.
     DOI: 10.1039/c7sc00601b
   * J. Koopman and S. Grimme, ACS Omega 2019, 4, 12, 15120-15133.
     DOI: 10.1021/acsomega.9b02011
   
   for metadynamics refer to:
   * S. Grimme, J. Chem. Theory Comput., 2019, 155, 2847-2862
     DOI: 10.1021/acs.jctc.9b00143
   
   for SPH calculations refer to:
   * S. Spicher and S. Grimme, J. Chem. Theory Comput., 2021, 17, 1701-1714
     DOI: 10.1021/acs.jctc.0c01306
   
   for ONIOM refer to:
   * C. Plett, A. Katbashev, S. Ehlert, S. Grimme, M. Bursch,
     Phys. Chem. Chem. Phys., 2023, 25, 17860-17868. DOI: 10.1039/D3CP02178E
   
   for DIPRO refer to:
   * J. Kohn, N. Gildemeister, S. Grimme, D. Fazzi, A. Hansen,
     J. Chem. Phys., 2023, just accepted.
   
   for PTB refer to:
   * S. Grimme, M. Mueller, A. Hansen, J. Chem. Phys., 2023, 158, 124111.
     DOI: 10.1063/5.0137838
   
   with help from (in alphabetical order)
   P. Atkinson, C. Bannwarth, F. Bohle, G. Brandenburg, E. Caldeweyher
   M. Checinski, S. Dohm, S. Ehlert, S. Ehrlich, I. Gerasimov, C. Hölzer
   A. Katbashev, J. Kohn, J. Koopman, C. Lavigne, S. Lehtola, F. März, M. Müller,
   F. Musil, H. Neugebauer, J. Pisarek, C. Plett, P. Pracht, F. Pultar,
   J. Seibert, P. Shushkov, S. Spicher, M. Stahn, M. Steiner, T. Strunk,
   J. Stückrath, T. Rose, and J. Unsleber
   
 * started run on 2025/05/15 at 16:37:12.388     
   ID    Z sym.   atoms
    1    6 C      1-3, 5-8, 10, 11, 13, 15, 16, 18-20, 22, 23
    2    8 O      4, 21, 24
    3    7 N      9, 14, 17
    4   16 S      12
    5    1 H      25-43

           -------------------------------------------------
          |                Calculation Setup                |
           -------------------------------------------------

          program call               : xtb /rds/general/user/hgt20/home/callum/QDESCP/Omeprazole_rdkit_conf_21/Omeprazole_rdkit_conf_21.xyz --acc 1 --gfn 2 --chrg 0 --uhf 0 --etemp 300 --input /rds/general/user/hgt20/home/callum/QDESCP/Omeprazole_rdkit_conf_21/Omeprazole_rdkit_conf_21_xtb.inp -P 1
          hostname                   : login-c
          coordinate file            : /rds/general/user/hgt20/home/callum/QDESCP/Omeprazole_rdkit_conf_21/Omeprazole_rdkit_conf_21.xyz
          omp threads                :                     1


           -------------------------------------------------
          |                 G F N 2 - x T B                 |
           -------------------------------------------------

        Reference                      10.1021/acs.jctc.8b01176
      * Hamiltonian:
        H0-scaling (s, p, d)           1.850000    2.230000    2.230000
        zeta-weighting                 0.500000
      * Dispersion:
        s8                             2.700000
        a1                             0.520000
        a2                             5.000000
        s9                             5.000000
      * Repulsion:
        kExp                           1.500000    1.000000
        rExp                           1.000000
      * Coulomb:
        alpha                          2.000000
        third order                    shell-resolved
        anisotropic                    true
        a3                             3.000000
        a5                             4.000000
        cn-shift                       1.200000
        cn-exp                         4.000000
        max-rad                        5.000000

q/qsh data taken from xtbrestart
CAMM data taken from xtbrestart

          ...................................................
          :                      SETUP                      :
          :.................................................:
          :  # basis functions                 121          :
          :  # atomic orbitals                 120          :
          :  # shells                           68          :
          :  # electrons                       126          :
          :  max. iterations                   250          :
          :  Hamiltonian                  GFN2-xTB          :
          :  restarted?                       true          :
          :  GBSA solvation                  false          :
          :  PC potential                    false          :
          :  electronic temp.          300.0000000     K    :
          :  accuracy                    1.0000000          :
          :  -> integral cutoff          0.2500000E+02      :
          :  -> integral neglect         0.1000000E-07      :
          :  -> SCF convergence          0.1000000E-05 Eh   :
          :  -> wf. convergence          0.1000000E-03 e    :
          :  Broyden damping             0.4000000          :
          :  net charge                          0          :
          :  unpaired electrons                  0          :
          ...................................................

 iter      E             dE          RMSdq      gap      omega  full diag
   1    -71.2355595 -0.712356E+02  0.676E-06    2.67       0.0  T
   2    -71.2355595 -0.781597E-12  0.502E-06    2.67    3037.1  T
   3    -71.2355595 -0.582645E-12  0.260E-06    2.67    5861.2  T

   *** convergence criteria satisfied after 3 iterations ***

         #    Occupation            Energy/Eh            Energy/eV
      -------------------------------------------------------------
         1        2.0000           -0.7574244             -20.6106
       ...           ...                  ...                  ...
        57        2.0000           -0.4214651             -11.4687
        58        2.0000           -0.4054052             -11.0316
        59        2.0000           -0.3989476             -10.8559
        60        2.0000           -0.3922388             -10.6734
        61        2.0000           -0.3828320             -10.4174
        62        2.0000           -0.3760222             -10.2321
        63        2.0000           -0.3673863              -9.9971 (HOMO)
        64                         -0.2693467              -7.3293 (LUMO)
        65                         -0.2570645              -6.9951
        66                         -0.2434306              -6.6241
        67                         -0.2044275              -5.5628
        68                         -0.1952059              -5.3118
       ...                                ...                  ...
       120                          0.9431064              25.6632
      -------------------------------------------------------------
                  HL-Gap            0.0980396 Eh            2.6678 eV
             Fermi-level           -0.3183665 Eh           -8.6632 eV

 SCC (total)                   0 d,  0 h,  0 min,  0.043 sec
 SCC setup                      ...        0 min,  0.000 sec (  0.890%)
 Dispersion                     ...        0 min,  0.000 sec (  1.136%)
 classical contributions        ...        0 min,  0.000 sec (  0.349%)
 integral evaluation            ...        0 min,  0.008 sec ( 19.526%)
 iterations                     ...        0 min,  0.009 sec ( 19.825%)
 molecular gradient             ...        0 min,  0.025 sec ( 57.756%)
 printout                       ...        0 min,  0.000 sec (  0.504%)

         :::::::::::::::::::::::::::::::::::::::::::::::::::::
         ::                     SUMMARY                     ::
         :::::::::::::::::::::::::::::::::::::::::::::::::::::
         :: total energy             -70.310906461274 Eh    ::
         :: gradient norm              0.000828057290 Eh/a0 ::
         :: HOMO-LUMO gap              2.667792571950 eV    ::
         ::.................................................::
         :: SCC energy               -71.235696965401 Eh    ::
         :: -> isotropic ES            0.089825625704 Eh    ::
         :: -> anisotropic ES          0.004257085598 Eh    ::
         :: -> anisotropic XC          0.029287719411 Eh    ::
         :: -> dispersion             -0.048536856636 Eh    ::
         :: repulsion energy           0.924790504126 Eh    ::
         :: add. restraining           0.000000000000 Eh    ::
         :: total charge              -0.000000000000 e     ::
         :::::::::::::::::::::::::::::::::::::::::::::::::::::

           -------------------------------------------------
          |                Property Printout                |
           -------------------------------------------------

    * Orbital Energies and Occupations

         #    Occupation            Energy/Eh            Energy/eV
      -------------------------------------------------------------
         1        2.0000           -0.7574244             -20.6106
       ...           ...                  ...                  ...
        51        2.0000           -0.4501038             -12.2479
        52        2.0000           -0.4437235             -12.0743
        53        2.0000           -0.4343160             -11.8183
        54        2.0000           -0.4331057             -11.7854
        55        2.0000           -0.4305966             -11.7171
        56        2.0000           -0.4285118             -11.6604
        57        2.0000           -0.4214651             -11.4687
        58        2.0000           -0.4054052             -11.0316
        59        2.0000           -0.3989476             -10.8559
        60        2.0000           -0.3922388             -10.6734
        61        2.0000           -0.3828320             -10.4174
        62        2.0000           -0.3760222             -10.2321
        63        2.0000           -0.3673863              -9.9971 (HOMO)
        64                         -0.2693467              -7.3293 (LUMO)
        65                         -0.2570645              -6.9951
        66                         -0.2434306              -6.6241
        67                         -0.2044275              -5.5628
        68                         -0.1952059              -5.3118
        69                         -0.1813194              -4.9340
        70                         -0.1593994              -4.3375
        71                         -0.1386302              -3.7723
        72                         -0.0750339              -2.0418
        73                         -0.0591221              -1.6088
        74                         -0.0117959              -0.3210
       ...                                ...                  ...
       120                          0.9431064              25.6632
      -------------------------------------------------------------
                  HL-Gap            0.0980396 Eh            2.6678 eV
             Fermi-level           -0.3183665 Eh           -8.6632 eV

     #   Z          covCN         q      C6AA      α(0)
     1   6 C        3.757    -0.106    22.580     6.775
     2   6 C        2.958    -0.013    28.346     8.733
     3   6 C        2.894     0.139    24.967     8.192
     4   8 O        1.703    -0.304    19.058     5.894
     5   6 C        3.656     0.044    20.123     6.440
     6   6 C        2.960    -0.018    28.463     8.751
     7   6 C        3.757    -0.113    22.707     6.794
     8   6 C        2.902     0.040    27.100     8.536
     9   7 N        1.842    -0.252    27.422     7.761
    10   6 C        2.979     0.073    26.360     8.422
    11   6 C        3.794    -0.099    22.403     6.740
    12  16 S        2.849     0.400   125.807    18.878
    13   6 C        3.209     0.105    25.112     8.159
    14   7 N        1.902    -0.272    27.898     7.831
    15   6 C        3.222     0.066    25.827     8.262
    16   6 C        3.106     0.034    27.100     8.530
    17   7 N        2.784    -0.144    24.113     7.293
    18   6 C        2.907    -0.052    29.291     8.874
    19   6 C        2.928    -0.057    29.428     8.896
    20   6 C        2.870     0.135    25.045     8.204
    21   8 O        1.705    -0.272    18.508     5.808
    22   6 C        3.645     0.037    20.289     6.474
    23   6 C        2.908    -0.080    29.995     8.980
    24   8 O        0.860    -0.448    22.653     6.381
    25   1 H        0.925     0.063     2.163     2.300
    26   1 H        0.924     0.051     2.308     2.376
    27   1 H        0.925     0.049     2.328     2.386
    28   1 H        0.924     0.035     2.521     2.483
    29   1 H        0.924     0.035     2.519     2.482
    30   1 H        0.925     0.062     2.175     2.306
    31   1 H        0.925     0.067     2.122     2.278
    32   1 H        0.924     0.052     2.289     2.366
    33   1 H        0.925     0.060     2.204     2.322
    34   1 H        0.925     0.045     2.386     2.416
    35   1 H        0.925     0.073     2.051     2.239
    36   1 H        0.925     0.079     1.987     2.204
    37   1 H        0.860     0.202     1.096     1.640
    38   1 H        0.926     0.037     2.489     2.467
    39   1 H        0.926     0.052     2.295     2.369
    40   1 H        0.924     0.041     2.436     2.441
    41   1 H        0.925     0.060     2.194     2.317
    42   1 H        0.924     0.041     2.431     2.438
    43   1 H        0.926     0.053     2.286     2.364

 Mol. C6AA /au·bohr⁶  :      23667.403009
 Mol. C8AA /au·bohr⁸  :     592215.919276
 Mol. α(0) /au        :        239.801021


Wiberg/Mayer (AO) data.
largest (>0.10) Wiberg bond orders for each atom

 ---------------------------------------------------------------------------
     #   Z sym  total        # sym  WBO       # sym  WBO       # sym  WBO
 ---------------------------------------------------------------------------
     1   6 C    3.993 --     2 C    1.029    25 H    0.979    27 H    0.979
                            26 H    0.964
     2   6 C    3.982 --     8 C    1.403     3 C    1.355     1 C    1.029
     3   6 C    3.945 --     6 C    1.380     2 C    1.355     4 O    1.008
     4   8 O    2.110 --     3 C    1.008     5 C    0.966
     5   6 C    3.945 --    29 H    0.980    30 H    0.979    28 H    0.979
                             4 O    0.966
     6   6 C    3.986 --     3 C    1.380    10 C    1.352     7 C    1.030
     7   6 C    3.992 --     6 C    1.030    31 H    0.979    33 H    0.969
                            32 H    0.964
     8   6 C    3.982 --     9 N    1.428     2 C    1.403    34 H    0.961
     9   7 N    3.115 --     8 C    1.428    10 C    1.381
    10   6 C    3.982 --     9 N    1.381     6 C    1.352    11 C    1.048
    11   6 C    3.984 --    10 C    1.048    35 H    0.966    36 H    0.961
                            12 S    0.859
    12  16 S    3.800 --    24 O    1.857    13 C    0.924    11 C    0.859
[...]
   * S. Ehlert, M. Stahn, S. Spicher, S. Grimme, J. Chem. Theory Comput.,
     2021, 17, 4250-4261. DOI: 10.1021/acs.jctc.1c00471
   
   for ddCOSMO and CPCM-X implicit solvation:
   * M. Stahn, S. Ehlert, S. Grimme, J. Phys. Chem. A,
     2023, XX, XXXX-XXXX. DOI: 10.1021/acs.jpca.3c04382
   
   for DFT-D4:
   * E. Caldeweyher, C. Bannwarth and S. Grimme, J. Chem. Phys., 2017,
     147, 034112. DOI: 10.1063/1.4993215
   * E. Caldeweyher, S. Ehlert, A. Hansen, H. Neugebauer, S. Spicher,
     C. Bannwarth and S. Grimme, J. Chem. Phys., 2019, 150, 154122.
     DOI: 10.1063/1.5090222
   * E. Caldeweyher, J.-M. Mewes, S. Ehlert and S. Grimme, Phys. Chem. Chem. Phys.
     2020, 22, 8499-8512. DOI: 10.1039/D0CP00502A
   
   for sTDA-xTB:
   * S. Grimme and C. Bannwarth, J. Chem. Phys., 2016, 145, 054103.
     DOI: 10.1063/1.4959605
   
   in the mass-spec context:
   * V. Asgeirsson, C. Bauer and S. Grimme, Chem. Sci., 2017, 8, 4879.
     DOI: 10.1039/c7sc00601b
   * J. Koopman and S. Grimme, ACS Omega 2019, 4, 12, 15120-15133.
     DOI: 10.1021/acsomega.9b02011
   
   for metadynamics refer to:
   * S. Grimme, J. Chem. Theory Comput., 2019, 155, 2847-2862
     DOI: 10.1021/acs.jctc.9b00143
   
   for SPH calculations refer to:
   * S. Spicher and S. Grimme, J. Chem. Theory Comput., 2021, 17, 1701-1714
     DOI: 10.1021/acs.jctc.0c01306
   
   for ONIOM refer to:
   * C. Plett, A. Katbashev, S. Ehlert, S. Grimme, M. Bursch,
     Phys. Chem. Chem. Phys., 2023, 25, 17860-17868. DOI: 10.1039/D3CP02178E
   
   for DIPRO refer to:
   * J. Kohn, N. Gildemeister, S. Grimme, D. Fazzi, A. Hansen,
     J. Chem. Phys., 2023, just accepted.
   
   for PTB refer to:
   * S. Grimme, M. Mueller, A. Hansen, J. Chem. Phys., 2023, 158, 124111.
     DOI: 10.1063/5.0137838
   
   with help from (in alphabetical order)
   P. Atkinson, C. Bannwarth, F. Bohle, G. Brandenburg, E. Caldeweyher
   M. Checinski, S. Dohm, S. Ehlert, S. Ehrlich, I. Gerasimov, C. Hölzer
   A. Katbashev, J. Kohn, J. Koopman, C. Lavigne, S. Lehtola, F. März, M. Müller,
   F. Musil, H. Neugebauer, J. Pisarek, C. Plett, P. Pracht, F. Pultar,
   J. Seibert, P. Shushkov, S. Spicher, M. Stahn, M. Steiner, T. Strunk,
   J. Stückrath, T. Rose, and J. Unsleber
   
 * started run on 2025/05/15 at 16:37:14.885     
   ID    Z sym.   atoms
    1    6 C      1-3, 5-8, 10, 11, 13, 15, 16, 18-20, 22, 23
    2    8 O      4, 21, 24
    3    7 N      9, 14, 17
    4   16 S      12
    5    1 H      25-43

           -------------------------------------------------
          |                Calculation Setup                |
           -------------------------------------------------

          program call               : xtb /rds/general/user/hgt20/home/callum/QDESCP/Omeprazole_rdkit_conf_21/Omeprazole_rdkit_conf_21.xyz --acc 1 --gfn 2 --chrg 0 --uhf 2 --etemp 300 --input /rds/general/user/hgt20/home/callum/QDESCP/Omeprazole_rdkit_conf_21/Omeprazole_rdkit_conf_21_xtb.inp -P 1
          hostname                   : login-c
          coordinate file            : /rds/general/user/hgt20/home/callum/QDESCP/Omeprazole_rdkit_conf_21/Omeprazole_rdkit_conf_21.xyz
          omp threads                :                     1


           -------------------------------------------------
          |                 G F N 2 - x T B                 |
           -------------------------------------------------

        Reference                      10.1021/acs.jctc.8b01176
      * Hamiltonian:
        H0-scaling (s, p, d)           1.850000    2.230000    2.230000
        zeta-weighting                 0.500000
      * Dispersion:
        s8                             2.700000
        a1                             0.520000
        a2                             5.000000
        s9                             5.000000
      * Repulsion:
        kExp                           1.500000    1.000000
        rExp                           1.000000
      * Coulomb:
        alpha                          2.000000
        third order                    shell-resolved
        anisotropic                    true
        a3                             3.000000
        a5                             4.000000
        cn-shift                       1.200000
        cn-exp                         4.000000
        max-rad                        5.000000


          ...................................................
          :                      SETUP                      :
          :.................................................:
          :  # basis functions                 121          :
          :  # atomic orbitals                 120          :
          :  # shells                           68          :
          :  # electrons                       126          :
          :  max. iterations                   250          :
          :  Hamiltonian                  GFN2-xTB          :
          :  restarted?                      false          :
          :  GBSA solvation                  false          :
          :  PC potential                    false          :
          :  electronic temp.          300.0000000     K    :
          :  accuracy                    1.0000000          :
          :  -> integral cutoff          0.2500000E+02      :
          :  -> integral neglect         0.1000000E-07      :
          :  -> SCF convergence          0.1000000E-05 Eh   :
          :  -> wf. convergence          0.1000000E-03 e    :
          :  Broyden damping             0.4000000          :
          :  net charge                          0          :
          :  unpaired electrons                  2          :
          ...................................................

 iter      E             dE          RMSdq      gap      omega  full diag
   1    -70.9291736 -0.709292E+02  0.440E+00    0.41       0.0  T
   2    -70.9012878  0.278858E-01  0.322E+00    0.55       1.0  T
   3    -70.7768768  0.124411E+00  0.230E+00    1.05       1.0  T
   4    -70.9118168 -0.134940E+00  0.173E+00    0.44       1.0  T
   5    -71.0627613 -0.150945E+00  0.112E+00    0.26       1.0  T
   6    -71.0952194 -0.324581E-01  0.796E-01    0.31       1.0  T
   7    -71.1009893 -0.576996E-02  0.695E-01    0.28       1.0  T
   8    -71.1067050 -0.571565E-02  0.551E-01    0.32       1.0  T
   9    -71.1019179  0.478711E-02  0.403E-01    0.28       1.0  T
  10    -71.0822111  0.197067E-01  0.583E-01    0.35       1.0  T
  11    -71.1105296 -0.283185E-01  0.297E-01    0.28       1.0  T
  12    -71.1172165 -0.668685E-02  0.744E-02    0.29       1.0  T
  13    -71.1168474  0.369137E-03  0.834E-02    0.29       1.0  T
  14    -71.1174100 -0.562597E-03  0.366E-02    0.29       1.0  T
  15    -71.1174629 -0.529237E-04  0.226E-02    0.29       1.0  T
  16    -71.1174931 -0.302514E-04  0.730E-03    0.29       2.1  T
  17    -71.1174954 -0.231244E-05  0.366E-03    0.29       4.2  T
  18    -71.1174964 -0.922956E-06  0.140E-03    0.29      10.9  T
  19    -71.1174964 -0.366169E-07  0.979E-04    0.29      15.6  T
  20    -71.1174964 -0.240408E-07  0.304E-04    0.29      50.2  T

   *** convergence criteria satisfied after 20 iterations ***

         #    Occupation            Energy/Eh            Energy/eV
      -------------------------------------------------------------
         1        2.0000           -0.7563427             -20.5811
       ...           ...                  ...                  ...
        58        2.0000           -0.4015565             -10.9269
        59        2.0000           -0.3963524             -10.7853
        60        1.9994           -0.3885248             -10.5723
        61        1.9787           -0.3850435             -10.4776
        62        1.8407           -0.3829896             -10.4217
        63        1.1812           -0.3799764             -10.3397
        64        0.9963           -0.2560162              -6.9666 (HOMO)
        65        0.0037           -0.2453600              -6.6766 (LUMO)
        66        0.0000           -0.2358135              -6.4168
        67                         -0.2112364              -5.7480
        68                         -0.2029370              -5.5222
        69                         -0.1835552              -4.9948
       ...                                ...                  ...
       120                          0.9421354              25.6368
      -------------------------------------------------------------
                  HL-Gap            0.0106563 Eh            0.2900 eV
             Fermi-level           -0.3160487 Eh           -8.6001 eV

 transition dipole moment (au) for excitation:          63          64
     X       Y       Z   
  -1.0898   0.4828  -0.2181  total (au/Debye):    1.212   3.080
 dE (eV)             :    3.373
 oscillator strength :  0.17159E+00

 SCC (total)                   0 d,  0 h,  0 min,  0.128 sec
 SCC setup                      ...        0 min,  0.000 sec (  0.290%)
 Dispersion                     ...        0 min,  0.000 sec (  0.374%)
 classical contributions        ...        0 min,  0.000 sec (  0.127%)
 integral evaluation            ...        0 min,  0.008 sec (  6.616%)
 iterations                     ...        0 min,  0.085 sec ( 66.616%)
 molecular gradient             ...        0 min,  0.025 sec ( 19.654%)
 printout                       ...        0 min,  0.008 sec (  6.318%)

         :::::::::::::::::::::::::::::::::::::::::::::::::::::
         ::                     SUMMARY                     ::
         :::::::::::::::::::::::::::::::::::::::::::::::::::::
         :: total energy             -70.192843351015 Eh    ::
         :: gradient norm              0.092960743866 Eh/a0 ::
         :: HOMO-LUMO gap              0.289971344208 eV    ::
         ::.................................................::
         :: SCC energy               -71.117633855142 Eh    ::
         :: -> isotropic ES            0.084646575369 Eh    ::
         :: -> anisotropic ES          0.004370657301 Eh    ::
         :: -> anisotropic XC          0.025502100072 Eh    ::
         :: -> dispersion             -0.048597991742 Eh    ::
         :: repulsion energy           0.924790504126 Eh    ::
         :: add. restraining           0.000000000000 Eh    ::
         :: total charge               0.000000000351 e     ::
         :::::::::::::::::::::::::::::::::::::::::::::::::::::

           -------------------------------------------------
          |                Property Printout                |
           -------------------------------------------------

    * Orbital Energies and Occupations

         #    Occupation            Energy/Eh            Energy/eV
      -------------------------------------------------------------
         1        2.0000           -0.7563427             -20.5811
       ...           ...                  ...                  ...
        52        2.0000           -0.4495233             -12.2322
        53        2.0000           -0.4452382             -12.1155
        54        2.0000           -0.4399405             -11.9714
        55        2.0000           -0.4247951             -11.5593
        56        2.0000           -0.4149782             -11.2921
        57        2.0000           -0.4057298             -11.0405
        58        2.0000           -0.4015565             -10.9269
        59        2.0000           -0.3963524             -10.7853
        60        1.9994           -0.3885248             -10.5723
        61        1.9787           -0.3850435             -10.4776
        62        1.8407           -0.3829896             -10.4217
        63        1.1812           -0.3799764             -10.3397
        64        0.9963           -0.2560162              -6.9666 (HOMO)
        65        0.0037           -0.2453600              -6.6766 (LUMO)
        66        0.0000           -0.2358135              -6.4168
        67                         -0.2112364              -5.7480
        68                         -0.2029370              -5.5222
        69                         -0.1835552              -4.9948
        70                         -0.1578511              -4.2953
        71                         -0.1216758              -3.3110
        72                         -0.0871165              -2.3706
        73                         -0.0569246              -1.5490
        74                         -0.0096895              -0.2637
        75                          0.0180313               0.4907
       ...                                ...                  ...
       120                          0.9421354              25.6368
      -------------------------------------------------------------
                  HL-Gap            0.0106563 Eh            0.2900 eV
             Fermi-level           -0.3160487 Eh           -8.6001 eV

     #   Z          covCN         q      C6AA      α(0)
     1   6 C        3.757    -0.102    22.506     6.764
     2   6 C        2.958    -0.025    28.615     8.774
     3   6 C        2.894     0.123    25.309     8.248
     4   8 O        1.703    -0.310    19.168     5.911
     5   6 C        3.656     0.046    20.095     6.435
     6   6 C        2.960    -0.018    28.462     8.751
     7   6 C        3.757    -0.110    22.652     6.786
     8   6 C        2.902     0.040    27.112     8.538
     9   7 N        1.842    -0.265    27.734     7.805
    10   6 C        2.979     0.051    26.847     8.499
    11   6 C        3.794    -0.092    22.267     6.720
    12  16 S        2.849     0.391   126.143    18.903
    13   6 C        3.209     0.087    25.475     8.218
    14   7 N        1.902    -0.262    27.666     7.798
    15   6 C        3.222     0.075    25.623     8.229
    16   6 C        3.106     0.060    26.513     8.437
    17   7 N        2.784    -0.141    24.039     7.282
    18   6 C        2.907    -0.064    29.586     8.919
    19   6 C        2.928    -0.061    29.512     8.909
    20   6 C        2.870     0.149    24.754     8.156
    21   8 O        1.705    -0.237    17.936     5.718
    22   6 C        3.645     0.030    20.402     6.492
    23   6 C        2.908    -0.092    30.308     9.027
    24   8 O        0.860    -0.424    22.167     6.312
    25   1 H        0.925     0.059     2.214     2.327
    26   1 H        0.924     0.045     2.385     2.415
    27   1 H        0.925     0.043     2.411     2.428
    28   1 H        0.924     0.032     2.564     2.504
    29   1 H        0.924     0.031     2.573     2.508
    30   1 H        0.925     0.056     2.245     2.343
    31   1 H        0.925     0.065     2.146     2.291
    32   1 H        0.924     0.048     2.342     2.393
    33   1 H        0.925     0.054     2.274     2.358
    34   1 H        0.925     0.036     2.506     2.476
    35   1 H        0.925     0.071     2.071     2.250
    36   1 H        0.925     0.078     2.002     2.212
    37   1 H        0.860     0.208     1.066     1.617
    38   1 H        0.926     0.042     2.428     2.437
    39   1 H        0.926     0.054     2.274     2.358
    40   1 H        0.924     0.054     2.265     2.354
    41   1 H        0.925     0.069     2.095     2.264
    42   1 H        0.924     0.054     2.266     2.354
    43   1 H        0.926     0.053     2.279     2.361

 Mol. C6AA /au·bohr⁶  :      23676.410584
 Mol. C8AA /au·bohr⁸  :     592532.321703
 Mol. α(0) /au        :        239.880511


Wiberg/Mayer (AO) data.
largest (>0.10) Wiberg bond orders for each atom

 ---------------------------------------------------------------------------
     #   Z sym  total        # sym  WBO       # sym  WBO       # sym  WBO
 ---------------------------------------------------------------------------
     1   6 C    3.990 --     2 C    1.028    25 H    0.979    27 H    0.979
                            26 H    0.964
     2   6 C    3.887 --     8 C    1.406     3 C    1.280     1 C    1.028
     3   6 C    3.872 --     6 C    1.404     2 C    1.280     4 O    0.998
     4   8 O    2.097 --     3 C    0.998     5 C    0.971
     5   6 C    3.945 --    30 H    0.980    29 H    0.980    28 H    0.979
                             4 O    0.971
     6   6 C    3.955 --     3 C    1.404    10 C    1.310     7 C    1.029
     7   6 C    3.989 --     6 C    1.029    31 H    0.979    33 H    0.970
                            32 H    0.964
     8   6 C    3.959 --     9 N    1.412     2 C    1.406    34 H    0.960
     9   7 N    3.050 --     8 C    1.412    10 C    1.282
    10   6 C    3.900 --     6 C    1.310     9 N    1.282    11 C    1.084
    11   6 C    3.925 --    10 C    1.084    35 H    0.965    36 H    0.960
                            12 S    0.751
    12  16 S    3.806 --    24 O    1.807    13 C    0.987    11 C    0.751
    13   6 C    3.837 --    14 N    1.445    17 N    1.126    12 S    0.987
    14   7 N    2.978 --    13 C    1.445    15 C    1.242
    15   6 C    3.935 --    23 C    1.319    14 N    1.242    16 C    1.179
    16   6 C    3.903 --    18 C    1.299    17 N    1.217    15 C    1.179
    17   7 N    3.506 --    16 C    1.217    13 C    1.126    37 H    0.864
    18   6 C    3.912 --    19 C    1.460    16 C    1.299    38 H    0.966
    19   6 C    3.865 --    18 C    1.460    20 C    1.261    39 H    0.968
    20   6 C    3.834 --    23 C    1.348    19 C    1.261    21 O    1.096
    21   8 O    2.222 --    20 C    1.096    22 C    0.984
    22   6 C    3.936 --    21 O    0.984    41 H    0.979    42 H    0.971
                            40 H    0.971
    23   6 C    3.872 --    20 C    1.348    15 C    1.319    43 H    0.962
    24   8 O    2.005 --    12 S    1.807
    25   1 H    0.995 --     1 C    0.979
    26   1 H    0.990 --     1 C    0.964
    27   1 H    0.995 --     1 C    0.979
    28   1 H    0.999 --     5 C    0.979
    29   1 H    0.999 --     5 C    0.980
    30   1 H    0.996 --     5 C    0.980
    31   1 H    0.994 --     7 C    0.979
    32   1 H    0.995 --     7 C    0.964
    33   1 H    0.996 --     7 C    0.970
    34   1 H    0.994 --     8 C    0.960
    35   1 H    0.992 --    11 C    0.965
    36   1 H    0.992 --    11 C    0.960
    37   1 H    0.956 --    17 N    0.864
    38   1 H    0.996 --    18 C    0.966
    39   1 H    0.997 --    19 C    0.968
    40   1 H    0.990 --    22 C    0.971
    41   1 H    0.995 --    22 C    0.979
    42   1 H    0.991 --    22 C    0.971
    43   1 H    0.996 --    23 C    0.962
 ---------------------------------------------------------------------------

Topologies differ in total number of bonds
Writing topology from bond orders to xtbtopo.mol

molecular dipole:
                 x           y           z       tot (Debye)
 q only:        0.001      -1.389       0.032
   full:       -0.404      -1.762       0.247       4.638
molecular quadrupole (traceless):
                xx          xy          yy          xz          yz          zz
 q only:       31.011      -0.710     -22.164      -0.240      -1.436      -8.847
  q+dip:       34.235      -0.774     -23.907       0.022       0.972     -10.327
   full:       33.688       0.028     -26.041      -2.107       0.403      -7.647


           -------------------------------------------------
          | TOTAL ENERGY              -70.192843351015 Eh   |
          | GRADIENT NORM               0.092960743866 Eh/α |
          | HOMO-LUMO GAP               0.289971344208 eV   |
           -------------------------------------------------

------------------------------------------------------------------------
 * finished run on 2025/05/15 at 16:37:15.027     
------------------------------------------------------------------------
 total:
 * wall-time:     0 d,  0 h,  0 min,  0.142 sec
 *  cpu-time:     0 d,  0 h,  0 min,  0.103 sec
 * ratio c/w:     0.726 speedup
 SCF:
 * wall-time:     0 d,  0 h,  0 min,  0.128 sec
 *  cpu-time:     0 d,  0 h,  0 min,  0.090 sec
 * ratio c/w:     0.707 speedup


