43
 energy: -70.310906461271 gnorm: 0.000828067730 xtb: 6.7.1 (edcfbbe)
C           -3.84686289197937       -2.58090832760201       -1.88599368274802
C           -3.17673336997882       -1.47601995317202       -1.13358277489759
C           -3.73930941819448       -0.19716862798317       -1.04789039058890
O           -4.92668784658841        0.07624350328394       -1.69695962892054
C           -6.07935387583304       -0.17255708519579       -0.91776316362859
C           -3.07759987746585        0.81769765488870       -0.35300919932300
C           -3.62900031996018        2.20791500089504       -0.31365512150600
C           -1.95465963060472       -1.66300958971557       -0.50563141268556
N           -1.33362988817835       -0.72424109500177        0.18401883106524
C           -1.87582020758033        0.48754879773932        0.28301095201391
C           -1.10964822320486        1.48817629855963        1.06353582454867
S            0.06099255938172        2.44025277474030       -0.09919106705584
C            1.47653052986424        1.36713136270771        0.22407676078732
N            2.70136297887212        1.79391457959994        0.32478626562385
C            3.46240092129676        0.66764850760591        0.48699041793215
C            2.62555592111633       -0.47321020706321        0.45701387612577
N            1.35522948235580        0.00962015089134        0.27407016723687
C            3.14457694736595       -1.75130388728693        0.60483231069701
C            4.50353768718066       -1.85973686540393        0.78122680847021
C            5.34674506966010       -0.73080768827620        0.81495408608701
O            6.66826546806783       -1.01997780901306        1.00360194533021
C            7.57861181630262        0.04996921137842        1.06817617310018
C            4.83801362769811        0.54603049569970        0.66711326564122
O            0.31515414714098        3.70935665733140        0.56655402999739
H           -4.50357608633878       -2.16955881659274       -2.64882807655006
H           -4.44285480348711       -3.19445717313355       -1.20905294440650
H           -3.10607865708586       -3.22310774152396       -2.35641735039202
H           -6.15120941287810       -1.22712529002238       -0.63261364876049
H           -6.08747654405734        0.44093907154484       -0.01057130650498
H           -6.92873085130580        0.09288194706303       -1.54408543629496
H           -4.44747424222908        2.29948831193347       -1.02262187090256
H           -3.99830007724600        2.45062866142509        0.68305399989615
H           -2.85642814166248        2.92877355096292       -0.57452409841282
H           -1.44865088806101       -2.61842304259938       -0.55532272805781
H           -0.51065083268329        1.02338044193460        1.84180814616925
H           -1.74204908520621        2.26188823928767        1.48974603039744
H            0.47265262181294       -0.50791389198613        0.25117606955499
H            2.50944276908324       -2.62333218258625        0.58355133605040
H            4.96794453270594       -2.82539314150012        0.90254083633582
H            7.59642984460534        0.61933567257744        0.13320984548127
H            8.55496748018621       -0.40297584370373        1.23351878078745
H            7.34637401455600        0.72492467885562        1.89833365668786
H            5.44799675255619        1.43248268845436        0.68671348562002
