57
 energy: -87.643008512335 gnorm: 0.000405246461 xtb: 6.7.1 (edcfbbe)
O           -2.30378095036204        1.67898229432574       -1.58739017921098
C           -3.05488440537647        0.79624219123860       -1.20871517584015
C           -2.68122944379563       -0.56264179641351       -0.89148532881157
C           -1.22739520082562       -0.89913486602093       -1.02785837240767
C           -0.47944013808510       -0.59398406010937        0.28017647464704
N            0.83166492277914       -1.21499034479216        0.29143579477754
C            1.36094167472953       -1.36939686650817        1.63650278697712
C            2.63575077714614       -2.20792306517874        1.60949015504899
C            3.69591680857610       -1.60766918274971        0.68527787777749
C            3.05781263821973       -1.33079993010459       -0.68475381027666
C            1.78997574135228       -0.49887721985344       -0.52950254423523
C            4.32017402118286       -0.36440612090470        1.22172074046431
N            3.82931567001879        0.35306135012303        2.18393335482850
O            4.65052709458219        1.42524623951787        2.42103571666529
C            5.68595778346525        1.36142176614745        1.56850353528268
C            5.54598776450205        0.22302119327894        0.75207022504653
C            6.50639479335984       -0.07318605717068       -0.21270263984143
C            7.57851538730520        0.77908109558454       -0.33832691594405
C            7.68349249346390        1.90232052069306        0.48675893192966
F            8.75404715992148        2.70225759638426        0.32256235397330
C            6.76040977631161        2.23230697568166        1.45480689647408
C           -3.62929295206723       -1.44355166311298       -0.45456749389405
N           -4.93614291351831       -1.09173470228659       -0.31416593522646
C           -5.28513117720966        0.11518609943154       -0.61000253324812
N           -4.42421072359348        1.05659429836955       -1.05552485806129
C           -4.93402408852887        2.39000365439579       -1.28776592729666
C           -5.70341005683625        2.84982261806036       -0.05138887874551
C           -6.82467531540895        1.85894214752033        0.30717281688066
C           -6.70844646181788        0.54928524673439       -0.48783526176204
C           -3.32578124226343       -2.86586812524993       -0.10300589937177
H           -0.81696591231250       -0.29034311993435       -1.83423530971270
H           -1.09108267884370       -1.95306602544803       -1.26801095373871
H           -1.05258847417842       -1.01063141848932        1.11322722904483
H           -0.42642101245865        0.49767833514571        0.42229159941984
H            1.57893003457147       -0.39694518836619        2.10476108938984
H            0.61251750661599       -1.88660138587108        2.24293168706837
H            3.02925266955850       -2.29173355867697        2.62286180261095
H            2.39018802038059       -3.20657899855929        1.24371410207091
H            4.50871594306379       -2.33304881056307        0.55169612086355
H            2.79376767384078       -2.28478127309139       -1.14304633542647
H            3.76211326776591       -0.81222668831724       -1.33795690288031
H            1.35200021850111       -0.32732746255455       -1.51369925739361
H            2.03806645044103        0.48410553963257       -0.08926749181025
H            6.41184878116046       -0.94583467277154       -0.83934018780649
H            8.35342165433439        0.60142095725459       -1.06677347507353
H            6.87114933092334        3.10363950795998        2.07684014512784
H           -4.07116937662625        3.03053688454886       -1.48639551063810
H           -5.58341262031870        2.38637829773751       -2.16938718274541
H           -6.10841119527346        3.84476526569925       -0.23421419767747
H           -4.99628011304401        2.92601791986219        0.77635149788417
H           -7.80214979250377        2.29928889017579        0.10779769771461
H           -6.78058823874035        1.62862228956369        1.37189102411106
H           -7.27988776819958       -0.24780171230072       -0.01532873498470
H           -7.10401380016085        0.69991154661165       -1.49636054185841
H           -3.00466482200808       -3.41201375211581       -0.98874770620615
H           -2.52934163057149       -2.92242300526335        0.63495458631853
H           -4.22393355314841       -3.33041964889799        0.29278929972725
