33
 energy: -45.170718659061 gnorm: 0.000320329514 xtb: 6.7.1 (edcfbbe)
C            3.27813424861066       -0.72418453247001       -0.49889455309028
C            3.07658593910908        0.70694550152903       -0.00996687922748
C            2.10329005683628        0.74500955817039        1.18107373300060
C            0.72767161169044        0.28738944330921        0.79417586281292
C           -0.11602567677864        1.12621672371445        0.07539946953586
C           -1.37671294432280        0.71003766625476       -0.30678528249022
C           -1.82859061012200       -0.56339353996888        0.01740993918554
C           -3.21047145572975       -1.02930582402645       -0.39316330328782
C           -4.20428582939125       -0.15511468735756        0.34281191724705
O           -4.45533909699538        1.00363734909495       -0.27921489814679
O           -4.70599864688869       -0.43545406500566        1.39883102458721
C           -3.40562721287536       -0.99100137203153       -1.90866219886142
C           -0.99185015567974       -1.40202508918848        0.73981894060305
C            0.27034180374018       -0.98224461587800        1.11971958829404
C            4.41344850976004        1.32831729394030        0.38592506579779
H            2.32988991065379       -1.16382654682789       -0.79945606373598
H            3.95220270739513       -0.74271297974960       -1.35244881252093
H            3.70878899450123       -1.33739488353671        0.29030909067974
H            2.64319947053725        1.29536180571900       -0.82646077004739
H            2.49519514923753        0.11175025811951        1.97950703621609
H            2.05026366405799        1.77031409153270        1.55544928385450
H            0.21663940294670        2.12231974754003       -0.18070343202081
H           -2.01880833616850        1.38497504155537       -0.85269957538150
H           -3.35685121301942       -2.04974740934187       -0.02627400226745
H           -5.06331348163980        1.54056431404426        0.25253104212664
H           -2.65917537042241       -1.62049379709932       -2.38756782378729
H           -3.30327667894327        0.02154709311550       -2.28675603643677
H           -4.39471724379377       -1.36055300275082       -2.17009076248348
H           -1.32879033663929       -2.39277603581827        1.00909625909452
H            0.90624898139627       -1.65091724821091        1.68207832170924
H            4.86306717734611        0.77077902359605        1.20516093981547
H            4.28164188430968        2.35998268346751        0.70512123027260
H            5.10302477728140        1.31589803455810       -0.45517435104679
