39
 energy: -51.132176545573 gnorm: 0.000288494783 xtb: 6.7.1 (edcfbbe)
C           -1.85016491311130        2.39811968069288        0.19943949377630
C           -2.62698781194986        1.16623759535706       -0.16270530558739
C           -3.95166476613216        1.25263566560808       -0.55836344236913
C           -4.66596507634108        0.11213792671351       -0.88002725555807
C           -4.04889450053143       -1.12273267028719       -0.83033967223997
C           -2.71779708607220       -1.24789368821306       -0.45275263335110
C           -2.05392280249794       -2.58742264424610       -0.45699119254143
C           -2.01874334701988       -0.09259436485506       -0.09589038445158
N           -0.66914674045273       -0.14749750783771        0.30760349321324
C           -0.12865373273565       -0.86980239285309        1.31128418494551
C            1.34520840208577       -0.51622178975201        1.54782624920211
N            1.92291681674893        0.19538310508780        0.42231457221743
C            2.33157218679278       -0.70365302258487       -0.64961999866200
C            3.62612627245217       -1.48927596732955       -0.42017955460801
C            2.90973033874594        1.19440690331043        0.80627473618668
C            3.27436567474141        2.11812382921099       -0.35078399396527
O           -0.70975178536050       -1.68146621362463        1.99924562114416
H           -1.05147013352497        2.57892681756378       -0.52200950000517
H           -2.50146372835615        3.26816521355086        0.20846164947806
H           -1.39803332568724        2.29148879064449        1.18482846673846
H           -4.42940669986256        2.22048555744578       -0.60606429903737
H           -5.70119126957723        0.18893454089705       -1.17716438546595
H           -4.60308347603139       -2.01057855511321       -1.09808170933694
H           -2.68188951944064       -3.32508717319141       -0.94969918696527
H           -1.09491273543803       -2.53605776125629       -0.97214105648326
H           -1.85964231844243       -2.91156770452976        0.56492149727736
H           -0.04141521420179        0.56037668423787       -0.06243870201689
H            1.36399097309884        0.12273102153410        2.43565292003410
H            1.87670088916237       -1.44067200783108        1.81124903192036
H            2.42806871744795       -0.11261799268541       -1.56420498193947
H            1.50922651912221       -1.40843177885057       -0.79809580549687
H            4.48764317031715       -0.82704635107238       -0.38477997282845
H            3.58237631324109       -2.05208098726143        0.50933409416105
H            3.76931361637980       -2.19215352801271       -1.23651770003503
H            3.82544632786874        0.74380933527882        1.22093395638838
H            2.45416396272130        1.79840668008313        1.59687842514796
H            3.86570131693282        1.60356073236184       -1.10299954014614
H            3.85802612102582        2.95464868969592        0.02528709233834
H            2.37352336388507        2.50647533210772       -0.81968521108050
