----- Optimization -----
      -----------------------------------------------------------      
     |                   =====================                   |     
     |                           x T B                           |     
     |                   =====================                   |     
     |                         S. Grimme                         |     
     |          Mulliken Center for Theoretical Chemistry        |     
     |                    University of Bonn                     |     
      -----------------------------------------------------------      

   * xtb version 6.7.1 (edcfbbe) compiled by 'conda@3ef47c1a292c' on 2024-11-25

   xtb is free software: you can redistribute it and/or modify it under
   the terms of the GNU Lesser General Public License as published by
   the Free Software Foundation, either version 3 of the License, or
   (at your option) any later version.
   
   xtb is distributed in the hope that it will be useful,
   but WITHOUT ANY WARRANTY; without even the implied warranty of
   MERCHANTABILITY or FITNESS FOR A PARTICULAR PURPOSE.  See the
   GNU Lesser General Public License for more details.
   
   Cite this work as:
   * C. Bannwarth, E. Caldeweyher, S. Ehlert, A. Hansen, P. Pracht,
     J. Seibert, S. Spicher, S. Grimme, WIREs Comput. Mol. Sci., 2020, 11,
     e01493. DOI: 10.1002/wcms.1493
   
   for GFN2-xTB:
   * C. Bannwarth, S. Ehlert and S. Grimme., J. Chem. Theory Comput., 2019,
     15, 1652-1671. DOI: 10.1021/acs.jctc.8b01176
   for GFN1-xTB:
   * S. Grimme, C. Bannwarth, P. Shushkov, J. Chem. Theory Comput., 2017,
     13, 1989-2009. DOI: 10.1021/acs.jctc.7b00118
   for GFN0-xTB:
   * P. Pracht, E. Caldeweyher, S. Ehlert, S. Grimme, ChemRxiv, 2019, preprint.
     DOI: 10.26434/chemrxiv.8326202.v1
   for GFN-FF:
   * S. Spicher and S. Grimme, Angew. Chem. Int. Ed., 2020, 59, 15665-15673.
     DOI: 10.1002/anie.202004239
   
   for ALPB and GBSA implicit solvation:
   * S. Ehlert, M. Stahn, S. Spicher, S. Grimme, J. Chem. Theory Comput.,
     2021, 17, 4250-4261. DOI: 10.1021/acs.jctc.1c00471
   
   for ddCOSMO and CPCM-X implicit solvation:
   * M. Stahn, S. Ehlert, S. Grimme, J. Phys. Chem. A,
     2023, XX, XXXX-XXXX. DOI: 10.1021/acs.jpca.3c04382
   
   for DFT-D4:
   * E. Caldeweyher, C. Bannwarth and S. Grimme, J. Chem. Phys., 2017,
     147, 034112. DOI: 10.1063/1.4993215
   * E. Caldeweyher, S. Ehlert, A. Hansen, H. Neugebauer, S. Spicher,
     C. Bannwarth and S. Grimme, J. Chem. Phys., 2019, 150, 154122.
     DOI: 10.1063/1.5090222
   * E. Caldeweyher, J.-M. Mewes, S. Ehlert and S. Grimme, Phys. Chem. Chem. Phys.
     2020, 22, 8499-8512. DOI: 10.1039/D0CP00502A
   
   for sTDA-xTB:
   * S. Grimme and C. Bannwarth, J. Chem. Phys., 2016, 145, 054103.
     DOI: 10.1063/1.4959605
   
   in the mass-spec context:
   * V. Asgeirsson, C. Bauer and S. Grimme, Chem. Sci., 2017, 8, 4879.
     DOI: 10.1039/c7sc00601b
   * J. Koopman and S. Grimme, ACS Omega 2019, 4, 12, 15120-15133.
     DOI: 10.1021/acsomega.9b02011
   
   for metadynamics refer to:
   * S. Grimme, J. Chem. Theory Comput., 2019, 155, 2847-2862
     DOI: 10.1021/acs.jctc.9b00143
   
   for SPH calculations refer to:
   * S. Spicher and S. Grimme, J. Chem. Theory Comput., 2021, 17, 1701-1714
     DOI: 10.1021/acs.jctc.0c01306
   
   for ONIOM refer to:
   * C. Plett, A. Katbashev, S. Ehlert, S. Grimme, M. Bursch,
     Phys. Chem. Chem. Phys., 2023, 25, 17860-17868. DOI: 10.1039/D3CP02178E
   
   for DIPRO refer to:
   * J. Kohn, N. Gildemeister, S. Grimme, D. Fazzi, A. Hansen,
     J. Chem. Phys., 2023, just accepted.
   
   for PTB refer to:
   * S. Grimme, M. Mueller, A. Hansen, J. Chem. Phys., 2023, 158, 124111.
     DOI: 10.1063/5.0137838
   
   with help from (in alphabetical order)
   P. Atkinson, C. Bannwarth, F. Bohle, G. Brandenburg, E. Caldeweyher
   M. Checinski, S. Dohm, S. Ehlert, S. Ehrlich, I. Gerasimov, C. Hölzer
   A. Katbashev, J. Kohn, J. Koopman, C. Lavigne, S. Lehtola, F. März, M. Müller,
   F. Musil, H. Neugebauer, J. Pisarek, C. Plett, P. Pracht, F. Pultar,
   J. Seibert, P. Shushkov, S. Spicher, M. Stahn, M. Steiner, T. Strunk,
   J. Stückrath, T. Rose, and J. Unsleber
   
 * started run on 2025/05/15 at 16:08:31.310     
   ID    Z sym.   atoms
    1    6 C      1-8, 10, 11, 13-16
    2    7 N      9, 12
    3    8 O      17
    4    1 H      18-39

           -------------------------------------------------
          |                Calculation Setup                |
           -------------------------------------------------

          program call               : xtb /rds/general/user/hgt20/home/callum/QDESCP/Lidocaine_rdkit_conf_11/Lidocaine_rdkit_conf_11.xyz --opt normal --acc 1 --gfn 2 --chrg 0 --uhf 0 -P 1
          hostname                   : login-c
          coordinate file            : /rds/general/user/hgt20/home/callum/QDESCP/Lidocaine_rdkit_conf_11/Lidocaine_rdkit_conf_11.xyz
          omp threads                :                     1


           -------------------------------------------------
          |                 G F N 2 - x T B                 |
           -------------------------------------------------

        Reference                      10.1021/acs.jctc.8b01176
      * Hamiltonian:
        H0-scaling (s, p, d)           1.850000    2.230000    2.230000
        zeta-weighting                 0.500000
      * Dispersion:
        s8                             2.700000
        a1                             0.520000
        a2                             5.000000
        s9                             5.000000
      * Repulsion:
        kExp                           1.500000    1.000000
        rExp                           1.000000
      * Coulomb:
        alpha                          2.000000
        third order                    shell-resolved
        anisotropic                    true
        a3                             3.000000
        a5                             4.000000
        cn-shift                       1.200000
        cn-exp                         4.000000
        max-rad                        5.000000


          ...................................................
          :                      SETUP                      :
          :.................................................:
          :  # basis functions                  90          :
          :  # atomic orbitals                  90          :
          :  # shells                           56          :
          :  # electrons                        94          :
          :  max. iterations                   250          :
          :  Hamiltonian                  GFN2-xTB          :
          :  restarted?                      false          :
          :  GBSA solvation                  false          :
          :  PC potential                    false          :
          :  electronic temp.          300.0000000     K    :
          :  accuracy                    1.0000000          :
          :  -> integral cutoff          0.2500000E+02      :
          :  -> integral neglect         0.1000000E-07      :
          :  -> SCF convergence          0.1000000E-05 Eh   :
          :  -> wf. convergence          0.1000000E-03 e    :
          :  Broyden damping             0.4000000          :
          :  net charge                          0          :
          :  unpaired electrons                  0          :
          ...................................................

 iter      E             dE          RMSdq      gap      omega  full diag
   1    -51.7377848 -0.517378E+02  0.345E+00    3.49       0.0  T
   2    -51.8251064 -0.873215E-01  0.196E+00    3.74       1.0  T
   3    -51.8275809 -0.247459E-02  0.957E-01    3.69       1.0  T
   4    -51.8298584 -0.227748E-02  0.234E-01    3.55       1.0  T
   5    -51.8314115 -0.155306E-02  0.869E-02    3.60       1.0  T
   6    -51.8315567 -0.145216E-03  0.423E-02    3.61       1.0  T
   7    -51.8315748 -0.181330E-04  0.195E-02    3.60       1.0  T
   8    -51.8315793 -0.450496E-05  0.506E-03    3.61       3.2  T
   9    -51.8315795 -0.110088E-06  0.221E-03    3.61       7.2  T
  10    -51.8315795 -0.749691E-07  0.108E-03    3.61      14.8  T
  11    -51.8315795 -0.674136E-08  0.424E-04    3.61      37.7  T
  12    -51.8315795 -0.963297E-09  0.976E-05    3.61     164.1  T

   *** convergence criteria satisfied after 12 iterations ***

         #    Occupation            Energy/Eh            Energy/eV
      -------------------------------------------------------------
         1        2.0000           -0.6897188             -18.7682
       ...           ...                  ...                  ...
        41        2.0000           -0.4318871             -11.7522
        42        2.0000           -0.4193983             -11.4124
        43        2.0000           -0.4182311             -11.3806
        44        2.0000           -0.3907850             -10.6338
        45        2.0000           -0.3810349             -10.3685
        46        2.0000           -0.3697152             -10.0605
        47        2.0000           -0.3629400              -9.8761 (HOMO)
        48                         -0.2304557              -6.2710 (LUMO)
        49                         -0.2165855              -5.8936
        50                         -0.1903326              -5.1792
        51                         -0.0920609              -2.5051
        52                         -0.0176006              -0.4789
       ...                                ...                  ...
        90                          0.6406071              17.4318
      -------------------------------------------------------------
                  HL-Gap            0.1324843 Eh            3.6051 eV
             Fermi-level           -0.2966979 Eh           -8.0736 eV

 SCC (total)                   0 d,  0 h,  0 min,  0.043 sec
 SCC setup                      ...        0 min,  0.000 sec (  0.769%)
 Dispersion                     ...        0 min,  0.000 sec (  0.903%)
 classical contributions        ...        0 min,  0.000 sec (  0.292%)
 integral evaluation            ...        0 min,  0.006 sec ( 13.624%)
 iterations                     ...        0 min,  0.018 sec ( 43.182%)
 molecular gradient             ...        0 min,  0.017 sec ( 40.916%)
 printout                       ...        0 min,  0.000 sec (  0.297%)

         :::::::::::::::::::::::::::::::::::::::::::::::::::::
         ::                     SUMMARY                     ::
         :::::::::::::::::::::::::::::::::::::::::::::::::::::
         :: total energy             -51.120915742220 Eh    ::
         :: gradient norm              0.059951098229 Eh/a0 ::
         :: HOMO-LUMO gap              3.605080163953 eV    ::
         ::.................................................::
         :: SCC energy               -51.831156803495 Eh    ::
         :: -> isotropic ES            0.046797560696 Eh    ::
         :: -> anisotropic ES          0.009236438975 Eh    ::
         :: -> anisotropic XC          0.029016105472 Eh    ::
         :: -> dispersion             -0.035990911182 Eh    ::
         :: repulsion energy           0.710241061275 Eh    ::
         :: add. restraining           0.000000000000 Eh    ::
         :: total charge              -0.000000000000 e     ::
         :::::::::::::::::::::::::::::::::::::::::::::::::::::

      ----------------------------------------------------------- 
     |                   =====================                   |
     |                        A N C O P T                        |
     |                   =====================                   |
     |               Approximate Normal Coordinate               |
     |                Rational Function Optimizer                |
      ----------------------------------------------------------- 
      ----------------------------------------------------------- 
     |                   =====================                   |
     |                        A N C O P T                        |
     |                   =====================                   |
     |               Approximate Normal Coordinate               |
     |                Rational Function Optimizer                |
      ----------------------------------------------------------- 

          ...................................................
          :                      SETUP                      :
          :.................................................:
          :   optimization level            normal          :
          :   max. optcycles                   200          :
          :   ANC micro-cycles                  20          :
          :   degrees of freedom               111          :
          :.................................................:
          :   RF solver                   davidson          :
          :   write xtbopt.log                true          :
          :   linear?                        false          :
          :   energy convergence         0.5000000E-05 Eh   :
          :   grad. convergence          0.1000000E-02 Eh/α :
          :   maxmium RF displ.          1.0000000          :
          :   Hlow (freq-cutoff)         0.1000000E-01      :
          :   Hmax (freq-cutoff)         5.0000000          :
          :   S6 in model hess.         20.0000000          :
          ...................................................

generating ANC from exact Hessian ...
Using Lindh-Hessian (1995)
 Shifting diagonal of input Hessian by    9.7290492632515334E-003
 Lowest  eigenvalues of input Hessian
    0.000000    0.000000    0.000000    0.000000    0.000000    0.000000
    0.010000    0.010102    0.010405    0.011122    0.012011    0.012100
    0.013748    0.014962    0.015251    0.015546    0.016259    0.017526
 Highest eigenvalues
    1.555406    1.801075    1.827711    1.932985    2.018413    2.252687


........................................................................
.............................. CYCLE    1 ..............................
........................................................................

 iter      E             dE          RMSdq      gap      omega  full diag
   1    -51.8315795 -0.518316E+02  0.518E-05    3.61       0.0  T
   2    -51.8315795 -0.170601E-10  0.299E-05    3.61     536.0  T
   3    -51.8315795 -0.110489E-10  0.194E-05    3.61     827.0  T
     SCC iter.                  ...        0 min,  0.005 sec
     gradient                   ...        0 min,  0.017 sec
 * total energy  :   -51.1209157 Eh     change       -0.1367937E-09 Eh
   gradient norm :     0.0599511 Eh/α   predicted     0.0000000E+00 (-100.00%)
   displ. norm   :     0.2978703 α      lambda       -0.9388621E-02
   maximum displ.:     0.1132954 α      in ANC's #35, #12, #16, ...

........................................................................
.............................. CYCLE    2 ..............................
........................................................................

 iter      E             dE          RMSdq      gap      omega  full diag
   1    -51.8707257 -0.518707E+02  0.190E-01    3.66       0.0  T
   2    -51.8707754 -0.496980E-04  0.113E-01    3.65       1.0  T
   3    -51.8707648  0.105247E-04  0.289E-02    3.66       1.0  T
   4    -51.8707833 -0.184804E-04  0.508E-03    3.65       3.1  T
   5    -51.8707836 -0.301668E-06  0.278E-03    3.65       5.8  T
   6    -51.8707836 -0.235919E-07  0.131E-03    3.65      12.3  T
   7    -51.8707837 -0.419831E-07  0.410E-04    3.65      39.1  T
   8    -51.8707837 -0.152654E-08  0.169E-04    3.65      94.9  T
     SCC iter.                  ...        0 min,  0.011 sec
     gradient                   ...        0 min,  0.017 sec
 * total energy  :   -51.1271268 Eh     change       -0.6211030E-02 Eh
   gradient norm :     0.0213861 Eh/α   predicted    -0.5111430E-02 ( -17.70%)
   displ. norm   :     0.2850436 α      lambda       -0.2325057E-02
   maximum displ.:     0.1231492 α      in ANC's #12, #8, #16, ...

........................................................................
.............................. CYCLE    3 ..............................
........................................................................

 iter      E             dE          RMSdq      gap      omega  full diag
   1    -51.8869948 -0.518870E+02  0.110E-01    3.64       0.0  T
   2    -51.8870182 -0.234293E-04  0.648E-02    3.65       1.0  T
   3    -51.8870143  0.385736E-05  0.193E-02    3.65       1.0  T
   4    -51.8870204 -0.602036E-05  0.484E-03    3.65       3.3  T
   5    -51.8870211 -0.703686E-06  0.168E-03    3.65       9.5  T
   6    -51.8870211 -0.183063E-07  0.800E-04    3.65      20.0  T
   7    -51.8870211 -0.588120E-08  0.238E-04    3.65      67.4  T
     SCC iter.                  ...        0 min,  0.010 sec
     gradient                   ...        0 min,  0.017 sec
 * total energy  :   -51.1286491 Eh     change       -0.1522340E-02 Eh
   gradient norm :     0.0084819 Eh/α   predicted    -0.1257685E-02 ( -17.38%)
   displ. norm   :     0.3006621 α      lambda       -0.9584382E-03
   maximum displ.:     0.1342681 α      in ANC's #8, #12, #4, ...

........................................................................
.............................. CYCLE    4 ..............................
........................................................................

 iter      E             dE          RMSdq      gap      omega  full diag
   1    -51.8900719 -0.518901E+02  0.913E-02    3.64       0.0  T
   2    -51.8900853 -0.133401E-04  0.525E-02    3.65       1.0  T
   3    -51.8900819  0.337437E-05  0.166E-02    3.64       1.0  T
   4    -51.8900867 -0.481819E-05  0.416E-03    3.64       3.8  T
   5    -51.8900872 -0.480098E-06  0.130E-03    3.65      12.4  T
   6    -51.8900872 -0.788007E-08  0.511E-04    3.64      31.3  T
   7    -51.8900872 -0.113183E-08  0.222E-04    3.64      72.1  T
     SCC iter.                  ...        0 min,  0.010 sec
     gradient                   ...        0 min,  0.017 sec
 * total energy  :   -51.1293949 Eh     change       -0.7458257E-03 Eh
   gradient norm :     0.0084702 Eh/α   predicted    -0.5225402E-03 ( -29.94%)
   displ. norm   :     0.4467656 α      lambda       -0.1036237E-02
   maximum displ.:     0.2020844 α      in ANC's #8, #12, #4, ...

........................................................................
.............................. CYCLE    5 ..............................
........................................................................

 iter      E             dE          RMSdq      gap      omega  full diag
   1    -51.8880750 -0.518881E+02  0.130E-01    3.63       0.0  T
   2    -51.8880891 -0.141634E-04  0.753E-02    3.64       1.0  T
   3    -51.8880795  0.966736E-05  0.222E-02    3.64       1.0  T
   4    -51.8880921 -0.126676E-04  0.437E-03    3.64       3.7  T
   5    -51.8880925 -0.390521E-06  0.171E-03    3.64       9.3  T
   6    -51.8880925 -0.128947E-07  0.687E-04    3.64      23.3  T
   7    -51.8880925 -0.174364E-08  0.300E-04    3.64      53.4  T
     SCC iter.                  ...        0 min,  0.010 sec
     gradient                   ...        0 min,  0.018 sec
 * total energy  :   -51.1301305 Eh     change       -0.7355592E-03 Eh
   gradient norm :     0.0118340 Eh/α   predicted    -0.6215366E-03 ( -15.50%)
   displ. norm   :     0.3509502 α      lambda       -0.6019773E-03
   maximum displ.:     0.1448466 α      in ANC's #8, #1, #2, ...

........................................................................
.............................. CYCLE    6 ..............................
........................................................................

 iter      E             dE          RMSdq      gap      omega  full diag
   1    -51.8865763 -0.518866E+02  0.894E-02    3.65       0.0  T
   2    -51.8865798 -0.349625E-05  0.522E-02    3.65       1.0  T
   3    -51.8865750  0.481351E-05  0.142E-02    3.65       1.1  T
   4    -51.8865810 -0.607949E-05  0.224E-03    3.65       7.1  T
   5    -51.8865811 -0.569879E-07  0.109E-03    3.65      14.7  T
   6    -51.8865811 -0.344041E-08  0.447E-04    3.65      35.8  T
   7    -51.8865811 -0.218910E-08  0.165E-04    3.65      96.8  T
     SCC iter.                  ...        0 min,  0.018 sec
     gradient                   ...        0 min,  0.017 sec
 * total energy  :   -51.1305619 Eh     change       -0.4313953E-03 Eh
   gradient norm :     0.0097152 Eh/α   predicted    -0.3380620E-03 ( -21.64%)
   displ. norm   :     0.2885316 α      lambda       -0.4165219E-03
   maximum displ.:     0.1376946 α      in ANC's #2, #1, #8, ...

........................................................................
.............................. CYCLE    7 ..............................
........................................................................

 iter      E             dE          RMSdq      gap      omega  full diag
   1    -51.8869259 -0.518869E+02  0.679E-02    3.67       0.0  T
   2    -51.8869284 -0.255900E-05  0.398E-02    3.66       1.0  T
   3    -51.8869268  0.162369E-05  0.872E-03    3.66       1.8  T
   4    -51.8869289 -0.209891E-05  0.197E-03    3.66       8.1  T
   5    -51.8869290 -0.791648E-07  0.822E-04    3.66      19.5  T
   6    -51.8869290 -0.213057E-08  0.361E-04    3.66      44.4  T
     SCC iter.                  ...        0 min,  0.009 sec
     gradient                   ...        0 min,  0.018 sec
 * total energy  :   -51.1308703 Eh     change       -0.3084478E-03 Eh
   gradient norm :     0.0064167 Eh/α   predicted    -0.2256011E-03 ( -26.86%)
   displ. norm   :     0.2971619 α      lambda       -0.3180086E-03
   maximum displ.:     0.1626869 α      in ANC's #2, #1, #6, ...

........................................................................
.............................. CYCLE    8 ..............................
........................................................................

 iter      E             dE          RMSdq      gap      omega  full diag
   1    -51.8878012 -0.518878E+02  0.632E-02    3.68       0.0  T
   2    -51.8878033 -0.210729E-05  0.372E-02    3.68       1.0  T
   3    -51.8878024  0.935478E-06  0.646E-03    3.68       2.5  T
   4    -51.8878036 -0.123958E-05  0.177E-03    3.68       9.0  T
   5    -51.8878037 -0.836763E-07  0.755E-04    3.68      21.2  T
   6    -51.8878037 -0.198600E-08  0.274E-04    3.68      58.4  T
     SCC iter.                  ...        0 min,  0.009 sec
     gradient                   ...        0 min,  0.018 sec
 * total energy  :   -51.1311111 Eh     change       -0.2407836E-03 Eh
   gradient norm :     0.0045951 Eh/α   predicted    -0.1730461E-03 ( -28.13%)
   displ. norm   :     0.2975504 α      lambda       -0.2538271E-03
   maximum displ.:     0.1789480 α      in ANC's #2, #1, #6, ...

........................................................................
.............................. CYCLE    9 ..............................
........................................................................

 iter      E             dE          RMSdq      gap      omega  full diag
   1    -51.8893030 -0.518893E+02  0.568E-02    3.69       0.0  T
   2    -51.8893043 -0.127291E-05  0.333E-02    3.69       1.0  T
   3    -51.8893034  0.830137E-06  0.521E-03    3.69       3.1  T
   4    -51.8893045 -0.106380E-05  0.145E-03    3.69      11.0  T
   5    -51.8893046 -0.614098E-07  0.641E-04    3.69      25.0  T
   6    -51.8893046 -0.135802E-08  0.194E-04    3.69      82.7  T
     SCC iter.                  ...        0 min,  0.012 sec
     gradient                   ...        0 min,  0.017 sec
 * total energy  :   -51.1313048 Eh     change       -0.1937030E-03 Eh
   gradient norm :     0.0043069 Eh/α   predicted    -0.1381516E-03 ( -28.68%)
   displ. norm   :     0.3056812 α      lambda       -0.2032068E-03
   maximum displ.:     0.1857487 α      in ANC's #2, #1, #6, ...

........................................................................
.............................. CYCLE   10 ..............................
........................................................................

 iter      E             dE          RMSdq      gap      omega  full diag
   1    -51.8900034 -0.518900E+02  0.512E-02    3.69       0.0  T
   2    -51.8900043 -0.915460E-06  0.301E-02    3.69       1.0  T
   3    -51.8900040  0.312475E-06  0.369E-03    3.69       4.3  T
   4    -51.8900044 -0.461349E-06  0.127E-03    3.69      12.6  T
   5    -51.8900045 -0.455799E-07  0.592E-04    3.69      27.1  T
   6    -51.8900045 -0.142772E-08  0.140E-04    3.69     114.3  T
     SCC iter.                  ...        0 min,  0.009 sec
     gradient                   ...        0 min,  0.018 sec
 * total energy  :   -51.1314620 Eh     change       -0.1571867E-03 Eh
   gradient norm :     0.0046142 Eh/α   predicted    -0.1111008E-03 ( -29.32%)
   displ. norm   :     0.2928746 α      lambda       -0.1757898E-03
   maximum displ.:     0.1843592 α      in ANC's #2, #6, #1, ...

........................................................................
.............................. CYCLE   11 ..............................
........................................................................

 iter      E             dE          RMSdq      gap      omega  full diag
   1    -51.8913218 -0.518913E+02  0.463E-02    3.68       0.0  T
   2    -51.8913229 -0.113888E-05  0.269E-02    3.68       1.0  T
   3    -51.8913226  0.315674E-06  0.409E-03    3.68       3.9  T
   4    -51.8913231 -0.463323E-06  0.128E-03    3.68      12.5  T
   5    -51.8913231 -0.467570E-07  0.568E-04    3.68      28.2  T
   6    -51.8913231 -0.142440E-08  0.155E-04    3.68     103.1  T
     SCC iter.                  ...        0 min,  0.008 sec
     gradient                   ...        0 min,  0.018 sec
 * total energy  :   -51.1315900 Eh     change       -0.1280257E-03 Eh
   gradient norm :     0.0043065 Eh/α   predicted    -0.9543452E-04 ( -25.46%)
   displ. norm   :     0.2835610 α      lambda       -0.1293195E-03
   maximum displ.:     0.1774140 α      in ANC's #2, #6, #1, ...

........................................................................
.............................. CYCLE   12 ..............................
........................................................................

 iter      E             dE          RMSdq      gap      omega  full diag
   1    -51.8899685 -0.518900E+02  0.447E-02    3.66       0.0  T
   2    -51.8899692 -0.637517E-06  0.262E-02    3.66       1.0  T
   3    -51.8899689  0.232813E-06  0.357E-03    3.66       4.5  T
   4    -51.8899693 -0.389622E-06  0.113E-03    3.66      14.2  T
   5    -51.8899693 -0.178449E-07  0.560E-04    3.66      28.6  T
   6    -51.8899694 -0.196906E-08  0.119E-04    3.66     135.0  T
     SCC iter.                  ...        0 min,  0.009 sec
     gradient                   ...        0 min,  0.018 sec
 * total energy  :   -51.1316702 Eh     change       -0.8018484E-04 Eh
   gradient norm :     0.0043351 Eh/α   predicted    -0.6986141E-04 ( -12.87%)
   displ. norm   :     0.1791933 α      lambda       -0.9467906E-04
   maximum displ.:     0.1158075 α      in ANC's #2, #4, #6, ...

........................................................................
.............................. CYCLE   13 ..............................
........................................................................

 iter      E             dE          RMSdq      gap      omega  full diag
   1    -51.8919270 -0.518919E+02  0.354E-02    3.66       0.0  T
   2    -51.8919279 -0.832609E-06  0.207E-02    3.66       1.0  T
   3    -51.8919278  0.130003E-06  0.311E-03    3.66       5.2  T
   4    -51.8919280 -0.233120E-06  0.995E-04    3.65      16.1  T
   5    -51.8919280 -0.207204E-07  0.478E-04    3.65      33.5  T
     SCC iter.                  ...        0 min,  0.007 sec
     gradient                   ...        0 min,  0.018 sec
 * total energy  :   -51.1317221 Eh     change       -0.5186261E-04 Eh
   gradient norm :     0.0056674 Eh/α   predicted    -0.4886050E-04 (  -5.79%)
   displ. norm   :     0.1153816 α      lambda       -0.5947382E-04
   maximum displ.:     0.0857028 α      in ANC's #2, #1, #4, ...

........................................................................
.............................. CYCLE   14 ..............................
........................................................................

 iter      E             dE          RMSdq      gap      omega  full diag
   1    -51.8908547 -0.518909E+02  0.232E-02    3.64       0.0  T
   2    -51.8908592 -0.451189E-05  0.133E-02    3.64       1.2  T
   3    -51.8908594 -0.194461E-06  0.651E-03    3.64       2.5  T
   4    -51.8908595 -0.725298E-07  0.174E-03    3.64       9.2  T
   5    -51.8908596 -0.888280E-07  0.495E-04    3.64      32.4  T
   6    -51.8908596 -0.313944E-08  0.198E-04    3.64      80.8  T
     SCC iter.                  ...        0 min,  0.009 sec
     gradient                   ...        0 min,  0.039 sec
 * total energy  :   -51.1317538 Eh     change       -0.3166708E-04 Eh
   gradient norm :     0.0033695 Eh/α   predicted    -0.3013359E-04 (  -4.84%)
   displ. norm   :     0.0772042 α      lambda       -0.4528287E-04
   maximum displ.:     0.0576840 α      in ANC's #2, #1, #4, ...

........................................................................
.............................. CYCLE   15 ..............................
........................................................................

 iter      E             dE          RMSdq      gap      omega  full diag
   1    -51.8907761 -0.518908E+02  0.205E-02    3.65       0.0  T
   2    -51.8907765 -0.382811E-06  0.120E-02    3.65       1.3  T
   3    -51.8907764  0.999083E-07  0.280E-03    3.64       5.7  T
   4    -51.8907765 -0.156475E-06  0.672E-04    3.64      23.8  T
   5    -51.8907765 -0.875508E-08  0.329E-04    3.64      48.7  T
     SCC iter.                  ...        0 min,  0.007 sec
     gradient                   ...        0 min,  0.018 sec
 * total energy  :   -51.1317869 Eh     change       -0.3311477E-04 Eh
   gradient norm :     0.0018312 Eh/α   predicted    -0.2277656E-04 ( -31.22%)
   displ. norm   :     0.1482643 α      lambda       -0.4542592E-04
   maximum displ.:     0.1035931 α      in ANC's #2, #6, #1, ...

........................................................................
.............................. CYCLE   16 ..............................
........................................................................

 iter      E             dE          RMSdq      gap      omega  full diag
   1    -51.8903047 -0.518903E+02  0.354E-02    3.65       0.0  T
   2    -51.8903051 -0.444018E-06  0.209E-02    3.65       1.0  T
   3    -51.8903049  0.276366E-06  0.391E-03    3.65       4.1  T
   4    -51.8903053 -0.409346E-06  0.917E-04    3.65      17.5  T
   5    -51.8903053 -0.719882E-08  0.476E-04    3.65      33.6  T
     SCC iter.                  ...        0 min,  0.007 sec
     gradient                   ...        0 min,  0.018 sec
 * total energy  :   -51.1318296 Eh     change       -0.4275581E-04 Eh
   gradient norm :     0.0027809 Eh/α   predicted    -0.2293834E-04 ( -46.35%)
   displ. norm   :     0.0861610 α      lambda       -0.3160458E-04
   maximum displ.:     0.0570694 α      in ANC's #2, #6, #1, ...

........................................................................
.............................. CYCLE   17 ..............................
........................................................................

 iter      E             dE          RMSdq      gap      omega  full diag
   1    -51.8906227 -0.518906E+02  0.167E-02    3.65       0.0  T
   2    -51.8906228 -0.692340E-07  0.985E-03    3.65       1.6  T
   3    -51.8906227  0.415404E-07  0.126E-03    3.66      12.7  T
   4    -51.8906228 -0.657286E-07  0.430E-04    3.66      37.2  T
   5    -51.8906228 -0.264199E-08  0.207E-04    3.66      77.3  T
     SCC iter.                  ...        0 min,  0.007 sec
     gradient                   ...        0 min,  0.017 sec
 * total energy  :   -51.1318573 Eh     change       -0.2771607E-04 Eh
   gradient norm :     0.0029692 Eh/α   predicted    -0.1592181E-04 ( -42.55%)
   displ. norm   :     0.1732402 α      lambda       -0.6393550E-04
   maximum displ.:     0.1102241 α      in ANC's #2, #6, #1, ...

........................................................................
.............................. CYCLE   18 ..............................
........................................................................

 iter      E             dE          RMSdq      gap      omega  full diag
   1    -51.8909029 -0.518909E+02  0.302E-02    3.66       0.0  T
   2    -51.8909033 -0.411123E-06  0.176E-02    3.66       1.0  T
   3    -51.8909031  0.244590E-06  0.325E-03    3.66       4.9  T
   4    -51.8909034 -0.329425E-06  0.893E-04    3.66      17.9  T
   5    -51.8909034 -0.194859E-07  0.405E-04    3.66      39.6  T
     SCC iter.                  ...        0 min,  0.008 sec
     gradient                   ...        0 min,  0.017 sec
 * total energy  :   -51.1319086 Eh     change       -0.5122800E-04 Eh
   gradient norm :     0.0023613 Eh/α   predicted    -0.3293135E-04 ( -35.72%)
   displ. norm   :     0.2267799 α      lambda       -0.5938027E-04
   maximum displ.:     0.1486689 α      in ANC's #2, #1, #6, ...

........................................................................
.............................. CYCLE   19 ..............................
........................................................................

 iter      E             dE          RMSdq      gap      omega  full diag
   1    -51.8908769 -0.518909E+02  0.385E-02    3.66       0.0  T
   2    -51.8908774 -0.499215E-06  0.225E-02    3.67       1.0  T
   3    -51.8908771  0.323906E-06  0.369E-03    3.67       4.3  T
   4    -51.8908775 -0.449427E-06  0.983E-04    3.67      16.3  T
   5    -51.8908776 -0.192071E-07  0.480E-04    3.67      33.4  T
     SCC iter.                  ...        0 min,  0.007 sec
     gradient                   ...        0 min,  0.043 sec
 * total energy  :   -51.1319535 Eh     change       -0.4494414E-04 Eh
   gradient norm :     0.0028888 Eh/α   predicted    -0.3122217E-04 ( -30.53%)
   displ. norm   :     0.1940058 α      lambda       -0.4097112E-04
   maximum displ.:     0.1331587 α      in ANC's #2, #1, #3, ...

........................................................................
.............................. CYCLE   20 ..............................
........................................................................

 iter      E             dE          RMSdq      gap      omega  full diag
   1    -51.8908589 -0.518909E+02  0.325E-02    3.67       0.0  T
   2    -51.8908591 -0.216464E-06  0.190E-02    3.67       1.0  T
   3    -51.8908590  0.118748E-06  0.239E-03    3.67       6.7  T
   4    -51.8908592 -0.190115E-06  0.699E-04    3.67      22.9  T
   5    -51.8908592 -0.612300E-08  0.351E-04    3.67      45.6  T
     SCC iter.                  ...        0 min,  0.007 sec
     gradient                   ...        0 min,  0.017 sec
 * total energy  :   -51.1319877 Eh     change       -0.3421878E-04 Eh
   gradient norm :     0.0029009 Eh/α   predicted    -0.2126004E-04 ( -37.87%)
   displ. norm   :     0.2224778 α      lambda       -0.5049014E-04
   maximum displ.:     0.1571637 α      in ANC's #2, #1, #3, ...
 * RMSD in coord.:     0.5824490 α      energy gain  -0.1107199E-01 Eh

generating ANC from exact Hessian ...
Using Lindh-Hessian (1995)
 Shifting diagonal of input Hessian by    9.6622679625395433E-003
 Lowest  eigenvalues of input Hessian
    0.000000    0.000000    0.000000    0.000000    0.000000    0.000000
    0.010000    0.010068    0.010518    0.011230    0.011994    0.012178
    0.013827    0.015397    0.015625    0.015847    0.016723    0.018353
 Highest eigenvalues
    1.629558    1.885703    1.915339    2.016339    2.119128    2.366724


........................................................................
.............................. CYCLE   21 ..............................
........................................................................

 iter      E             dE          RMSdq      gap      omega  full diag
   1    -51.8909511 -0.518910E+02  0.368E-02    3.66       0.0  T
   2    -51.8909514 -0.256102E-06  0.216E-02    3.67       1.0  T
   3    -51.8909514  0.153083E-07  0.188E-03    3.67       8.5  T
   4    -51.8909515 -0.942337E-07  0.772E-04    3.67      20.7  T
   5    -51.8909515 -0.661832E-08  0.371E-04    3.67      43.1  T
     SCC iter.                  ...        0 min,  0.007 sec
     gradient                   ...        0 min,  0.033 sec
 * total energy  :   -51.1320298 Eh     change       -0.4205402E-04 Eh
   gradient norm :     0.0024942 Eh/α   predicted     0.0000000E+00 (-100.00%)
   displ. norm   :     0.0246286 α      lambda       -0.1493183E-04
   maximum displ.:     0.0123381 α      in ANC's #1, #5, #2, ...

........................................................................
.............................. CYCLE   22 ..............................
........................................................................

 iter      E             dE          RMSdq      gap      omega  full diag
   1    -51.8912176 -0.518912E+02  0.594E-03    3.67       0.0  T
   2    -51.8912177 -0.590379E-07  0.342E-03    3.66       4.7  T
   3    -51.8912177  0.302327E-07  0.136E-03    3.66      11.8  T
   4    -51.8912177 -0.467681E-07  0.288E-04    3.66      55.6  T
   5    -51.8912177 -0.138138E-08  0.138E-04    3.66     115.8  T
     SCC iter.                  ...        0 min,  0.007 sec
     gradient                   ...        0 min,  0.017 sec
 * total energy  :   -51.1320432 Eh     change       -0.1339392E-04 Eh
   gradient norm :     0.0012714 Eh/α   predicted    -0.8312524E-05 ( -37.94%)
   displ. norm   :     0.0915937 α      lambda       -0.2356206E-04
   maximum displ.:     0.0505021 α      in ANC's #1, #2, #5, ...

........................................................................
.............................. CYCLE   23 ..............................
........................................................................

 iter      E             dE          RMSdq      gap      omega  full diag
   1    -51.8914819 -0.518915E+02  0.178E-02    3.66       0.0  T
   2    -51.8914823 -0.424616E-06  0.103E-02    3.66       1.6  T
   3    -51.8914821  0.234215E-06  0.345E-03    3.66       4.6  T
   4    -51.8914824 -0.343090E-06  0.795E-04    3.66      20.1  T
   5    -51.8914825 -0.118480E-07  0.376E-04    3.66      42.6  T
     SCC iter.                  ...        0 min,  0.007 sec
     gradient                   ...        0 min,  0.051 sec
 * total energy  :   -51.1320589 Eh     change       -0.1567829E-04 Eh
   gradient norm :     0.0021447 Eh/α   predicted    -0.1182512E-04 ( -24.58%)
   displ. norm   :     0.0200605 α      lambda       -0.5438566E-05
   maximum displ.:     0.0128843 α      in ANC's #1, #2, #3, ...

........................................................................
.............................. CYCLE   24 ..............................
........................................................................

 iter      E             dE          RMSdq      gap      omega  full diag
   1    -51.8913850 -0.518914E+02  0.369E-03    3.66       0.0  T
   2    -51.8913851 -0.906415E-08  0.212E-03    3.66       7.5  T
   3    -51.8913851  0.406028E-08  0.444E-04    3.66      36.1  T
   4    -51.8913851 -0.553216E-08  0.123E-04    3.66     130.3  T
     SCC iter.                  ...        0 min,  0.006 sec
     gradient                   ...        0 min,  0.018 sec
 * total energy  :   -51.1320646 Eh     change       -0.5767505E-05 Eh
   gradient norm :     0.0015012 Eh/α   predicted    -0.3187660E-05 ( -44.73%)
   displ. norm   :     0.0977046 α      lambda       -0.1678848E-04
   maximum displ.:     0.0607075 α      in ANC's #1, #2, #3, ...

........................................................................
.............................. CYCLE   25 ..............................
........................................................................

 iter      E             dE          RMSdq      gap      omega  full diag
   1    -51.8910766 -0.518911E+02  0.176E-02    3.65       0.0  T
   2    -51.8910768 -0.219313E-06  0.101E-02    3.65       1.6  T
   3    -51.8910767  0.652133E-07  0.195E-03    3.65       8.2  T
   4    -51.8910768 -0.932710E-07  0.567E-04    3.65      28.3  T
   5    -51.8910768 -0.103357E-07  0.230E-04    3.65      69.5  T
     SCC iter.                  ...        0 min,  0.007 sec
     gradient                   ...        0 min,  0.051 sec
 * total energy  :   -51.1320801 Eh     change       -0.1544317E-04 Eh
   gradient norm :     0.0015058 Eh/α   predicted    -0.8430964E-05 ( -45.41%)
   displ. norm   :     0.0780706 α      lambda       -0.7274316E-05
   maximum displ.:     0.0492409 α      in ANC's #1, #2, #3, ...

........................................................................
.............................. CYCLE   26 ..............................
........................................................................

 iter      E             dE          RMSdq      gap      omega  full diag
   1    -51.8910781 -0.518911E+02  0.127E-02    3.65       0.0  T
   2    -51.8910782 -0.436691E-07  0.741E-03    3.65       2.2  T
   3    -51.8910781  0.136054E-07  0.947E-04    3.65      16.9  T
   4    -51.8910782 -0.238598E-07  0.275E-04    3.65      58.2  T
     SCC iter.                  ...        0 min,  0.006 sec
     gradient                   ...        0 min,  0.017 sec
 * total energy  :   -51.1320900 Eh     change       -0.9953041E-05 Eh
   gradient norm :     0.0016350 Eh/α   predicted    -0.3647471E-05 ( -63.35%)
   displ. norm   :     0.1378332 α      lambda       -0.1419136E-04
   maximum displ.:     0.0864481 α      in ANC's #1, #2, #3, ...

........................................................................
.............................. CYCLE   27 ..............................
........................................................................

 iter      E             dE          RMSdq      gap      omega  full diag
   1    -51.8912404 -0.518912E+02  0.233E-02    3.66       0.0  T
   2    -51.8912406 -0.142531E-06  0.136E-02    3.65       1.2  T
   3    -51.8912405  0.750282E-07  0.214E-03    3.65       7.5  T
   4    -51.8912406 -0.113110E-06  0.464E-04    3.65      34.5  T
   5    -51.8912406 -0.206203E-08  0.215E-04    3.65      74.3  T
     SCC iter.                  ...        0 min,  0.007 sec
     gradient                   ...        0 min,  0.017 sec
 * total energy  :   -51.1321081 Eh     change       -0.1808943E-04 Eh
   gradient norm :     0.0008388 Eh/α   predicted    -0.7156824E-05 ( -60.44%)
   displ. norm   :     0.1984462 α      lambda       -0.1566452E-04
   maximum displ.:     0.1274901 α      in ANC's #1, #2, #3, ...

........................................................................
.............................. CYCLE   28 ..............................
........................................................................

 iter      E             dE          RMSdq      gap      omega  full diag
   1    -51.8912404 -0.518912E+02  0.338E-02    3.66       0.0  T
   2    -51.8912407 -0.332043E-06  0.197E-02    3.66       1.0  T
   3    -51.8912406  0.140843E-06  0.300E-03    3.66       5.3  T
   4    -51.8912408 -0.216116E-06  0.705E-04    3.66      22.7  T
   5    -51.8912408 -0.616091E-08  0.310E-04    3.66      51.7  T
     SCC iter.                  ...        0 min,  0.007 sec
     gradient                   ...        0 min,  0.017 sec
 * total energy  :   -51.1321266 Eh     change       -0.1853079E-04 Eh
   gradient norm :     0.0004551 Eh/α   predicted    -0.7969958E-05 ( -56.99%)
   displ. norm   :     0.1645750 α      lambda       -0.9531103E-05
   maximum displ.:     0.1084465 α      in ANC's #1, #2, #3, ...

........................................................................
.............................. CYCLE   29 ..............................
........................................................................

 iter      E             dE          RMSdq      gap      omega  full diag
   1    -51.8913391 -0.518913E+02  0.275E-02    3.66       0.0  T
   2    -51.8913393 -0.180325E-06  0.160E-02    3.66       1.0  T
   3    -51.8913393  0.575735E-07  0.203E-03    3.66       7.9  T
   4    -51.8913394 -0.103248E-06  0.545E-04    3.66      29.4  T
   5    -51.8913394 -0.312486E-08  0.252E-04    3.66      63.4  T
     SCC iter.                  ...        0 min,  0.007 sec
     gradient                   ...        0 min,  0.017 sec
 * total energy  :   -51.1321384 Eh     change       -0.1179897E-04 Eh
   gradient norm :     0.0005581 Eh/α   predicted    -0.4823600E-05 ( -59.12%)
   displ. norm   :     0.1270945 α      lambda       -0.7050188E-05
   maximum displ.:     0.0861789 α      in ANC's #1, #2, #3, ...

........................................................................
.............................. CYCLE   30 ..............................
........................................................................

 iter      E             dE          RMSdq      gap      omega  full diag
   1    -51.8914754 -0.518915E+02  0.209E-02    3.66       0.0  T
   2    -51.8914755 -0.955282E-07  0.122E-02    3.66       1.3  T
   3    -51.8914755  0.221086E-07  0.138E-03    3.66      11.6  T
   4    -51.8914755 -0.473807E-07  0.417E-04    3.66      38.4  T
   5    -51.8914755 -0.178303E-08  0.195E-04    3.66      82.0  T
     SCC iter.                  ...        0 min,  0.007 sec
     gradient                   ...        0 min,  0.044 sec
 * total energy  :   -51.1321476 Eh     change       -0.9209145E-05 Eh
   gradient norm :     0.0004632 Eh/α   predicted    -0.3551239E-05 ( -61.44%)
   displ. norm   :     0.1252542 α      lambda       -0.7187929E-05
   maximum displ.:     0.0857804 α      in ANC's #1, #2, #3, ...

........................................................................
.............................. CYCLE   31 ..............................
........................................................................

 iter      E             dE          RMSdq      gap      omega  full diag
   1    -51.8915344 -0.518915E+02  0.201E-02    3.66       0.0  T
   2    -51.8915345 -0.853929E-07  0.118E-02    3.66       1.4  T
   3    -51.8915344  0.471233E-08  0.104E-03    3.66      15.4  T
   4    -51.8915345 -0.277172E-07  0.407E-04    3.66      39.3  T
   5    -51.8915345 -0.174665E-08  0.208E-04    3.66      77.1  T
     SCC iter.                  ...        0 min,  0.007 sec
     gradient                   ...        0 min,  0.018 sec
 * total energy  :   -51.1321570 Eh     change       -0.9318465E-05 Eh
   gradient norm :     0.0003013 Eh/α   predicted    -0.3623488E-05 ( -61.11%)
   displ. norm   :     0.1374203 α      lambda       -0.7197590E-05
   maximum displ.:     0.0948741 α      in ANC's #1, #2, #3, ...

........................................................................
.............................. CYCLE   32 ..............................
........................................................................

 iter      E             dE          RMSdq      gap      omega  full diag
   1    -51.8914995 -0.518915E+02  0.226E-02    3.66       0.0  T
   2    -51.8914996 -0.978399E-07  0.132E-02    3.66       1.2  T
   3    -51.8914996  0.286917E-10  0.103E-03    3.66      15.5  T
   4    -51.8914997 -0.280635E-07  0.446E-04    3.66      35.9  T
   5    -51.8914997 -0.210127E-08  0.232E-04    3.66      69.1  T
     SCC iter.                  ...        0 min,  0.007 sec
     gradient                   ...        0 min,  0.045 sec
 * total energy  :   -51.1321658 Eh     change       -0.8806729E-05 Eh
   gradient norm :     0.0002667 Eh/α   predicted    -0.3630416E-05 ( -58.78%)
   displ. norm   :     0.1155200 α      lambda       -0.5096028E-05
   maximum displ.:     0.0812992 α      in ANC's #1, #2, #5, ...

........................................................................
.............................. CYCLE   33 ..............................
........................................................................

 iter      E             dE          RMSdq      gap      omega  full diag
   1    -51.8915474 -0.518915E+02  0.191E-02    3.66       0.0  T
   2    -51.8915475 -0.688893E-07  0.112E-02    3.66       1.4  T
   3    -51.8915475 -0.405509E-08  0.806E-04    3.66      19.9  T
   4    -51.8915475 -0.157745E-07  0.365E-04    3.66      43.9  T
     SCC iter.                  ...        0 min,  0.006 sec
     gradient                   ...        0 min,  0.018 sec
 * total energy  :   -51.1321720 Eh     change       -0.6189902E-05 Eh
   gradient norm :     0.0003066 Eh/α   predicted    -0.2567079E-05 ( -58.53%)
   displ. norm   :     0.0868066 α      lambda       -0.3662543E-05
   maximum displ.:     0.0618777 α      in ANC's #1, #2, #5, ...

........................................................................
.............................. CYCLE   34 ..............................
........................................................................

 iter      E             dE          RMSdq      gap      omega  full diag
   1    -51.8915745 -0.518916E+02  0.153E-02    3.66       0.0  T
   2    -51.8915745 -0.381083E-07  0.899E-03    3.66       1.8  T
   3    -51.8915745  0.969393E-08  0.781E-04    3.66      20.5  T
   4    -51.8915746 -0.222216E-07  0.302E-04    3.66      53.1  T
     SCC iter.                  ...        0 min,  0.006 sec
     gradient                   ...        0 min,  0.017 sec
 * total energy  :   -51.1321765 Eh     change       -0.4579547E-05 Eh
   gradient norm :     0.0002884 Eh/α   predicted    -0.1837664E-05 ( -59.87%)
   displ. norm   :     0.0771337 α      lambda       -0.3391478E-05
   maximum displ.:     0.0557197 α      in ANC's #1, #2, #5, ...

   *** GEOMETRY OPTIMIZATION CONVERGED AFTER 34 ITERATIONS ***

------------------------------------------------------------------------
 total energy gain   :        -0.0112608 Eh       -7.0663 kcal/mol
 total RMSD          :         0.7395615 a0        0.3914 Å
 total power (kW/mol):        -0.8695656 (step)  -21.3308 (real)
------------------------------------------------------------------------

 ANCopt (total)                0 d,  0 h,  0 min,  1.386 sec
 optimizer setup                ...        0 min,  0.000 sec (  0.006%)
 model hessian                  ...        0 min,  0.049 sec (  3.534%)
 ANC generation                 ...        0 min,  0.003 sec (  0.190%)
 coordinate transformation      ...        0 min,  0.000 sec (  0.017%)
 single point calculation       ...        0 min,  1.326 sec ( 95.675%)
 optimization log               ...        0 min,  0.004 sec (  0.314%)
 hessian update                 ...        0 min,  0.000 sec (  0.030%)
 rational function              ...        0 min,  0.002 sec (  0.153%)

================
 final structure:
================
39
 xtb: 6.7.1 (edcfbbe)
C           -1.85016491311130        2.39811968069288        0.19943949377630
C           -2.62698781194986        1.16623759535706       -0.16270530558739
C           -3.95166476613216        1.25263566560808       -0.55836344236913
C           -4.66596507634108        0.11213792671351       -0.88002725555807
C           -4.04889450053143       -1.12273267028719       -0.83033967223997
C           -2.71779708607220       -1.24789368821306       -0.45275263335110
C           -2.05392280249794       -2.58742264424610       -0.45699119254143
C           -2.01874334701988       -0.09259436485506       -0.09589038445158
N           -0.66914674045273       -0.14749750783771        0.30760349321324
C           -0.12865373273565       -0.86980239285309        1.31128418494551
C            1.34520840208577       -0.51622178975201        1.54782624920211
N            1.92291681674893        0.19538310508780        0.42231457221743
C            2.33157218679278       -0.70365302258487       -0.64961999866200
C            3.62612627245217       -1.48927596732955       -0.42017955460801
C            2.90973033874594        1.19440690331043        0.80627473618668
C            3.27436567474141        2.11812382921099       -0.35078399396527
O           -0.70975178536050       -1.68146621362463        1.99924562114416
H           -1.05147013352497        2.57892681756378       -0.52200950000517
H           -2.50146372835615        3.26816521355086        0.20846164947806
H           -1.39803332568724        2.29148879064449        1.18482846673846
H           -4.42940669986256        2.22048555744578       -0.60606429903737
H           -5.70119126957723        0.18893454089705       -1.17716438546595
H           -4.60308347603139       -2.01057855511321       -1.09808170933694
H           -2.68188951944064       -3.32508717319141       -0.94969918696527
H           -1.09491273543803       -2.53605776125629       -0.97214105648326
H           -1.85964231844243       -2.91156770452976        0.56492149727736
H           -0.04141521420179        0.56037668423787       -0.06243870201689
H            1.36399097309884        0.12273102153410        2.43565292003410
H            1.87670088916237       -1.44067200783108        1.81124903192036
H            2.42806871744795       -0.11261799268541       -1.56420498193947
H            1.50922651912221       -1.40843177885057       -0.79809580549687
H            4.48764317031715       -0.82704635107238       -0.38477997282845
H            3.58237631324109       -2.05208098726143        0.50933409416105
H            3.76931361637980       -2.19215352801271       -1.23651770003503
H            3.82544632786874        0.74380933527882        1.22093395638838
H            2.45416396272130        1.79840668008313        1.59687842514796
H            3.86570131693282        1.60356073236184       -1.10299954014614
H            3.85802612102582        2.95464868969592        0.02528709233834
H            2.37352336388507        2.50647533210772       -0.81968521108050

 Bond Distances (Angstroems)
 ---------------------------
C1-C2=1.5007         C1-H18=1.0914        C1-H19=1.0869        C1-H20=1.0894        C2-C1=1.5007         C2-C3=1.3852         
C2-C8=1.3997         C3-C2=1.3852         C3-C4=1.3836         C3-H21=1.0804        C4-C3=1.3836         C4-C5=1.3814         
C4-H22=1.0798        C5-C4=1.3814         C5-C6=1.3893         C5-H23=1.0803        C6-C5=1.3893         C6-C7=1.4950         
C6-C8=1.3967         C7-C6=1.4950         C7-H24=1.0869        C7-H25=1.0898        C7-H26=1.0896        C8-C2=1.3997         
C8-C6=1.3967         C8-N9=1.4097         N9-C8=1.4097         N9-C10=1.3495        N9-H27=1.0159        C10-N9=1.3495        
C10-C11=1.5340       C10-O17=1.2123       C11-C10=1.5340       C11-N12=1.4515       C11-H28=1.0940       C11-H29=1.0984       
N12-C11=1.4515       N12-C13=1.4575       N12-C15=1.4558       C13-N12=1.4575       C13-C14=1.5316       C13-H30=1.0932       
C13-H31=1.0932       C14-C13=1.5316       C14-H32=1.0872       C14-H33=1.0875       C14-H34=1.0867       C15-N12=1.4558       
C15-C16=1.5248       C15-H35=1.1016       C15-H36=1.0943       C16-C15=1.5248       C16-H37=1.0864       C16-H38=1.0871       
C16-H39=1.0873       O17-C10=1.2123       H18-C1=1.0914        H19-C1=1.0869        H20-C1=1.0894        H21-C3=1.0804        
H22-C4=1.0798        H23-C5=1.0803        H24-C7=1.0869        H25-C7=1.0898        H26-C7=1.0896        H27-N9=1.0159        
H28-C11=1.0940       H29-C11=1.0984       H30-C13=1.0932       H31-C13=1.0932       H32-C14=1.0872       H33-C14=1.0875       
H34-C14=1.0867       H35-C15=1.1016       H36-C15=1.0943       H37-C16=1.0864       H38-C16=1.0871       H39-C16=1.0873       
 C  H  Rav=1.0891 sigma=0.0054  Rmin=1.0798  Rmax=1.1016    21
 C  C  Rav=1.4474 sigma=0.0648  Rmin=1.3814  Rmax=1.5340    11
 N  H  Rav=1.0159 sigma=0.0000  Rmin=1.0159  Rmax=1.0159     1
 N  C  Rav=1.4248 sigma=0.0416  Rmin=1.3495  Rmax=1.4575     5
 O  C  Rav=1.2123 sigma=0.0000  Rmin=1.2123  Rmax=1.2123     1

 selected bond angles (degree)
 --------------------
H18-C1-C2=110.81               H19-C1-C2=110.42               H19-C1-H18=108.14              H20-C1-C2=110.66               
H20-C1-H18=108.08              H20-C1-H19=108.64              C3-C2-C1=120.85                C8-C2-C1=120.12                
C8-C2-C3=119.03                C4-C3-C2=120.58                H21-C3-C2=119.43               H21-C3-C4=119.99               
C5-C4-C3=119.86                H22-C4-C3=120.02               H22-C4-C5=120.12               C6-C5-C4=121.22                
H23-C5-C4=119.78               H23-C5-C6=119.00               C7-C6-C5=120.36                C8-C6-C5=118.33                
C8-C6-C7=121.31                H24-C7-C6=110.66               H25-C7-C6=110.48               H25-C7-H24=109.03              
H26-C7-C6=110.06               H26-C7-H24=109.04              H26-C7-H25=107.49              C6-C8-C2=120.95                
N9-C8-C2=117.69                N9-C8-C6=121.34                C10-N9-C8=128.11               H27-N9-C8=117.40               
H27-N9-C10=113.35              C11-C10-N9=112.09              O17-C10-N9=126.04              O17-C10-C11=121.83             

 selected dihedral angles (degree)
 ---------------------------------
C3-C2-C1-H18=246.62           C3-C2-C1-H19=  6.42           C3-C2-C1-H20=126.73           C8-C2-C1-H18= 67.01           
C8-C2-C1-H19=186.82           C8-C2-C1-H20=307.13           C4-C3-C2-C1=180.56            C4-C3-C2-C8=  0.16            
H21-C3-C2-C1=  0.00           H21-C3-C2-C8=179.61           C5-C4-C3-C2=358.83            C5-C4-C3-H21=179.39           
H22-C4-C3-C2=179.34           H22-C4-C3-H21=359.90          C6-C5-C4-C3=  0.44            C6-C5-C4-H22=179.92           
H23-C5-C4-C3=181.04           H23-C5-C4-H22=  0.53          C7-C6-C5-C4=182.40            C7-C6-C5-H23=  1.79           
C8-C6-C5-C4=  1.27            C8-C6-C5-H23=180.67           H24-C7-C6-C5= 10.45           H24-C7-C6-C8=191.61           
H25-C7-C6-C5=131.31           H25-C7-C6-C8=312.47           H26-C7-C6-C5=249.85           H26-C7-C6-C8= 71.02           
C6-C8-C2-C1=181.20            C6-C8-C2-C3=  1.59            N9-C8-C2-C1=359.49            N9-C8-C2-C3=179.88            
C2-C8-C6-C5=357.71            C2-C8-C6-C7=176.57            N9-C8-C6-C5=179.49            N9-C8-C6-C7=358.35            
C10-N9-C8-C2=125.45           C10-N9-C8-C6=303.73           H27-N9-C8-C2=318.57           H27-N9-C8-C6=136.85           
C11-C10-N9-C8=187.48          C11-C10-N9-H27=354.81         O17-C10-N9-C8=  5.27          O17-C10-N9-H27=172.60         
           -------------------------------------------------
          |                Final Singlepoint                |
           -------------------------------------------------

          ...................................................
          :                      SETUP                      :
          :.................................................:
          :  # basis functions                  90          :
          :  # atomic orbitals                  90          :
          :  # shells                           56          :
          :  # electrons                        94          :
          :  max. iterations                   250          :
          :  Hamiltonian                  GFN2-xTB          :
          :  restarted?                      false          :
          :  GBSA solvation                  false          :
          :  PC potential                    false          :
          :  electronic temp.          300.0000000     K    :
          :  accuracy                    1.0000000          :
          :  -> integral cutoff          0.2500000E+02      :
          :  -> integral neglect         0.1000000E-07      :
          :  -> SCF convergence          0.1000000E-05 Eh   :
          :  -> wf. convergence          0.1000000E-03 e    :
          :  Broyden damping             0.4000000          :
          :  net charge                          0          :
          :  unpaired electrons                  0          :
          ...................................................

 iter      E             dE          RMSdq      gap      omega  full diag
   1    -51.8915746 -0.518916E+02  0.156E-04    3.66       0.0  T
   2    -51.8915746 -0.110603E-09  0.975E-05    3.66     164.3  T
   3    -51.8915746 -0.150280E-10  0.616E-05    3.66     259.9  T

   *** convergence criteria satisfied after 3 iterations ***

         #    Occupation            Energy/Eh            Energy/eV
      -------------------------------------------------------------
         1        2.0000           -0.6911531             -18.8072
       ...           ...                  ...                  ...
        41        2.0000           -0.4307958             -11.7226
        42        2.0000           -0.4223506             -11.4927
        43        2.0000           -0.4126234             -11.2281
        44        2.0000           -0.3928021             -10.6887
        45        2.0000           -0.3852639             -10.4836
        46        2.0000           -0.3769024             -10.2560
        47        2.0000           -0.3566224              -9.7042 (HOMO)
        48                         -0.2221282              -6.0444 (LUMO)
        49                         -0.2125271              -5.7832
        50                         -0.1898821              -5.1670
        51                         -0.0871366              -2.3711
        52                          0.0021142               0.0575
       ...                                ...                  ...
        90                          0.6823286              18.5671
      -------------------------------------------------------------
                  HL-Gap            0.1344942 Eh            3.6598 eV
             Fermi-level           -0.2893753 Eh           -7.8743 eV

 SCC (total)                   0 d,  0 h,  0 min,  0.061 sec
 SCC setup                      ...        0 min,  0.000 sec (  0.387%)
 Dispersion                     ...        0 min,  0.000 sec (  0.520%)
 classical contributions        ...        0 min,  0.000 sec (  0.189%)
 integral evaluation            ...        0 min,  0.039 sec ( 63.332%)
 iterations                     ...        0 min,  0.004 sec (  7.020%)
 molecular gradient             ...        0 min,  0.017 sec ( 28.368%)
 printout                       ...        0 min,  0.000 sec (  0.175%)

         :::::::::::::::::::::::::::::::::::::::::::::::::::::
         ::                     SUMMARY                     ::
         :::::::::::::::::::::::::::::::::::::::::::::::::::::
         :: total energy             -51.132176545573 Eh    ::
         :: gradient norm              0.000288494783 Eh/a0 ::
         :: HOMO-LUMO gap              3.659774301370 eV    ::
         ::.................................................::
         :: SCC energy               -51.891112529876 Eh    ::
         :: -> isotropic ES            0.048116117950 Eh    ::
         :: -> anisotropic ES          0.007665273637 Eh    ::
         :: -> anisotropic XC          0.027413011289 Eh    ::
         :: -> dispersion             -0.036776572492 Eh    ::
         :: repulsion energy           0.758935984303 Eh    ::
         :: add. restraining           0.000000000000 Eh    ::
         :: total charge               0.000000000000 e     ::
         :::::::::::::::::::::::::::::::::::::::::::::::::::::

           -------------------------------------------------
          |                Property Printout                |
           -------------------------------------------------

    * Orbital Energies and Occupations

         #    Occupation            Energy/Eh            Energy/eV
      -------------------------------------------------------------
         1        2.0000           -0.6911531             -18.8072
       ...           ...                  ...                  ...
        35        2.0000           -0.4664615             -12.6931
        36        2.0000           -0.4568002             -12.4302
        37        2.0000           -0.4498721             -12.2416
        38        2.0000           -0.4479003             -12.1880
        39        2.0000           -0.4457983             -12.1308
        40        2.0000           -0.4425708             -12.0430
        41        2.0000           -0.4307958             -11.7226
        42        2.0000           -0.4223506             -11.4927
        43        2.0000           -0.4126234             -11.2281
        44        2.0000           -0.3928021             -10.6887
        45        2.0000           -0.3852639             -10.4836
        46        2.0000           -0.3769024             -10.2560
        47        2.0000           -0.3566224              -9.7042 (HOMO)
        48                         -0.2221282              -6.0444 (LUMO)
        49                         -0.2125271              -5.7832
        50                         -0.1898821              -5.1670
        51                         -0.0871366              -2.3711
        52                          0.0021142               0.0575
        53                          0.0208975               0.5686
        54                          0.0593726               1.6156
        55                          0.0876015               2.3838
        56                          0.0954038               2.5961
        57                          0.1077361               2.9316
        58                          0.1107216               3.0129
       ...                                ...                  ...
        90                          0.6823286              18.5671
      -------------------------------------------------------------
                  HL-Gap            0.1344942 Eh            3.6598 eV
             Fermi-level           -0.2893753 Eh           -7.8743 eV

     #   Z          covCN         q      C6AA      α(0)
     1   6 C        3.757    -0.108    22.612     6.780
     2   6 C        2.969    -0.003    28.094     8.694
     3   6 C        2.924    -0.045    29.114     8.849
     4   6 C        2.916    -0.038    28.943     8.822
     5   6 C        2.927    -0.044    29.085     8.844
     6   6 C        2.965     0.013    27.717     8.636
     7   6 C        3.758    -0.110    22.651     6.785
     8   6 C        2.916     0.056    26.740     8.480
     9   7 N        2.696    -0.166    24.587     7.364
    10   6 C        2.747     0.268    22.467     7.761
    11   6 C        3.760    -0.024    21.056     6.542
    12   7 N        2.726    -0.191    25.145     7.448
    13   6 C        3.750     0.006    20.536     6.463
    14   6 C        3.750    -0.107    22.609     6.781
    15   6 C        3.747     0.015    20.382     6.440
    16   6 C        3.752    -0.108    22.627     6.784
    17   8 O        0.857    -0.435    22.395     6.345
    18   1 H        0.924     0.039     2.456     2.451
    19   1 H        0.925     0.045     2.379     2.412
    20   1 H        0.925     0.046     2.376     2.411
    21   1 H        0.926     0.031     2.572     2.508
    22   1 H        0.926     0.032     2.563     2.504
    23   1 H        0.926     0.035     2.522     2.483
    24   1 H        0.925     0.039     2.465     2.455
    25   1 H        0.925     0.037     2.496     2.471
    26   1 H        0.925     0.081     1.966     2.193
    27   1 H        0.860     0.194     1.139     1.672
    28   1 H        0.924     0.050     2.315     2.379
    29   1 H        0.923     0.043     2.413     2.429
    30   1 H        0.924     0.037     2.494     2.470
    31   1 H        0.924     0.035     2.521     2.483
    32   1 H        0.925     0.036     2.507     2.476
    33   1 H        0.925     0.035     2.510     2.477
    34   1 H        0.925     0.036     2.509     2.477
    35   1 H        0.923     0.015     2.803     2.618
    36   1 H        0.924     0.031     2.570     2.507
    37   1 H        0.925     0.042     2.427     2.436
    38   1 H        0.925     0.040     2.445     2.445
    39   1 H        0.925     0.042     2.424     2.435

 Mol. C6AA /au·bohr⁶  :      13878.919365
 Mol. C8AA /au·bohr⁸  :     311461.178649
 Mol. α(0) /au        :        181.008961


Wiberg/Mayer (AO) data.
largest (>0.10) Wiberg bond orders for each atom

 ---------------------------------------------------------------------------
     #   Z sym  total        # sym  WBO       # sym  WBO       # sym  WBO
 ---------------------------------------------------------------------------
     1   6 C    3.996 --     2 C    1.025    19 H    0.984    20 H    0.975
                            18 H    0.969
     2   6 C    3.987 --     3 C    1.425     8 C    1.356     1 C    1.025
                             5 C    0.103
     3   6 C    3.990 --     4 C    1.429     2 C    1.425    21 H    0.969
                             6 C    0.101
     4   6 C    3.991 --     5 C    1.447     3 C    1.429    22 H    0.971
     5   6 C    3.991 --     4 C    1.447     6 C    1.406    23 H    0.968
                             2 C    0.103
     6   6 C    3.988 --     5 C    1.406     8 C    1.365     7 C    1.032
                             3 C    0.101
     7   6 C    3.994 --     6 C    1.032    24 H    0.985    25 H    0.974
                            26 H    0.954
     8   6 C    3.959 --     6 C    1.365     2 C    1.356     9 N    1.034
     9   7 N    3.483 --    10 C    1.243     8 C    1.034    27 H    0.903
                            17 O    0.185
    10   6 C    3.953 --    17 O    1.686     9 N    1.243    11 C    0.944
    11   6 C    3.983 --    12 N    1.008    29 H    0.955    28 H    0.953
                            10 C    0.944
    12   7 N    3.155 --    11 C    1.008    13 C    1.000    15 C    0.998
    13   6 C    3.985 --    14 C    1.006    12 N    1.000    31 H    0.973
                            30 H    0.972
    14   6 C    3.997 --    13 C    1.006    32 H    0.986    34 H    0.986
                            33 H    0.984
    15   6 C    3.986 --    16 C    1.016    12 N    0.998    36 H    0.973
                            35 H    0.966
    16   6 C    3.996 --    15 C    1.016    39 H    0.987    38 H    0.986
                            37 H    0.985
    17   8 O    2.011 --    10 C    1.686     9 N    0.185
    18   1 H    0.998 --     1 C    0.969
    19   1 H    0.998 --     1 C    0.984
    20   1 H    0.998 --     1 C    0.975
    21   1 H    0.998 --     3 C    0.969
    22   1 H    0.999 --     4 C    0.971
    23   1 H    0.998 --     5 C    0.968
    24   1 H    0.998 --     7 C    0.985
    25   1 H    0.998 --     7 C    0.974
    26   1 H    0.993 --     7 C    0.954
    27   1 H    0.962 --     9 N    0.903
    28   1 H    0.997 --    11 C    0.953
    29   1 H    0.997 --    11 C    0.955
    30   1 H    0.999 --    13 C    0.972
    31   1 H    0.999 --    13 C    0.973
    32   1 H    0.999 --    14 C    0.986
    33   1 H    0.999 --    14 C    0.984
    34   1 H    0.999 --    14 C    0.986
    35   1 H    1.000 --    15 C    0.966
    36   1 H    0.999 --    15 C    0.973
    37   1 H    0.998 --    16 C    0.985
    38   1 H    0.998 --    16 C    0.986
    39   1 H    0.998 --    16 C    0.987
 ---------------------------------------------------------------------------

Topologies differ in total number of bonds
Writing topology from bond orders to xtbtopo.mol

molecular dipole:
                 x           y           z       tot (Debye)
 q only:        0.719       0.967      -0.960
   full:        1.193       1.056      -0.894       4.645
molecular quadrupole (traceless):
                xx          xy          yy          xz          yz          zz
 q only:        3.833      -0.948       1.443       3.373       6.362      -5.276
  q+dip:        6.520      -2.832       1.698       6.467       8.240      -8.219
   full:        5.335      -2.619       0.870       5.153       8.330      -6.205

           -------------------------------------------------
          |                Geometry Summary                 |
           -------------------------------------------------

      molecular mass/u    :      234.3378104
   center of mass at/Å    :       -0.4724211      -0.1231272       0.1217719
  moments of inertia/u·Å² :        0.6356952E+03   0.1845074E+04   0.2151836E+04
rotational constants/cm⁻¹ :        0.2651842E-01   0.9136561E-02   0.7834071E-02

 * 36 selected distances

     #   Z          #   Z                                           value/Å
     2   6 C        3   6 C                                       1.3852001
     3   6 C        4   6 C                                       1.3836286
     4   6 C        5   6 C                                       1.3813583
     5   6 C        6   6 C                                       1.3892653
     2   6 C        8   6 C                                       1.3996728
     6   6 C        8   6 C                                       1.3966903
     8   6 C        9   7 N                                       1.4096925
     9   7 N       10   6 C                                       1.3495304
    11   6 C       12   7 N                                       1.4515183
    12   7 N       13   6 C                                       1.4575010
    13   6 C       14   6 C                                       1.5315734 (max)
    12   7 N       15   6 C                                       1.4557731
    15   6 C       16   6 C                                       1.5247942
    10   6 C       17   8 O                                       1.2123384
     1   6 C       18   1 H                                       1.0913723
     1   6 C       19   1 H                                       1.0868537
     1   6 C       20   1 H                                       1.0893965
     3   6 C       21   1 H                                       1.0803918
     4   6 C       22   1 H                                       1.0797600
     5   6 C       23   1 H                                       1.0803156
     7   6 C       24   1 H                                       1.0868544
     7   6 C       25   1 H                                       1.0898249
     7   6 C       26   1 H                                       1.0895507
     9   7 N       27   1 H                                       1.0159056 (min)
    11   6 C       28   1 H                                       1.0940064
    11   6 C       29   1 H                                       1.0984008
    13   6 C       30   1 H                                       1.0932062
    13   6 C       31   1 H                                       1.0931655
    14   6 C       32   1 H                                       1.0872041
    14   6 C       33   1 H                                       1.0875014
    14   6 C       34   1 H                                       1.0867142
    15   6 C       35   1 H                                       1.1015972
    15   6 C       36   1 H                                       1.0942627
    16   6 C       37   1 H                                       1.0864076
    16   6 C       38   1 H                                       1.0871352
    16   6 C       39   1 H                                       1.0872913

 * 5 distinct bonds (by element types)

   Z      Z             #   av. dist./Å        max./Å        min./Å
   1 H    6 C          21     1.0891054     1.1015972     1.0797600
   6 C    6 C           8     1.4240228     1.5315734     1.3813583
   1 H    7 N           1     1.0159056     1.0159056     1.0159056
   6 C    7 N           5     1.4248031     1.4575010     1.3495304
   6 C    8 O           1     1.2123384     1.2123384     1.2123384


optimized geometry written to: xtbopt.xyz


           -------------------------------------------------
          | TOTAL ENERGY              -51.132176545573 Eh   |
          | GRADIENT NORM               0.000288494783 Eh/α |
          | HOMO-LUMO GAP               3.659774301370 eV   |
           -------------------------------------------------

------------------------------------------------------------------------
 * finished run on 2025/05/15 at 16:08:32.813     
------------------------------------------------------------------------
 total:
 * wall-time:     0 d,  0 h,  0 min,  1.503 sec
 *  cpu-time:     0 d,  0 h,  0 min,  1.190 sec
 * ratio c/w:     0.792 speedup
 SCF:
 * wall-time:     0 d,  0 h,  0 min,  0.043 sec
 *  cpu-time:     0 d,  0 h,  0 min,  0.043 sec
 * ratio c/w:     0.995 speedup
 ANC optimizer:
 * wall-time:     0 d,  0 h,  0 min,  1.449 sec
 *  cpu-time:     0 d,  0 h,  0 min,  1.137 sec
 * ratio c/w:     0.785 speedup



----- Single-point -----
      -----------------------------------------------------------      
     |                   =====================                   |     
     |                           x T B                           |     
     |                   =====================                   |     
     |                         S. Grimme                         |     
     |          Mulliken Center for Theoretical Chemistry        |     
     |                    University of Bonn                     |     
      -----------------------------------------------------------      

   * xtb version 6.7.1 (edcfbbe) compiled by 'conda@3ef47c1a292c' on 2024-11-25

   xtb is free software: you can redistribute it and/or modify it under
   the terms of the GNU Lesser General Public License as published by
   the Free Software Foundation, either version 3 of the License, or
   (at your option) any later version.
   
   xtb is distributed in the hope that it will be useful,
   but WITHOUT ANY WARRANTY; without even the implied warranty of
   MERCHANTABILITY or FITNESS FOR A PARTICULAR PURPOSE.  See the
   GNU Lesser General Public License for more details.
   
   Cite this work as:
   * C. Bannwarth, E. Caldeweyher, S. Ehlert, A. Hansen, P. Pracht,
     J. Seibert, S. Spicher, S. Grimme, WIREs Comput. Mol. Sci., 2020, 11,
     e01493. DOI: 10.1002/wcms.1493
   
   for GFN2-xTB:
   * C. Bannwarth, S. Ehlert and S. Grimme., J. Chem. Theory Comput., 2019,
     15, 1652-1671. DOI: 10.1021/acs.jctc.8b01176
   for GFN1-xTB:
   * S. Grimme, C. Bannwarth, P. Shushkov, J. Chem. Theory Comput., 2017,
     13, 1989-2009. DOI: 10.1021/acs.jctc.7b00118
   for GFN0-xTB:
   * P. Pracht, E. Caldeweyher, S. Ehlert, S. Grimme, ChemRxiv, 2019, preprint.
     DOI: 10.26434/chemrxiv.8326202.v1
   for GFN-FF:
   * S. Spicher and S. Grimme, Angew. Chem. Int. Ed., 2020, 59, 15665-15673.
     DOI: 10.1002/anie.202004239
   
   for ALPB and GBSA implicit solvation:
   * S. Ehlert, M. Stahn, S. Spicher, S. Grimme, J. Chem. Theory Comput.,
     2021, 17, 4250-4261. DOI: 10.1021/acs.jctc.1c00471
   
   for ddCOSMO and CPCM-X implicit solvation:
   * M. Stahn, S. Ehlert, S. Grimme, J. Phys. Chem. A,
     2023, XX, XXXX-XXXX. DOI: 10.1021/acs.jpca.3c04382
   
   for DFT-D4:
   * E. Caldeweyher, C. Bannwarth and S. Grimme, J. Chem. Phys., 2017,
     147, 034112. DOI: 10.1063/1.4993215
   * E. Caldeweyher, S. Ehlert, A. Hansen, H. Neugebauer, S. Spicher,
     C. Bannwarth and S. Grimme, J. Chem. Phys., 2019, 150, 154122.
     DOI: 10.1063/1.5090222
   * E. Caldeweyher, J.-M. Mewes, S. Ehlert and S. Grimme, Phys. Chem. Chem. Phys.
[...]
   
   for GFN2-xTB:
   * C. Bannwarth, S. Ehlert and S. Grimme., J. Chem. Theory Comput., 2019,
     15, 1652-1671. DOI: 10.1021/acs.jctc.8b01176
   for GFN1-xTB:
   * S. Grimme, C. Bannwarth, P. Shushkov, J. Chem. Theory Comput., 2017,
     13, 1989-2009. DOI: 10.1021/acs.jctc.7b00118
   for GFN0-xTB:
   * P. Pracht, E. Caldeweyher, S. Ehlert, S. Grimme, ChemRxiv, 2019, preprint.
     DOI: 10.26434/chemrxiv.8326202.v1
   for GFN-FF:
   * S. Spicher and S. Grimme, Angew. Chem. Int. Ed., 2020, 59, 15665-15673.
     DOI: 10.1002/anie.202004239
   
   for ALPB and GBSA implicit solvation:
   * S. Ehlert, M. Stahn, S. Spicher, S. Grimme, J. Chem. Theory Comput.,
     2021, 17, 4250-4261. DOI: 10.1021/acs.jctc.1c00471
   
   for ddCOSMO and CPCM-X implicit solvation:
   * M. Stahn, S. Ehlert, S. Grimme, J. Phys. Chem. A,
     2023, XX, XXXX-XXXX. DOI: 10.1021/acs.jpca.3c04382
   
   for DFT-D4:
   * E. Caldeweyher, C. Bannwarth and S. Grimme, J. Chem. Phys., 2017,
     147, 034112. DOI: 10.1063/1.4993215
   * E. Caldeweyher, S. Ehlert, A. Hansen, H. Neugebauer, S. Spicher,
     C. Bannwarth and S. Grimme, J. Chem. Phys., 2019, 150, 154122.
     DOI: 10.1063/1.5090222
   * E. Caldeweyher, J.-M. Mewes, S. Ehlert and S. Grimme, Phys. Chem. Chem. Phys.
     2020, 22, 8499-8512. DOI: 10.1039/D0CP00502A
   
   for sTDA-xTB:
   * S. Grimme and C. Bannwarth, J. Chem. Phys., 2016, 145, 054103.
     DOI: 10.1063/1.4959605
   
   in the mass-spec context:
   * V. Asgeirsson, C. Bauer and S. Grimme, Chem. Sci., 2017, 8, 4879.
     DOI: 10.1039/c7sc00601b
   * J. Koopman and S. Grimme, ACS Omega 2019, 4, 12, 15120-15133.
     DOI: 10.1021/acsomega.9b02011
   
   for metadynamics refer to:
   * S. Grimme, J. Chem. Theory Comput., 2019, 155, 2847-2862
     DOI: 10.1021/acs.jctc.9b00143
   
   for SPH calculations refer to:
   * S. Spicher and S. Grimme, J. Chem. Theory Comput., 2021, 17, 1701-1714
     DOI: 10.1021/acs.jctc.0c01306
   
   for ONIOM refer to:
   * C. Plett, A. Katbashev, S. Ehlert, S. Grimme, M. Bursch,
     Phys. Chem. Chem. Phys., 2023, 25, 17860-17868. DOI: 10.1039/D3CP02178E
   
   for DIPRO refer to:
   * J. Kohn, N. Gildemeister, S. Grimme, D. Fazzi, A. Hansen,
     J. Chem. Phys., 2023, just accepted.
   
   for PTB refer to:
   * S. Grimme, M. Mueller, A. Hansen, J. Chem. Phys., 2023, 158, 124111.
     DOI: 10.1063/5.0137838
   
   with help from (in alphabetical order)
   P. Atkinson, C. Bannwarth, F. Bohle, G. Brandenburg, E. Caldeweyher
   M. Checinski, S. Dohm, S. Ehlert, S. Ehrlich, I. Gerasimov, C. Hölzer
   A. Katbashev, J. Kohn, J. Koopman, C. Lavigne, S. Lehtola, F. März, M. Müller,
   F. Musil, H. Neugebauer, J. Pisarek, C. Plett, P. Pracht, F. Pultar,
   J. Seibert, P. Shushkov, S. Spicher, M. Stahn, M. Steiner, T. Strunk,
   J. Stückrath, T. Rose, and J. Unsleber
   
 * started run on 2025/05/15 at 16:08:34.429     
   ID    Z sym.   atoms
    1    6 C      1-8, 10, 11, 13-16
    2    7 N      9, 12
    3    8 O      17
    4    1 H      18-39

           -------------------------------------------------
          |                Calculation Setup                |
           -------------------------------------------------

          program call               : xtb /rds/general/user/hgt20/home/callum/QDESCP/Lidocaine_rdkit_conf_11/Lidocaine_rdkit_conf_11.xyz --acc 1 --gfn 2 --chrg 0 --uhf 2 --etemp 300 --input /rds/general/user/hgt20/home/callum/QDESCP/Lidocaine_rdkit_conf_11/Lidocaine_rdkit_conf_11_xtb.inp -P 1
          hostname                   : login-c
          coordinate file            : /rds/general/user/hgt20/home/callum/QDESCP/Lidocaine_rdkit_conf_11/Lidocaine_rdkit_conf_11.xyz
          omp threads                :                     1


           -------------------------------------------------
          |                 G F N 2 - x T B                 |
           -------------------------------------------------

        Reference                      10.1021/acs.jctc.8b01176
      * Hamiltonian:
        H0-scaling (s, p, d)           1.850000    2.230000    2.230000
        zeta-weighting                 0.500000
      * Dispersion:
        s8                             2.700000
        a1                             0.520000
        a2                             5.000000
        s9                             5.000000
      * Repulsion:
        kExp                           1.500000    1.000000
        rExp                           1.000000
      * Coulomb:
        alpha                          2.000000
        third order                    shell-resolved
        anisotropic                    true
        a3                             3.000000
        a5                             4.000000
        cn-shift                       1.200000
        cn-exp                         4.000000
        max-rad                        5.000000


          ...................................................
          :                      SETUP                      :
          :.................................................:
          :  # basis functions                  90          :
          :  # atomic orbitals                  90          :
          :  # shells                           56          :
          :  # electrons                        94          :
          :  max. iterations                   250          :
          :  Hamiltonian                  GFN2-xTB          :
          :  restarted?                      false          :
          :  GBSA solvation                  false          :
          :  PC potential                    false          :
          :  electronic temp.          300.0000000     K    :
          :  accuracy                    1.0000000          :
          :  -> integral cutoff          0.2500000E+02      :
          :  -> integral neglect         0.1000000E-07      :
          :  -> SCF convergence          0.1000000E-05 Eh   :
          :  -> wf. convergence          0.1000000E-03 e    :
          :  Broyden damping             0.4000000          :
          :  net charge                          0          :
          :  unpaired electrons                  2          :
          ...................................................

 iter      E             dE          RMSdq      gap      omega  full diag
   1    -51.4473941 -0.514474E+02  0.319E+00    0.12       0.0  T
   2    -51.4023340  0.450601E-01  0.336E+00    1.23       1.0  T
   3    -51.5579309 -0.155597E+00  0.202E+00    0.16       1.0  T
   4    -51.4661862  0.917447E-01  0.257E+00    1.30       1.0  T
   5    -51.6476976 -0.181511E+00  0.143E+00    0.49       1.0  T
   6    -51.7082978 -0.606002E-01  0.874E-01    0.34       1.0  T
   7    -51.7306832 -0.223853E-01  0.538E-01    0.32       1.0  T
   8    -51.7349436 -0.426038E-02  0.417E-01    0.25       1.0  T
   9    -51.7399370 -0.499349E-02  0.192E-01    0.20       1.0  T
  10    -51.7386890  0.124803E-02  0.213E-01    0.27       1.0  T
  11    -51.7415173 -0.282828E-02  0.416E-02    0.24       1.0  T
  12    -51.7415372 -0.198817E-04  0.263E-02    0.24       1.0  T
  13    -51.7415693 -0.321407E-04  0.107E-02    0.24       1.5  T
  14    -51.7415747 -0.535376E-05  0.327E-03    0.24       4.9  T
  15    -51.7415748 -0.171681E-06  0.179E-03    0.24       9.0  T
  16    -51.7415750 -0.167052E-06  0.400E-04    0.24      40.0  T
  17    -51.7415750 -0.413394E-08  0.210E-04    0.24      76.3  T

   *** convergence criteria satisfied after 17 iterations ***

         #    Occupation            Energy/Eh            Energy/eV
      -------------------------------------------------------------
         1        2.0000           -0.6850460             -18.6411
       ...           ...                  ...                  ...
        42        2.0000           -0.4115019             -11.1975
        43        2.0000           -0.4037052             -10.9854
        44        2.0000           -0.3965603             -10.7910
        45        1.9999           -0.3772109             -10.2644
        46        1.9930           -0.3731840             -10.1549
        47        1.0071           -0.3637781              -9.8989
        48        0.9898           -0.2091534              -5.6914 (HOMO)
        49        0.0102           -0.2004511              -5.4546 (LUMO)
        50                         -0.1799496              -4.8967
        51                         -0.0739666              -2.0127
        52                         -0.0118640              -0.3228
        53                          0.0225483               0.6136
       ...                                ...                  ...
        90                          0.6919863              18.8299
      -------------------------------------------------------------
                  HL-Gap            0.0087024 Eh            0.2368 eV
             Fermi-level           -0.2866382 Eh           -7.7998 eV

 transition dipole moment (au) for excitation:          47          48
     X       Y       Z   
   1.2215  -0.3065   0.6170  total (au/Debye):    1.402   3.565
 dE (eV)             :    4.208
 oscillator strength :  0.28672E+00

 SCC (total)                   0 d,  0 h,  0 min,  0.067 sec
 SCC setup                      ...        0 min,  0.000 sec (  0.434%)
 Dispersion                     ...        0 min,  0.000 sec (  0.606%)
 classical contributions        ...        0 min,  0.000 sec (  0.190%)
 integral evaluation            ...        0 min,  0.006 sec (  8.744%)
 iterations                     ...        0 min,  0.026 sec ( 38.055%)
 molecular gradient             ...        0 min,  0.030 sec ( 44.406%)
 printout                       ...        0 min,  0.005 sec (  7.556%)

         :::::::::::::::::::::::::::::::::::::::::::::::::::::
         ::                     SUMMARY                     ::
         :::::::::::::::::::::::::::::::::::::::::::::::::::::
         :: total energy             -50.982176994445 Eh    ::
         :: gradient norm              0.148287788648 Eh/a0 ::
         :: HOMO-LUMO gap              0.236803214815 eV    ::
         ::.................................................::
         :: SCC energy               -51.741112978749 Eh    ::
         :: -> isotropic ES            0.045714396860 Eh    ::
         :: -> anisotropic ES          0.008335384572 Eh    ::
         :: -> anisotropic XC          0.024808790138 Eh    ::
         :: -> dispersion             -0.036691653942 Eh    ::
         :: repulsion energy           0.758935984303 Eh    ::
         :: add. restraining           0.000000000000 Eh    ::
         :: total charge               0.000000000006 e     ::
         :::::::::::::::::::::::::::::::::::::::::::::::::::::

           -------------------------------------------------
          |                Property Printout                |
           -------------------------------------------------

    * Orbital Energies and Occupations

         #    Occupation            Energy/Eh            Energy/eV
      -------------------------------------------------------------
         1        2.0000           -0.6850460             -18.6411
       ...           ...                  ...                  ...
        36        2.0000           -0.4588171             -12.4850
        37        2.0000           -0.4563672             -12.4184
        38        2.0000           -0.4542952             -12.3620
        39        2.0000           -0.4438455             -12.0776
        40        2.0000           -0.4378058             -11.9133
        41        2.0000           -0.4229465             -11.5090
        42        2.0000           -0.4115019             -11.1975
        43        2.0000           -0.4037052             -10.9854
        44        2.0000           -0.3965603             -10.7910
        45        1.9999           -0.3772109             -10.2644
        46        1.9930           -0.3731840             -10.1549
        47        1.0071           -0.3637781              -9.8989
        48        0.9898           -0.2091534              -5.6914 (HOMO)
        49        0.0102           -0.2004511              -5.4546 (LUMO)
        50                         -0.1799496              -4.8967
        51                         -0.0739666              -2.0127
        52                         -0.0118640              -0.3228
        53                          0.0225483               0.6136
        54                          0.0456965               1.2435
        55                          0.0745826               2.0295
        56                          0.0984830               2.6799
        57                          0.1016490               2.7660
        58                          0.1063484               2.8939
        59                          0.1071483               2.9157
       ...                                ...                  ...
        90                          0.6919863              18.8299
      -------------------------------------------------------------
                  HL-Gap            0.0087024 Eh            0.2368 eV
             Fermi-level           -0.2866382 Eh           -7.7998 eV

     #   Z          covCN         q      C6AA      α(0)
     1   6 C        3.757    -0.106    22.573     6.774
     2   6 C        2.969    -0.015    28.377     8.738
     3   6 C        2.924    -0.043    29.079     8.843
     4   6 C        2.916    -0.050    29.240     8.867
     5   6 C        2.927    -0.055    29.360     8.886
     6   6 C        2.965     0.013    27.712     8.635
     7   6 C        3.758    -0.110    22.649     6.785
     8   6 C        2.916     0.042    27.062     8.531
     9   7 N        2.696    -0.146    24.169     7.301
    10   6 C        2.747     0.224    23.287     7.902
    11   6 C        3.760    -0.022    21.008     6.534
    12   7 N        2.726    -0.147    24.177     7.303
    13   6 C        3.750     0.002    20.615     6.475
    14   6 C        3.750    -0.109    22.639     6.786
    15   6 C        3.747     0.010    20.481     6.455
    16   6 C        3.752    -0.110    22.673     6.790
    17   8 O        0.857    -0.432    22.321     6.334
    18   1 H        0.924     0.033     2.547     2.496
    19   1 H        0.925     0.042     2.422     2.434
    20   1 H        0.925     0.041     2.437     2.441
    21   1 H        0.926     0.023     2.684     2.562
    22   1 H        0.926     0.020     2.735     2.586
    23   1 H        0.926     0.024     2.669     2.555
    24   1 H        0.925     0.039     2.463     2.454
    25   1 H        0.925     0.037     2.486     2.466
    26   1 H        0.925     0.089     1.892     2.151
    27   1 H        0.860     0.186     1.179     1.701
    28   1 H        0.924     0.049     2.332     2.388
    29   1 H        0.923     0.052     2.300     2.372
    30   1 H        0.924     0.044     2.393     2.419
    31   1 H        0.924     0.046     2.371     2.408
    32   1 H        0.925     0.039     2.460     2.453
    33   1 H        0.925     0.040     2.446     2.446
    34   1 H        0.925     0.043     2.413     2.429
    35   1 H        0.923     0.030     2.591     2.517
    36   1 H        0.924     0.041     2.432     2.439
    37   1 H        0.925     0.044     2.390     2.418
    38   1 H        0.925     0.045     2.381     2.413
    39   1 H        0.925     0.046     2.370     2.407

 Mol. C6AA /au·bohr⁶  :      13858.130716
 Mol. C8AA /au·bohr⁸  :     311365.959403
 Mol. α(0) /au        :        180.895134


Wiberg/Mayer (AO) data.
largest (>0.10) Wiberg bond orders for each atom

 ---------------------------------------------------------------------------
     #   Z sym  total        # sym  WBO       # sym  WBO       # sym  WBO
 ---------------------------------------------------------------------------
     1   6 C    3.996 --     2 C    1.027    19 H    0.985    20 H    0.972
                            18 H    0.967
     2   6 C    3.948 --     3 C    1.551     8 C    1.126     1 C    1.027
     3   6 C    3.964 --     2 C    1.551     4 C    1.261    21 H    0.969
     4   6 C    3.805 --     3 C    1.261     5 C    1.259    22 H    0.972
     5   6 C    3.964 --     6 C    1.533     4 C    1.259    23 H    0.968
     6   6 C    3.956 --     5 C    1.533     8 C    1.144     7 C    1.041
     7   6 C    3.994 --     6 C    1.041    24 H    0.984    25 H    0.969
                            26 H    0.939
     8   6 C    3.805 --     6 C    1.144     9 N    1.142     2 C    1.126
                            10 C    0.107
     9   7 N    3.501 --    10 C    1.145     8 C    1.142    27 H    0.902
                            17 O    0.129
    10   6 C    3.908 --    17 O    1.563     9 N    1.145    11 C    0.911
                             8 C    0.107
    11   6 C    3.964 --    12 N    1.022    28 H    0.956    29 H    0.946
                            10 C    0.911
    12   7 N    3.253 --    11 C    1.022    13 C    0.997    15 C    0.995
    13   6 C    3.980 --    14 C    1.003    12 N    0.997    31 H    0.972
                            30 H    0.970
    14   6 C    3.988 --    13 C    1.003    32 H    0.986    34 H    0.984
                            33 H    0.983
    15   6 C    3.978 --    16 C    1.016    12 N    0.995    36 H    0.971
                            35 H    0.960
    16   6 C    3.994 --    15 C    1.016    39 H    0.986    37 H    0.985
                            38 H    0.985
    17   8 O    2.052 --    10 C    1.563     9 N    0.129
    18   1 H    0.998 --     1 C    0.967
    19   1 H    0.998 --     1 C    0.985
    20   1 H    0.998 --     1 C    0.972
    21   1 H    0.998 --     3 C    0.969
    22   1 H    0.999 --     4 C    0.972
    23   1 H    0.998 --     5 C    0.968
    24   1 H    0.998 --     7 C    0.984
    25   1 H    0.998 --     7 C    0.969
    26   1 H    0.991 --     7 C    0.939
    27   1 H    0.965 --     9 N    0.902
    28   1 H    0.993 --    11 C    0.956
    29   1 H    0.989 --    11 C    0.946
    30   1 H    0.997 --    13 C    0.970
    31   1 H    0.998 --    13 C    0.972
    32   1 H    0.998 --    14 C    0.986
    33   1 H    0.998 --    14 C    0.983
    34   1 H    0.998 --    14 C    0.984
    35   1 H    0.990 --    15 C    0.960
    36   1 H    0.998 --    15 C    0.971
    37   1 H    0.998 --    16 C    0.985
    38   1 H    0.998 --    16 C    0.985
    39   1 H    0.998 --    16 C    0.986
 ---------------------------------------------------------------------------

Topologies differ in total number of bonds
Writing topology from bond orders to xtbtopo.mol

molecular dipole:
                 x           y           z       tot (Debye)
 q only:        1.803       0.910      -0.881
   full:        2.268       1.029      -0.833       6.675
molecular quadrupole (traceless):
                xx          xy          yy          xz          yz          zz
 q only:        1.917      -0.444       2.478       2.476       6.550      -4.395
  q+dip:        4.696      -2.390       2.403       5.525       8.433      -7.099
   full:        3.417      -2.163       1.885       4.334       8.365      -5.303


           -------------------------------------------------
          | TOTAL ENERGY              -50.982176994445 Eh   |
          | GRADIENT NORM               0.148287788648 Eh/α |
          | HOMO-LUMO GAP               0.236803214815 eV   |
           -------------------------------------------------

------------------------------------------------------------------------
 * finished run on 2025/05/15 at 16:08:34.508     
------------------------------------------------------------------------
 total:
 * wall-time:     0 d,  0 h,  0 min,  0.079 sec
 *  cpu-time:     0 d,  0 h,  0 min,  0.066 sec
 * ratio c/w:     0.842 speedup
 SCF:
 * wall-time:     0 d,  0 h,  0 min,  0.068 sec
 *  cpu-time:     0 d,  0 h,  0 min,  0.056 sec
 * ratio c/w:     0.832 speedup


