50
 energy: -70.103643189521 gnorm: 0.000283950463 xtb: 6.7.1 (edcfbbe)
O           -0.79422909752339        1.39284238297594       -1.61186541888122
C           -0.25032132852207        0.14659448147541       -1.24525064360122
C            0.32225571045966        0.22268373530614        0.18886107856380
N            1.10367400919625        1.45269510534882        0.33863720241293
C            1.29636891555643        1.70193444837712        1.76086635791799
C            1.90318336062650        0.46321500701651        2.45399245595691
C            2.40885948128015        1.33518825202811       -0.30268933909843
C            3.30574051050616        0.30209120600142        0.41354701467801
C            4.08055052755516       -0.58341449265779       -0.56367856502192
C            5.15029252973687        0.19855575787726       -1.31768011168273
C            2.38556249284350       -0.49202341300481        1.35518107478121
C            1.16184011960420       -1.00217099743967        0.58618863871481
C           -1.26718986725227       -0.96627094713266       -1.31868305960665
C           -0.91390896738308       -2.15179639779930       -1.91890301682016
C           -1.80648714748122       -3.23279119332442       -1.91050428129992
N           -2.98306887185629       -3.19260571391352       -1.35215227682000
C           -3.37407520459344       -2.04286704663461       -0.77361225771284
C           -2.55703948811249       -0.87656192817348       -0.73191043042921
C           -3.06285387831630        0.28905219508774       -0.12134654884338
C           -4.31644287866152        0.29880491894762        0.43875350917742
O           -4.89115525785052        1.37361703707766        1.04489912705838
C           -4.17364463723747        2.58339284076784        1.07865721031035
C           -5.11423939073319       -0.86873935463189        0.41374822367450
C           -4.65615517116317       -2.00368868710906       -0.18064229055963
H           -0.23276786996557        2.06411520639602       -1.19467379098212
H            0.56624416424813       -0.10410645478487       -1.94477759475736
H           -0.53184522031930        0.32158047935389        0.86724168802643
H            1.95300426501644        2.56914194946381        1.85791048478000
H            0.32918858488331        1.96349384023778        2.19803571036212
H            2.73597143970215        0.75057461273045        3.09700286284082
H            1.15865287883405       -0.03961800594262        3.07333868465809
H            2.25445813216440        1.05043499923018       -1.34433165756343
H            2.86738751506008        2.32769004858055       -0.29497896671788
H            4.04128221476313        0.82554877321807        1.03492744446285
H            4.55753515466382       -1.39271851870154       -0.00485399815311
H            3.39649144919803       -1.03837113864559       -1.28304321273070
H            5.69427905564888       -0.45819376952459       -1.99256000900005
H            4.70540117356271        0.99890310135151       -1.90398281151159
H            5.86157385058913        0.63881765136944       -0.62217930934463
H            2.92984326591447       -1.33212369031645        1.79525526487148
H            1.47882694573687       -1.56035294788716       -0.29508933376395
H            0.57632923161243       -1.67925972239919        1.20960970938907
H            0.04930193741556       -2.26401641861190       -2.39509480998576
H           -1.53285858679100       -4.17087419792311       -2.37674940884448
H           -2.45758007324834        1.17820481308728       -0.14576159604603
H           -3.24033464454796        2.48040571787059        1.64209722849082
H           -3.94885457672199        2.94451849212275        0.07027404403681
H           -4.82177579622678        3.29756400848058        1.58409277092930
H           -6.09195427670000       -0.82002778938416        0.86726728804642
H           -5.25531668516810       -2.89936823583101       -0.22329033435889
