57
 energy: -90.583533236798 gnorm: 0.000557007561 xtb: 6.7.1 (edcfbbe)
C            2.94015172592192       -1.52430277065009       -1.22811858299895
N            3.24258787516188       -0.46203059374990       -0.29640485039235
C            4.43100243518866       -0.40941640264727        0.34170036827623
N            4.65856726905473        0.55031639258727        1.20760196062277
C            5.85718981746407        0.56456517244924        1.81999884973740
C            6.84637092864288       -0.34191804011866        1.60998733698946
C            6.63932160824819       -1.40457066348791        0.67071628566015
N            5.36725939446836       -1.35702557926071        0.06878303125705
O            7.40269295000774       -2.29470435394883        0.35420841928223
C            2.24285118919805        0.55677545597724       -0.01567128354642
C            1.01417417746715       -0.02668951033196        0.68891220552265
C            0.02072613045222        1.09978531172031        0.99110201587867
C            1.81776991778547        1.30944225776813       -1.27781540517721
C            0.76954868471568        2.36147190125815       -0.91137077300276
N           -0.37985149802283        1.79024317255874       -0.22703697483163
C           -1.26068674547716        1.11820322970683       -1.05144715976618
N           -1.00631672914961        0.69507926965900       -2.25998495357433
C           -2.18496047160526        0.17042595627748       -2.72861696124651
C           -3.18074862871792        0.29297766743088       -1.73358542374901
N           -2.56621376912096        0.91454641491612       -0.66807566887686
C           -3.20891133837385        1.37300539186443        0.52926004918365
C           -3.30009738513328        0.33044147818350        1.62233336711509
C           -3.59488648007612        0.73530816225025        2.91971643402997
C           -3.70667871321593       -0.18828168313468        3.94134087227152
C           -3.51653726920132       -1.52751693931740        3.64952694808647
F           -3.62015487293105       -2.43497098187126        4.64073922305484
C           -3.22229869018824       -1.95841989211090        2.37026492258297
C           -3.11840191223553       -1.02077381142879        1.35785053403071
C           -4.47017946514037       -0.16891609760245       -1.92827965659990
C           -4.74872129991821       -0.75521953285532       -3.14889425202202
C           -3.77291066878358       -0.88166790637971       -4.13673727031439
C           -2.48380431248495       -0.42554877659376       -3.94649311869769
H            3.61752712780132       -1.50502431233269       -2.08702798207287
H            1.92862966227204       -1.39040646413710       -1.59909226673775
H            2.99774964016255       -2.50442876464153       -0.74513094545248
H            5.98023246446535        1.38037625827995        2.52024102359949
H            7.79104469377653       -0.29497849405075        2.12340261664617
H            5.19083154805552       -2.09017002156397       -0.60503085611354
H            2.73681722034201        1.25463330970385        0.66778573431958
H            0.52194980353654       -0.76372871154619        0.05055241087391
H            1.31415641234973       -0.51499301712982        1.61685887838510
H            0.48616516697331        1.83922615060447        1.64891608192842
H           -0.85818052182860        0.69197141925652        1.49160103779594
H            1.36333775941496        0.63848862944355       -2.00665449560636
H            2.68310339218987        1.79236283140035       -1.73206253527499
H            0.40970770126774        2.85541792732637       -1.81428500130806
H            1.20167338174503        3.10938095276393       -0.24007808350504
H           -2.66160936030112        2.24855156090994        0.89424404994909
H           -4.22429266200870        1.69500519374409        0.26532322514194
H           -3.73857871952629        1.78464581323055        3.13040337772783
H           -3.93601952940670        0.11421300962434        4.95035955026565
H           -3.08207621422373       -3.00966514684334        2.17577375547896
H           -2.89381232332021       -1.35039361027504        0.35467332666646
H           -5.22657367671230       -0.08131948964627       -1.16204781186255
H           -5.74446682365614       -1.12586526802534       -3.34135179828602
H           -4.03680745495430       -1.35003462351967       -5.07340249863754
H           -1.72836254235564       -0.52367883169664       -4.70948128264850
