----- Optimization -----
      -----------------------------------------------------------      
     |                   =====================                   |     
     |                           x T B                           |     
     |                   =====================                   |     
     |                         S. Grimme                         |     
     |          Mulliken Center for Theoretical Chemistry        |     
     |                    University of Bonn                     |     
      -----------------------------------------------------------      

   * xtb version 6.7.1 (edcfbbe) compiled by 'conda@3ef47c1a292c' on 2024-11-25

   xtb is free software: you can redistribute it and/or modify it under
   the terms of the GNU Lesser General Public License as published by
   the Free Software Foundation, either version 3 of the License, or
   (at your option) any later version.
   
   xtb is distributed in the hope that it will be useful,
   but WITHOUT ANY WARRANTY; without even the implied warranty of
   MERCHANTABILITY or FITNESS FOR A PARTICULAR PURPOSE.  See the
   GNU Lesser General Public License for more details.
   
   Cite this work as:
   * C. Bannwarth, E. Caldeweyher, S. Ehlert, A. Hansen, P. Pracht,
     J. Seibert, S. Spicher, S. Grimme, WIREs Comput. Mol. Sci., 2020, 11,
     e01493. DOI: 10.1002/wcms.1493
   
   for GFN2-xTB:
   * C. Bannwarth, S. Ehlert and S. Grimme., J. Chem. Theory Comput., 2019,
     15, 1652-1671. DOI: 10.1021/acs.jctc.8b01176
   for GFN1-xTB:
   * S. Grimme, C. Bannwarth, P. Shushkov, J. Chem. Theory Comput., 2017,
     13, 1989-2009. DOI: 10.1021/acs.jctc.7b00118
   for GFN0-xTB:
   * P. Pracht, E. Caldeweyher, S. Ehlert, S. Grimme, ChemRxiv, 2019, preprint.
     DOI: 10.26434/chemrxiv.8326202.v1
   for GFN-FF:
   * S. Spicher and S. Grimme, Angew. Chem. Int. Ed., 2020, 59, 15665-15673.
     DOI: 10.1002/anie.202004239
   
   for ALPB and GBSA implicit solvation:
   * S. Ehlert, M. Stahn, S. Spicher, S. Grimme, J. Chem. Theory Comput.,
     2021, 17, 4250-4261. DOI: 10.1021/acs.jctc.1c00471
   
   for ddCOSMO and CPCM-X implicit solvation:
   * M. Stahn, S. Ehlert, S. Grimme, J. Phys. Chem. A,
     2023, XX, XXXX-XXXX. DOI: 10.1021/acs.jpca.3c04382
   
   for DFT-D4:
   * E. Caldeweyher, C. Bannwarth and S. Grimme, J. Chem. Phys., 2017,
     147, 034112. DOI: 10.1063/1.4993215
   * E. Caldeweyher, S. Ehlert, A. Hansen, H. Neugebauer, S. Spicher,
     C. Bannwarth and S. Grimme, J. Chem. Phys., 2019, 150, 154122.
     DOI: 10.1063/1.5090222
   * E. Caldeweyher, J.-M. Mewes, S. Ehlert and S. Grimme, Phys. Chem. Chem. Phys.
     2020, 22, 8499-8512. DOI: 10.1039/D0CP00502A
   
   for sTDA-xTB:
   * S. Grimme and C. Bannwarth, J. Chem. Phys., 2016, 145, 054103.
     DOI: 10.1063/1.4959605
   
   in the mass-spec context:
   * V. Asgeirsson, C. Bauer and S. Grimme, Chem. Sci., 2017, 8, 4879.
     DOI: 10.1039/c7sc00601b
   * J. Koopman and S. Grimme, ACS Omega 2019, 4, 12, 15120-15133.
     DOI: 10.1021/acsomega.9b02011
   
   for metadynamics refer to:
   * S. Grimme, J. Chem. Theory Comput., 2019, 155, 2847-2862
     DOI: 10.1021/acs.jctc.9b00143
   
   for SPH calculations refer to:
   * S. Spicher and S. Grimme, J. Chem. Theory Comput., 2021, 17, 1701-1714
     DOI: 10.1021/acs.jctc.0c01306
   
   for ONIOM refer to:
   * C. Plett, A. Katbashev, S. Ehlert, S. Grimme, M. Bursch,
     Phys. Chem. Chem. Phys., 2023, 25, 17860-17868. DOI: 10.1039/D3CP02178E
   
   for DIPRO refer to:
   * J. Kohn, N. Gildemeister, S. Grimme, D. Fazzi, A. Hansen,
     J. Chem. Phys., 2023, just accepted.
   
   for PTB refer to:
   * S. Grimme, M. Mueller, A. Hansen, J. Chem. Phys., 2023, 158, 124111.
     DOI: 10.1063/5.0137838
   
   with help from (in alphabetical order)
   P. Atkinson, C. Bannwarth, F. Bohle, G. Brandenburg, E. Caldeweyher
   M. Checinski, S. Dohm, S. Ehlert, S. Ehrlich, I. Gerasimov, C. Hölzer
   A. Katbashev, J. Kohn, J. Koopman, C. Lavigne, S. Lehtola, F. März, M. Müller,
   F. Musil, H. Neugebauer, J. Pisarek, C. Plett, P. Pracht, F. Pultar,
   J. Seibert, P. Shushkov, S. Spicher, M. Stahn, M. Steiner, T. Strunk,
   J. Stückrath, T. Rose, and J. Unsleber
   
 * started run on 2025/05/15 at 16:17:37.279     
   ID    Z sym.   atoms
    1    6 C      1, 3, 5-7, 10-14, 16, 18, 19, 21-25, 27-32
    2    7 N      2, 4, 8, 15, 17, 20
    3    8 O      9
    4    9 F      26
    5    1 H      33-57

           -------------------------------------------------
          |                Calculation Setup                |
           -------------------------------------------------

          program call               : xtb /rds/general/user/hgt20/home/callum/QDESCP/Mizolastine_rdkit_conf_14/Mizolastine_rdkit_conf_14.xyz --opt normal --acc 1 --gfn 2 --chrg 0 --uhf 0 -P 1
          hostname                   : login-c
          coordinate file            : /rds/general/user/hgt20/home/callum/QDESCP/Mizolastine_rdkit_conf_14/Mizolastine_rdkit_conf_14.xyz
          omp threads                :                     1


           -------------------------------------------------
          |                 G F N 2 - x T B                 |
           -------------------------------------------------

        Reference                      10.1021/acs.jctc.8b01176
      * Hamiltonian:
        H0-scaling (s, p, d)           1.850000    2.230000    2.230000
        zeta-weighting                 0.500000
      * Dispersion:
        s8                             2.700000
        a1                             0.520000
        a2                             5.000000
        s9                             5.000000
      * Repulsion:
        kExp                           1.500000    1.000000
        rExp                           1.000000
      * Coulomb:
        alpha                          2.000000
        third order                    shell-resolved
        anisotropic                    true
        a3                             3.000000
        a5                             4.000000
        cn-shift                       1.200000
        cn-exp                         4.000000
        max-rad                        5.000000


          ...................................................
          :                      SETUP                      :
          :.................................................:
          :  # basis functions                 153          :
          :  # atomic orbitals                 153          :
          :  # shells                           89          :
          :  # electrons                       164          :
          :  max. iterations                   250          :
          :  Hamiltonian                  GFN2-xTB          :
          :  restarted?                      false          :
          :  GBSA solvation                  false          :
          :  PC potential                    false          :
          :  electronic temp.          300.0000000     K    :
          :  accuracy                    1.0000000          :
          :  -> integral cutoff          0.2500000E+02      :
          :  -> integral neglect         0.1000000E-07      :
          :  -> SCF convergence          0.1000000E-05 Eh   :
          :  -> wf. convergence          0.1000000E-03 e    :
          :  Broyden damping             0.4000000          :
          :  net charge                          0          :
          :  unpaired electrons                  0          :
          ...................................................

 iter      E             dE          RMSdq      gap      omega  full diag
   1    -91.6477549 -0.916478E+02  0.372E+00    2.92       0.0  T
   2    -91.8023713 -0.154616E+00  0.228E+00    3.23       1.0  T
   3    -91.8076334 -0.526205E-02  0.119E+00    3.18       1.0  T
   4    -91.8149555 -0.732215E-02  0.398E-01    3.08       1.0  T
   5    -91.8218066 -0.685103E-02  0.997E-02    3.08       1.0  T
   6    -91.8219896 -0.183000E-03  0.508E-02    3.08       1.0  T
   7    -91.8220492 -0.596683E-04  0.194E-02    3.08       1.0  T
   8    -91.8220509 -0.164814E-05  0.877E-03    3.09       1.5  T
   9    -91.8220524 -0.151598E-05  0.314E-03    3.09       4.2  T
  10    -91.8220526 -0.183408E-06  0.125E-03    3.09      10.6  T
  11    -91.8220526 -0.265445E-07  0.585E-04    3.09      22.6  T
  12    -91.8220526 -0.487485E-08  0.258E-04    3.09      51.4  T

   *** convergence criteria satisfied after 12 iterations ***

         #    Occupation            Energy/Eh            Energy/eV
      -------------------------------------------------------------
         1        2.0000           -0.8272133             -22.5096
       ...           ...                  ...                  ...
        76        2.0000           -0.4040826             -10.9956
        77        2.0000           -0.3895224             -10.5994
        78        2.0000           -0.3828977             -10.4192
        79        2.0000           -0.3812820             -10.3752
        80        2.0000           -0.3809288             -10.3656
        81        2.0000           -0.3760782             -10.2336
        82        2.0000           -0.3697379             -10.0611 (HOMO)
        83                         -0.2563262              -6.9750 (LUMO)
        84                         -0.2504226              -6.8143
        85                         -0.2457568              -6.6874
        86                         -0.2411257              -6.5614
        87                         -0.2190772              -5.9614
       ...                                ...                  ...
       153                          0.7094853              19.3061
      -------------------------------------------------------------
                  HL-Gap            0.1134117 Eh            3.0861 eV
             Fermi-level           -0.3130321 Eh           -8.5180 eV

 SCC (total)                   0 d,  0 h,  0 min,  0.146 sec
 SCC setup                      ...        0 min,  0.001 sec (  0.437%)
 Dispersion                     ...        0 min,  0.001 sec (  0.595%)
 classical contributions        ...        0 min,  0.000 sec (  0.182%)
 integral evaluation            ...        0 min,  0.013 sec (  8.592%)
 iterations                     ...        0 min,  0.085 sec ( 58.190%)
 molecular gradient             ...        0 min,  0.046 sec ( 31.773%)
 printout                       ...        0 min,  0.000 sec (  0.225%)

         :::::::::::::::::::::::::::::::::::::::::::::::::::::
         ::                     SUMMARY                     ::
         :::::::::::::::::::::::::::::::::::::::::::::::::::::
         :: total energy             -90.564997722647 Eh    ::
         :: gradient norm              0.100290646763 Eh/a0 ::
         :: HOMO-LUMO gap              3.086089898558 eV    ::
         ::.................................................::
         :: SCC energy               -91.821431420881 Eh    ::
         :: -> isotropic ES            0.094494810269 Eh    ::
         :: -> anisotropic ES          0.007743870186 Eh    ::
         :: -> anisotropic XC          0.044189689146 Eh    ::
         :: -> dispersion             -0.067331932258 Eh    ::
         :: repulsion energy           1.256433698235 Eh    ::
         :: add. restraining           0.000000000000 Eh    ::
         :: total charge               0.000000000000 e     ::
         :::::::::::::::::::::::::::::::::::::::::::::::::::::

      ----------------------------------------------------------- 
     |                   =====================                   |
     |                        A N C O P T                        |
     |                   =====================                   |
     |               Approximate Normal Coordinate               |
     |                Rational Function Optimizer                |
      ----------------------------------------------------------- 
      ----------------------------------------------------------- 
     |                   =====================                   |
     |                        A N C O P T                        |
     |                   =====================                   |
     |               Approximate Normal Coordinate               |
     |                Rational Function Optimizer                |
      ----------------------------------------------------------- 

          ...................................................
          :                      SETUP                      :
          :.................................................:
          :   optimization level            normal          :
          :   max. optcycles                   200          :
          :   ANC micro-cycles                  20          :
          :   degrees of freedom               165          :
          :.................................................:
          :   RF solver                   davidson          :
          :   write xtbopt.log                true          :
          :   linear?                        false          :
          :   energy convergence         0.5000000E-05 Eh   :
          :   grad. convergence          0.1000000E-02 Eh/α :
          :   maxmium RF displ.          1.0000000          :
          :   Hlow (freq-cutoff)         0.1000000E-01      :
          :   Hmax (freq-cutoff)         5.0000000          :
          :   S6 in model hess.         20.0000000          :
          ...................................................

generating ANC from exact Hessian ...
Using Lindh-Hessian (1995)
 Shifting diagonal of input Hessian by    9.8072888334589155E-003
 Lowest  eigenvalues of input Hessian
    0.000000    0.000000    0.000000    0.000000    0.000000    0.000000
    0.010000    0.010038    0.010166    0.010402    0.010896    0.011065
    0.011504    0.011700    0.012068    0.013904    0.014150    0.014646
 Highest eigenvalues
    2.037067    2.072738    2.179351    2.215056    2.285196    2.444852


........................................................................
.............................. CYCLE    1 ..............................
........................................................................

 iter      E             dE          RMSdq      gap      omega  full diag
   1    -91.8220526 -0.918221E+02  0.103E-04    3.09       0.0  T
   2    -91.8220526 -0.105302E-09  0.672E-05    3.09     197.1  T
   3    -91.8220526 -0.821814E-10  0.436E-05    3.09     303.8  T
     SCC iter.                  ...        0 min,  0.013 sec
     gradient                   ...        0 min,  0.073 sec
 * total energy  :   -90.5649977 Eh     change       -0.2057405E-08 Eh
   gradient norm :     0.1002905 Eh/α   predicted     0.0000000E+00 (-100.00%)
   displ. norm   :     0.3653080 α      lambda       -0.1740914E-01
   maximum displ.:     0.1789586 α      in ANC's #42, #31, #47, ...

........................................................................
.............................. CYCLE    2 ..............................
........................................................................

 iter      E             dE          RMSdq      gap      omega  full diag
   1    -91.8629972 -0.918630E+02  0.204E-01    3.17       0.0  T
   2    -91.8632471 -0.249922E-03  0.125E-01    3.16       1.0  T
   3    -91.8632258  0.212824E-04  0.673E-02    3.16       1.0  T
   4    -91.8633137 -0.879064E-04  0.177E-02    3.16       1.0  T
   5    -91.8633292 -0.154721E-04  0.410E-03    3.16       3.2  T
   6    -91.8633294 -0.257939E-06  0.181E-03    3.16       7.3  T
   7    -91.8633295 -0.268822E-07  0.645E-04    3.16      20.5  T
   8    -91.8633295 -0.101332E-07  0.223E-04    3.16      59.3  T
     SCC iter.                  ...        0 min,  0.031 sec
     gradient                   ...        0 min,  0.073 sec
 * total energy  :   -90.5770862 Eh     change       -0.1208843E-01 Eh
   gradient norm :     0.0484589 Eh/α   predicted    -0.9875460E-02 ( -18.31%)
   displ. norm   :     0.3012420 α      lambda       -0.5398605E-02
   maximum displ.:     0.1182704 α      in ANC's #42, #31, #16, ...

........................................................................
.............................. CYCLE    3 ..............................
........................................................................

 iter      E             dE          RMSdq      gap      omega  full diag
   1    -91.8857987 -0.918858E+02  0.135E-01    3.19       0.0  T
   2    -91.8859485 -0.149780E-03  0.830E-02    3.19       1.0  T
   3    -91.8859645 -0.159923E-04  0.481E-02    3.19       1.0  T
   4    -91.8859964 -0.319428E-04  0.133E-02    3.19       1.0  T
   5    -91.8860050 -0.855347E-05  0.265E-03    3.19       5.0  T
   6    -91.8860051 -0.123339E-06  0.120E-03    3.19      11.0  T
   7    -91.8860051 -0.100093E-07  0.404E-04    3.19      32.8  T
   8    -91.8860051 -0.360421E-08  0.151E-04    3.19      87.7  T
     SCC iter.                  ...        0 min,  0.058 sec
     gradient                   ...        0 min,  0.046 sec
 * total energy  :   -90.5802951 Eh     change       -0.3208946E-02 Eh
   gradient norm :     0.0179651 Eh/α   predicted    -0.2945303E-02 (  -8.22%)
   displ. norm   :     0.1951868 α      lambda       -0.8267922E-03
   maximum displ.:     0.1012053 α      in ANC's #7, #16, #12, ...

........................................................................
.............................. CYCLE    4 ..............................
........................................................................

 iter      E             dE          RMSdq      gap      omega  full diag
   1    -91.8888298 -0.918888E+02  0.508E-02    3.19       0.0  T
   2    -91.8888420 -0.121669E-04  0.301E-02    3.19       1.0  T
   3    -91.8888403  0.166091E-05  0.180E-02    3.19       1.0  T
   4    -91.8888478 -0.744125E-05  0.350E-03    3.19       3.8  T
   5    -91.8888484 -0.605365E-06  0.814E-04    3.19      16.3  T
   6    -91.8888484 -0.781800E-08  0.407E-04    3.19      32.6  T
     SCC iter.                  ...        0 min,  0.023 sec
     gradient                   ...        0 min,  0.046 sec
 * total energy  :   -90.5809052 Eh     change       -0.6101176E-03 Eh
   gradient norm :     0.0097305 Eh/α   predicted    -0.4291503E-03 ( -29.66%)
   displ. norm   :     0.2766340 α      lambda       -0.6520340E-03
   maximum displ.:     0.1735899 α      in ANC's #7, #11, #16, ...

........................................................................
.............................. CYCLE    5 ..............................
........................................................................

 iter      E             dE          RMSdq      gap      omega  full diag
   1    -91.8889469 -0.918889E+02  0.635E-02    3.20       0.0  T
   2    -91.8889549 -0.800638E-05  0.371E-02    3.20       1.0  T
   3    -91.8889457  0.921313E-05  0.187E-02    3.20       1.0  T
   4    -91.8889586 -0.128917E-04  0.290E-03    3.20       4.6  T
   5    -91.8889590 -0.394271E-06  0.935E-04    3.20      14.2  T
   6    -91.8889590 -0.557976E-08  0.449E-04    3.20      29.5  T
     SCC iter.                  ...        0 min,  0.023 sec
     gradient                   ...        0 min,  0.075 sec
 * total energy  :   -90.5813456 Eh     change       -0.4403979E-03 Eh
   gradient norm :     0.0057856 Eh/α   predicted    -0.3509679E-03 ( -20.31%)
   displ. norm   :     0.2172050 α      lambda       -0.2727450E-03
   maximum displ.:     0.1524179 α      in ANC's #7, #11, #3, ...

........................................................................
.............................. CYCLE    6 ..............................
........................................................................

 iter      E             dE          RMSdq      gap      omega  full diag
   1    -91.8882368 -0.918882E+02  0.495E-02    3.21       0.0  T
   2    -91.8882388 -0.202144E-05  0.287E-02    3.21       1.0  T
   3    -91.8882365  0.239485E-05  0.796E-03    3.21       1.7  T
   4    -91.8882394 -0.292452E-05  0.172E-03    3.21       7.7  T
   5    -91.8882395 -0.118232E-06  0.663E-04    3.21      20.0  T
   6    -91.8882395 -0.177781E-08  0.257E-04    3.21      51.5  T
     SCC iter.                  ...        0 min,  0.023 sec
     gradient                   ...        0 min,  0.074 sec
 * total energy  :   -90.5815496 Eh     change       -0.2039821E-03 Eh
   gradient norm :     0.0060862 Eh/α   predicted    -0.1428349E-03 ( -29.98%)
   displ. norm   :     0.2013574 α      lambda       -0.2019356E-03
   maximum displ.:     0.1433713 α      in ANC's #7, #11, #3, ...

........................................................................
.............................. CYCLE    7 ..............................
........................................................................

 iter      E             dE          RMSdq      gap      omega  full diag
   1    -91.8877586 -0.918878E+02  0.487E-02    3.21       0.0  T
   2    -91.8877595 -0.911629E-06  0.284E-02    3.21       1.0  T
   3    -91.8877592  0.315461E-06  0.350E-03    3.21       3.8  T
   4    -91.8877598 -0.570468E-06  0.114E-03    3.21      11.6  T
   5    -91.8877598 -0.202822E-07  0.572E-04    3.21      23.2  T
   6    -91.8877598 -0.415881E-08  0.200E-04    3.21      66.3  T
     SCC iter.                  ...        0 min,  0.023 sec
     gradient                   ...        0 min,  0.086 sec
 * total energy  :   -90.5817075 Eh     change       -0.1579289E-03 Eh
   gradient norm :     0.0053352 Eh/α   predicted    -0.1050621E-03 ( -33.48%)
   displ. norm   :     0.2114885 α      lambda       -0.1700918E-03
   maximum displ.:     0.1484698 α      in ANC's #7, #3, #11, ...

........................................................................
.............................. CYCLE    8 ..............................
........................................................................

 iter      E             dE          RMSdq      gap      omega  full diag
   1    -91.8877167 -0.918877E+02  0.535E-02    3.21       0.0  T
   2    -91.8877178 -0.106482E-05  0.313E-02    3.21       1.0  T
   3    -91.8877172  0.599050E-06  0.415E-03    3.20       3.2  T
   4    -91.8877181 -0.921439E-06  0.111E-03    3.20      11.9  T
   5    -91.8877181 -0.147412E-07  0.570E-04    3.20      23.2  T
   6    -91.8877181 -0.268948E-08  0.229E-04    3.20      57.9  T
     SCC iter.                  ...        0 min,  0.056 sec
     gradient                   ...        0 min,  0.085 sec
 * total energy  :   -90.5818390 Eh     change       -0.1314512E-03 Eh
   gradient norm :     0.0043805 Eh/α   predicted    -0.8885009E-04 ( -32.41%)
   displ. norm   :     0.2124476 α      lambda       -0.1296882E-03
   maximum displ.:     0.1444956 α      in ANC's #7, #3, #5, ...

........................................................................
.............................. CYCLE    9 ..............................
........................................................................

 iter      E             dE          RMSdq      gap      omega  full diag
   1    -91.8880792 -0.918881E+02  0.555E-02    3.20       0.0  T
   2    -91.8880803 -0.117130E-05  0.326E-02    3.20       1.0  T
   3    -91.8880799  0.415476E-06  0.357E-03    3.20       3.7  T
   4    -91.8880806 -0.670142E-06  0.114E-03    3.20      11.6  T
   5    -91.8880806 -0.313808E-07  0.561E-04    3.20      23.6  T
   6    -91.8880806 -0.124464E-08  0.253E-04    3.20      52.3  T
     SCC iter.                  ...        0 min,  0.023 sec
     gradient                   ...        0 min,  0.089 sec
 * total energy  :   -90.5819395 Eh     change       -0.1005300E-03 Eh
   gradient norm :     0.0038268 Eh/α   predicted    -0.6777176E-04 ( -32.59%)
   displ. norm   :     0.2186392 α      lambda       -0.1046365E-03
   maximum displ.:     0.1417431 α      in ANC's #7, #3, #5, ...

........................................................................
.............................. CYCLE   10 ..............................
........................................................................

 iter      E             dE          RMSdq      gap      omega  full diag
   1    -91.8887027 -0.918887E+02  0.581E-02    3.20       0.0  T
   2    -91.8887036 -0.939172E-06  0.341E-02    3.20       1.0  T
   3    -91.8887036  0.191811E-07  0.227E-03    3.20       5.8  T
   4    -91.8887038 -0.214484E-06  0.951E-04    3.20      13.9  T
   5    -91.8887038 -0.193512E-07  0.505E-04    3.20      26.2  T
     SCC iter.                  ...        0 min,  0.058 sec
     gradient                   ...        0 min,  0.046 sec
 * total energy  :   -90.5820198 Eh     change       -0.8029975E-04 Eh
   gradient norm :     0.0033462 Eh/α   predicted    -0.5482016E-04 ( -31.73%)
   displ. norm   :     0.2299405 α      lambda       -0.8533291E-04
   maximum displ.:     0.1403394 α      in ANC's #7, #3, #5, ...

........................................................................
.............................. CYCLE   11 ..............................
........................................................................

 iter      E             dE          RMSdq      gap      omega  full diag
   1    -91.8892903 -0.918893E+02  0.611E-02    3.20       0.0  T
   2    -91.8892910 -0.683507E-06  0.358E-02    3.20       1.0  T
   3    -91.8892909  0.102133E-06  0.251E-03    3.20       5.3  T
   4    -91.8892912 -0.299499E-06  0.972E-04    3.20      13.6  T
   5    -91.8892912 -0.192822E-07  0.522E-04    3.20      25.4  T
     SCC iter.                  ...        0 min,  0.019 sec
     gradient                   ...        0 min,  0.073 sec
 * total energy  :   -90.5820838 Eh     change       -0.6402748E-04 Eh
   gradient norm :     0.0030056 Eh/α   predicted    -0.4492659E-04 ( -29.83%)
   displ. norm   :     0.2065190 α      lambda       -0.6508880E-04
   maximum displ.:     0.1148115 α      in ANC's #3, #7, #5, ...

........................................................................
.............................. CYCLE   12 ..............................
........................................................................

 iter      E             dE          RMSdq      gap      omega  full diag
   1    -91.8898432 -0.918898E+02  0.537E-02    3.19       0.0  T
   2    -91.8898437 -0.466113E-06  0.314E-02    3.19       1.0  T
   3    -91.8898433  0.459273E-06  0.333E-03    3.19       4.0  T
   4    -91.8898439 -0.656089E-06  0.791E-04    3.19      16.8  T
   5    -91.8898439 -0.628702E-08  0.453E-04    3.19      29.3  T
     SCC iter.                  ...        0 min,  0.019 sec
     gradient                   ...        0 min,  0.091 sec
 * total energy  :   -90.5821351 Eh     change       -0.5124032E-04 Eh
   gradient norm :     0.0028219 Eh/α   predicted    -0.3393620E-04 ( -33.77%)
   displ. norm   :     0.2088252 α      lambda       -0.6738371E-04
   maximum displ.:     0.1231840 α      in ANC's #3, #5, #7, ...

........................................................................
.............................. CYCLE   13 ..............................
........................................................................

 iter      E             dE          RMSdq      gap      omega  full diag
   1    -91.8902367 -0.918902E+02  0.519E-02    3.19       0.0  T
   2    -91.8902373 -0.526436E-06  0.303E-02    3.19       1.0  T
   3    -91.8902368  0.514060E-06  0.345E-03    3.19       3.8  T
   4    -91.8902375 -0.712211E-06  0.793E-04    3.19      16.7  T
   5    -91.8902375 -0.860129E-08  0.438E-04    3.19      30.2  T
     SCC iter.                  ...        0 min,  0.064 sec
     gradient                   ...        0 min,  0.047 sec
 * total energy  :   -90.5821907 Eh     change       -0.5562580E-04 Eh
   gradient norm :     0.0028550 Eh/α   predicted    -0.3517004E-04 ( -36.77%)
   displ. norm   :     0.2582334 α      lambda       -0.8393868E-04
   maximum displ.:     0.1561749 α      in ANC's #3, #5, #7, ...

........................................................................
.............................. CYCLE   14 ..............................
........................................................................

 iter      E             dE          RMSdq      gap      omega  full diag
   1    -91.8900508 -0.918901E+02  0.608E-02    3.19       0.0  T
   2    -91.8900516 -0.767711E-06  0.355E-02    3.19       1.0  T
   3    -91.8900512  0.344589E-06  0.327E-03    3.19       4.1  T
   4    -91.8900518 -0.583829E-06  0.981E-04    3.19      13.5  T
   5    -91.8900518 -0.170004E-07  0.506E-04    3.19      26.2  T
     SCC iter.                  ...        0 min,  0.019 sec
     gradient                   ...        0 min,  0.092 sec
 * total energy  :   -90.5822596 Eh     change       -0.6886116E-04 Eh
   gradient norm :     0.0030320 Eh/α   predicted    -0.4476861E-04 ( -34.99%)
   displ. norm   :     0.2865047 α      lambda       -0.8692068E-04
   maximum displ.:     0.1748311 α      in ANC's #3, #5, #1, ...

........................................................................
.............................. CYCLE   15 ..............................
........................................................................

 iter      E             dE          RMSdq      gap      omega  full diag
   1    -91.8894054 -0.918894E+02  0.646E-02    3.19       0.0  T
   2    -91.8894061 -0.711805E-06  0.377E-02    3.19       1.0  T
   3    -91.8894060  0.107954E-06  0.281E-03    3.19       4.7  T
   4    -91.8894063 -0.351287E-06  0.107E-03    3.19      12.4  T
   5    -91.8894063 -0.166601E-07  0.538E-04    3.19      24.6  T
   6    -91.8894064 -0.386005E-08  0.168E-04    3.19      78.6  T
     SCC iter.                  ...        0 min,  0.023 sec
     gradient                   ...        0 min,  0.092 sec
 * total energy  :   -90.5823289 Eh     change       -0.6930888E-04 Eh
   gradient norm :     0.0031074 Eh/α   predicted    -0.4702862E-04 ( -32.15%)
   displ. norm   :     0.2655362 α      lambda       -0.7492157E-04
   maximum displ.:     0.1636821 α      in ANC's #3, #5, #1, ...

........................................................................
.............................. CYCLE   16 ..............................
........................................................................

 iter      E             dE          RMSdq      gap      omega  full diag
   1    -91.8889820 -0.918890E+02  0.581E-02    3.19       0.0  T
   2    -91.8889825 -0.527516E-06  0.339E-02    3.19       1.0  T
   3    -91.8889823  0.222763E-06  0.296E-03    3.19       4.5  T
   4    -91.8889827 -0.436354E-06  0.979E-04    3.19      13.5  T
   5    -91.8889827 -0.115275E-07  0.460E-04    3.19      28.8  T
     SCC iter.                  ...        0 min,  0.052 sec
     gradient                   ...        0 min,  0.046 sec
 * total energy  :   -90.5823880 Eh     change       -0.5913167E-04 Eh
   gradient norm :     0.0030129 Eh/α   predicted    -0.4010313E-04 ( -32.18%)
   displ. norm   :     0.2447660 α      lambda       -0.6942193E-04
   maximum displ.:     0.1536388 α      in ANC's #3, #5, #1, ...

........................................................................
.............................. CYCLE   17 ..............................
........................................................................

 iter      E             dE          RMSdq      gap      omega  full diag
   1    -91.8888782 -0.918889E+02  0.540E-02    3.19       0.0  T
   2    -91.8888788 -0.565803E-06  0.316E-02    3.19       1.0  T
   3    -91.8888778  0.975331E-06  0.456E-03    3.19       2.9  T
   4    -91.8888790 -0.123361E-05  0.880E-04    3.19      15.1  T
   5    -91.8888790 -0.797871E-08  0.448E-04    3.19      29.6  T
   6    -91.8888790 -0.779352E-09  0.137E-04    3.19      96.8  T
     SCC iter.                  ...        0 min,  0.023 sec
     gradient                   ...        0 min,  0.098 sec
 * total energy  :   -90.5824432 Eh     change       -0.5517968E-04 Eh
   gradient norm :     0.0027590 Eh/α   predicted    -0.3679231E-04 ( -33.32%)
   displ. norm   :     0.2688514 α      lambda       -0.7481075E-04
   maximum displ.:     0.1706695 α      in ANC's #3, #5, #4, ...

........................................................................
.............................. CYCLE   18 ..............................
........................................................................

 iter      E             dE          RMSdq      gap      omega  full diag
   1    -91.8890469 -0.918890E+02  0.599E-02    3.18       0.0  T
   2    -91.8890477 -0.731957E-06  0.351E-02    3.19       1.0  T
   3    -91.8890469  0.721992E-06  0.400E-03    3.19       3.3  T
   4    -91.8890479 -0.968927E-06  0.103E-03    3.19      12.8  T
   5    -91.8890479 -0.240078E-07  0.504E-04    3.19      26.3  T
   6    -91.8890479 -0.141829E-08  0.172E-04    3.19      77.0  T
     SCC iter.                  ...        0 min,  0.064 sec
     gradient                   ...        0 min,  0.046 sec
 * total energy  :   -90.5825009 Eh     change       -0.5773214E-04 Eh
   gradient norm :     0.0028702 Eh/α   predicted    -0.4010955E-04 ( -30.52%)
   displ. norm   :     0.3104190 α      lambda       -0.7807932E-04
   maximum displ.:     0.1975099 α      in ANC's #3, #5, #4, ...

........................................................................
.............................. CYCLE   19 ..............................
........................................................................

 iter      E             dE          RMSdq      gap      omega  full diag
   1    -91.8892291 -0.918892E+02  0.704E-02    3.18       0.0  T
   2    -91.8892300 -0.901751E-06  0.413E-02    3.18       1.0  T
   3    -91.8892293  0.691561E-06  0.408E-03    3.18       3.2  T
   4    -91.8892303 -0.971137E-06  0.117E-03    3.18      11.3  T
   5    -91.8892303 -0.326462E-07  0.552E-04    3.18      24.0  T
   6    -91.8892303 -0.720846E-09  0.169E-04    3.18      78.3  T
     SCC iter.                  ...        0 min,  0.023 sec
     gradient                   ...        0 min,  0.097 sec
 * total energy  :   -90.5825605 Eh     change       -0.5955024E-04 Eh
   gradient norm :     0.0034116 Eh/α   predicted    -0.4280212E-04 ( -28.12%)
   displ. norm   :     0.3469019 α      lambda       -0.8201798E-04
   maximum displ.:     0.2208872 α      in ANC's #3, #5, #4, ...

........................................................................
.............................. CYCLE   20 ..............................
........................................................................

 iter      E             dE          RMSdq      gap      omega  full diag
   1    -91.8893404 -0.918893E+02  0.777E-02    3.18       0.0  T
   2    -91.8893413 -0.892273E-06  0.455E-02    3.18       1.0  T
   3    -91.8893411  0.205090E-06  0.299E-03    3.18       4.4  T
   4    -91.8893416 -0.493183E-06  0.112E-03    3.18      11.8  T
   5    -91.8893416 -0.247415E-07  0.550E-04    3.18      24.1  T
   6    -91.8893416 -0.213039E-08  0.196E-04    3.18      67.6  T
     SCC iter.                  ...        0 min,  0.062 sec
     gradient                   ...        0 min,  0.047 sec
 * total energy  :   -90.5826247 Eh     change       -0.6422901E-04 Eh
   gradient norm :     0.0034540 Eh/α   predicted    -0.4594592E-04 ( -28.47%)
   displ. norm   :     0.3792225 α      lambda       -0.9248703E-04
   maximum displ.:     0.2395211 α      in ANC's #3, #4, #5, ...
 * RMSD in coord.:     0.5149508 α      energy gain  -0.1762698E-01 Eh

generating ANC from exact Hessian ...
Using Lindh-Hessian (1995)
 Shifting diagonal of input Hessian by    9.7927060514268714E-003
 Lowest  eigenvalues of input Hessian
    0.000000    0.000000    0.000000    0.000000    0.000000    0.000000
    0.010000    0.010035    0.010172    0.010440    0.011005    0.011149
    0.011620    0.011837    0.012140    0.014130    0.014425    0.015170
 Highest eigenvalues
    2.118240    2.145273    2.210263    2.239219    2.317468    2.449686


........................................................................
.............................. CYCLE   21 ..............................
........................................................................

 iter      E             dE          RMSdq      gap      omega  full diag
   1    -91.8903203 -0.918903E+02  0.840E-02    3.18       0.0  T
   2    -91.8903214 -0.108846E-05  0.491E-02    3.18       1.0  T
   3    -91.8903201  0.135627E-05  0.555E-03    3.18       2.4  T
   4    -91.8903219 -0.182653E-05  0.125E-03    3.18      10.6  T
   5    -91.8903219 -0.166546E-07  0.678E-04    3.18      19.5  T
   6    -91.8903219 -0.496259E-08  0.228E-04    3.18      58.2  T
     SCC iter.                  ...        0 min,  0.064 sec
     gradient                   ...        0 min,  0.046 sec
 * total energy  :   -90.5826954 Eh     change       -0.7069474E-04 Eh
   gradient norm :     0.0032620 Eh/α   predicted     0.0000000E+00 (-100.00%)
   displ. norm   :     0.0357678 α      lambda       -0.2545747E-04
   maximum displ.:     0.0137484 α      in ANC's #4, #6, #3, ...

........................................................................
.............................. CYCLE   22 ..............................
........................................................................

 iter      E             dE          RMSdq      gap      omega  full diag
   1    -91.8904441 -0.918904E+02  0.937E-03    3.18       0.0  T
   2    -91.8904442 -0.158776E-06  0.555E-03    3.18       2.4  T
   3    -91.8904442  0.638896E-07  0.149E-03    3.18       8.9  T
   4    -91.8904443 -0.931550E-07  0.322E-04    3.18      41.1  T
   5    -91.8904443 -0.350049E-08  0.148E-04    3.18      89.3  T
     SCC iter.                  ...        0 min,  0.052 sec
     gradient                   ...        0 min,  0.099 sec
 * total energy  :   -90.5827232 Eh     change       -0.2780763E-04 Eh
   gradient norm :     0.0017927 Eh/α   predicted    -0.1640162E-04 ( -41.02%)
   displ. norm   :     0.1865207 α      lambda       -0.7393022E-04
   maximum displ.:     0.0776803 α      in ANC's #4, #6, #3, ...

........................................................................
.............................. CYCLE   23 ..............................
........................................................................

 iter      E             dE          RMSdq      gap      omega  full diag
   1    -91.8904203 -0.918904E+02  0.442E-02    3.18       0.0  T
   2    -91.8904221 -0.183556E-05  0.258E-02    3.18       1.0  T
   3    -91.8904212  0.891133E-06  0.525E-03    3.18       2.5  T
   4    -91.8904225 -0.125975E-05  0.122E-03    3.18      10.8  T
   5    -91.8904225 -0.376654E-07  0.572E-04    3.18      23.1  T
   6    -91.8904225 -0.179097E-08  0.261E-04    3.18      50.7  T
     SCC iter.                  ...        0 min,  0.023 sec
     gradient                   ...        0 min,  0.074 sec
 * total energy  :   -90.5827679 Eh     change       -0.4470765E-04 Eh
   gradient norm :     0.0036560 Eh/α   predicted    -0.3753701E-04 ( -16.04%)
   displ. norm   :     0.0202916 α      lambda       -0.1580388E-04
   maximum displ.:     0.0100821 α      in ANC's #4, #3, #6, ...

........................................................................
.............................. CYCLE   24 ..............................
........................................................................

 iter      E             dE          RMSdq      gap      omega  full diag
   1    -91.8905260 -0.918905E+02  0.566E-03    3.18       0.0  T
   2    -91.8905261 -0.104578E-06  0.340E-03    3.18       3.9  T
   3    -91.8905260  0.267358E-07  0.115E-03    3.18      11.5  T
   4    -91.8905261 -0.427027E-07  0.255E-04    3.18      51.9  T
   5    -91.8905261 -0.348062E-08  0.930E-05    3.18     142.4  T
     SCC iter.                  ...        0 min,  0.064 sec
     gradient                   ...        0 min,  0.047 sec
 * total energy  :   -90.5827815 Eh     change       -0.1354139E-04 Eh
   gradient norm :     0.0022698 Eh/α   predicted    -0.7905531E-05 ( -41.62%)
   displ. norm   :     0.0895461 α      lambda       -0.3807988E-04
   maximum displ.:     0.0455809 α      in ANC's #4, #3, #6, ...

........................................................................
.............................. CYCLE   25 ..............................
........................................................................

 iter      E             dE          RMSdq      gap      omega  full diag
   1    -91.8906113 -0.918906E+02  0.210E-02    3.17       0.0  T
   2    -91.8906119 -0.552143E-06  0.124E-02    3.17       1.1  T
   3    -91.8906115  0.391802E-06  0.307E-03    3.17       4.3  T
   4    -91.8906120 -0.494937E-06  0.676E-04    3.17      19.6  T
   5    -91.8906120 -0.250525E-07  0.267E-04    3.17      49.7  T
     SCC iter.                  ...        0 min,  0.052 sec
     gradient                   ...        0 min,  0.046 sec
 * total energy  :   -90.5828066 Eh     change       -0.2516859E-04 Eh
   gradient norm :     0.0014709 Eh/α   predicted    -0.1922189E-04 ( -23.63%)
   displ. norm   :     0.1357097 α      lambda       -0.1700075E-04
   maximum displ.:     0.0705541 α      in ANC's #4, #3, #6, ...

........................................................................
.............................. CYCLE   26 ..............................
........................................................................

 iter      E             dE          RMSdq      gap      omega  full diag
   1    -91.8904578 -0.918905E+02  0.298E-02    3.17       0.0  T
   2    -91.8904581 -0.323076E-06  0.175E-02    3.17       1.0  T
   3    -91.8904578  0.333656E-06  0.245E-03    3.17       5.4  T
   4    -91.8904582 -0.417854E-06  0.621E-04    3.17      21.3  T
   5    -91.8904582 -0.143400E-07  0.302E-04    3.17      43.8  T
     SCC iter.                  ...        0 min,  0.019 sec
     gradient                   ...        0 min,  0.097 sec
 * total energy  :   -90.5828262 Eh     change       -0.1956250E-04 Eh
   gradient norm :     0.0027895 Eh/α   predicted    -0.8644771E-05 ( -55.81%)
   displ. norm   :     0.1122642 α      lambda       -0.2143793E-04
   maximum displ.:     0.0592177 α      in ANC's #4, #3, #1, ...

........................................................................
.............................. CYCLE   27 ..............................
........................................................................

 iter      E             dE          RMSdq      gap      omega  full diag
   1    -91.8903934 -0.918904E+02  0.236E-02    3.17       0.0  T
   2    -91.8903936 -0.257234E-06  0.139E-02    3.17       1.0  T
   3    -91.8903935  0.145289E-06  0.178E-03    3.17       7.4  T
   4    -91.8903937 -0.191254E-06  0.510E-04    3.17      26.0  T
   5    -91.8903937 -0.102401E-07  0.237E-04    3.17      55.9  T
     SCC iter.                  ...        0 min,  0.019 sec
     gradient                   ...        0 min,  0.073 sec
 * total energy  :   -90.5828452 Eh     change       -0.1903161E-04 Eh
   gradient norm :     0.0022023 Eh/α   predicted    -0.1086343E-04 ( -42.92%)
   displ. norm   :     0.2030077 α      lambda       -0.3573592E-04
   maximum displ.:     0.1090683 α      in ANC's #4, #3, #1, ...

........................................................................
.............................. CYCLE   28 ..............................
........................................................................

 iter      E             dE          RMSdq      gap      omega  full diag
   1    -91.8902967 -0.918903E+02  0.414E-02    3.17       0.0  T
   2    -91.8902977 -0.934688E-06  0.243E-02    3.17       1.0  T
   3    -91.8902972  0.471119E-06  0.334E-03    3.18       4.0  T
   4    -91.8902978 -0.624628E-06  0.879E-04    3.18      15.1  T
   5    -91.8902978 -0.306541E-07  0.405E-04    3.18      32.7  T
     SCC iter.                  ...        0 min,  0.070 sec
     gradient                   ...        0 min,  0.046 sec
 * total energy  :   -90.5828736 Eh     change       -0.2841874E-04 Eh
   gradient norm :     0.0010633 Eh/α   predicted    -0.1860873E-04 ( -34.52%)
   displ. norm   :     0.3067756 α      lambda       -0.2711828E-04
   maximum displ.:     0.1685443 α      in ANC's #4, #3, #1, ...

........................................................................
.............................. CYCLE   29 ..............................
........................................................................

 iter      E             dE          RMSdq      gap      omega  full diag
   1    -91.8901574 -0.918902E+02  0.600E-02    3.17       0.0  T
   2    -91.8901593 -0.190778E-05  0.351E-02    3.18       1.0  T
   3    -91.8901583  0.101041E-05  0.489E-03    3.18       2.7  T
   4    -91.8901596 -0.132907E-05  0.123E-03    3.18      10.8  T
   5    -91.8901597 -0.587258E-07  0.551E-04    3.18      24.1  T
   6    -91.8901597 -0.108237E-08  0.250E-04    3.18      52.9  T
     SCC iter.                  ...        0 min,  0.023 sec
     gradient                   ...        0 min,  0.092 sec
 * total energy  :   -90.5829031 Eh     change       -0.2944903E-04 Eh
   gradient norm :     0.0015607 Eh/α   predicted    -0.1412847E-04 ( -52.02%)
   displ. norm   :     0.1942282 α      lambda       -0.1814468E-04
   maximum displ.:     0.1088848 α      in ANC's #4, #3, #1, ...

........................................................................
.............................. CYCLE   30 ..............................
........................................................................

 iter      E             dE          RMSdq      gap      omega  full diag
   1    -91.8907105 -0.918907E+02  0.346E-02    3.17       0.0  T
   2    -91.8907111 -0.620750E-06  0.202E-02    3.18       1.0  T
   3    -91.8907107  0.398258E-06  0.295E-03    3.18       4.5  T
   4    -91.8907112 -0.504354E-06  0.721E-04    3.18      18.4  T
   5    -91.8907113 -0.214753E-07  0.305E-04    3.18      43.4  T
     SCC iter.                  ...        0 min,  0.069 sec
     gradient                   ...        0 min,  0.047 sec
 * total energy  :   -90.5829273 Eh     change       -0.2426565E-04 Eh
   gradient norm :     0.0014120 Eh/α   predicted    -0.9224540E-05 ( -61.99%)
   displ. norm   :     0.2961705 α      lambda       -0.3362618E-04
   maximum displ.:     0.1636531 α      in ANC's #4, #3, #1, ...

........................................................................
.............................. CYCLE   31 ..............................
........................................................................

 iter      E             dE          RMSdq      gap      omega  full diag
   1    -91.8911123 -0.918911E+02  0.497E-02    3.17       0.0  T
   2    -91.8911135 -0.126378E-05  0.290E-02    3.17       1.0  T
   3    -91.8911127  0.805288E-06  0.429E-03    3.17       3.1  T
   4    -91.8911137 -0.103273E-05  0.982E-04    3.17      13.5  T
   5    -91.8911138 -0.347766E-07  0.415E-04    3.17      31.9  T
   6    -91.8911138  0.225839E-09  0.183E-04    3.17      72.2  T
     SCC iter.                  ...        0 min,  0.023 sec
     gradient                   ...        0 min,  0.098 sec
 * total energy  :   -90.5829710 Eh     change       -0.4370325E-04 Eh
   gradient norm :     0.0011663 Eh/α   predicted    -0.1746980E-04 ( -60.03%)
   displ. norm   :     0.4715567 α      lambda       -0.4746827E-04
   maximum displ.:     0.2580458 α      in ANC's #4, #3, #1, ...

........................................................................
.............................. CYCLE   32 ..............................
........................................................................

 iter      E             dE          RMSdq      gap      omega  full diag
   1    -91.8905852 -0.918906E+02  0.788E-02    3.16       0.0  T
   2    -91.8905880 -0.284735E-05  0.460E-02    3.16       1.0  T
   3    -91.8905862  0.183752E-05  0.641E-03    3.16       2.1  T
   4    -91.8905886 -0.236711E-05  0.152E-03    3.16       8.7  T
   5    -91.8905886 -0.809654E-07  0.664E-04    3.16      19.9  T
   6    -91.8905886  0.565947E-09  0.327E-04    3.16      40.5  T
     SCC iter.                  ...        0 min,  0.023 sec
     gradient                   ...        0 min,  0.080 sec
 * total energy  :   -90.5830263 Eh     change       -0.5528645E-04 Eh
   gradient norm :     0.0017858 Eh/α   predicted    -0.2608087E-04 ( -52.83%)
   displ. norm   :     0.4786009 α      lambda       -0.3755453E-04
   maximum displ.:     0.2598902 α      in ANC's #4, #3, #1, ...

........................................................................
.............................. CYCLE   33 ..............................
........................................................................

 iter      E             dE          RMSdq      gap      omega  full diag
   1    -91.8901954 -0.918902E+02  0.804E-02    3.14       0.0  T
   2    -91.8901979 -0.248813E-05  0.470E-02    3.15       1.0  T
   3    -91.8901963  0.166616E-05  0.601E-03    3.15       2.2  T
   4    -91.8901984 -0.216777E-05  0.146E-03    3.15       9.1  T
   5    -91.8901985 -0.720813E-07  0.665E-04    3.15      19.9  T
   6    -91.8901985  0.845148E-09  0.318E-04    3.15      41.7  T
     SCC iter.                  ...        0 min,  0.066 sec
     gradient                   ...        0 min,  0.079 sec
 * total energy  :   -90.5830661 Eh     change       -0.3975894E-04 Eh
   gradient norm :     0.0021635 Eh/α   predicted    -0.2069234E-04 ( -47.96%)
   displ. norm   :     0.2453098 α      lambda       -0.2763710E-04
   maximum displ.:     0.1318879 α      in ANC's #3, #4, #1, ...

........................................................................
.............................. CYCLE   34 ..............................
........................................................................

 iter      E             dE          RMSdq      gap      omega  full diag
   1    -91.8905018 -0.918905E+02  0.423E-02    3.14       0.0  T
   2    -91.8905023 -0.562870E-06  0.247E-02    3.14       1.0  T
   3    -91.8905019  0.390813E-06  0.291E-03    3.14       4.6  T
   4    -91.8905024 -0.517999E-06  0.736E-04    3.14      18.0  T
   5    -91.8905025 -0.166815E-07  0.352E-04    3.14      37.6  T
     SCC iter.                  ...        0 min,  0.019 sec
     gradient                   ...        0 min,  0.086 sec
 * total energy  :   -90.5830886 Eh     change       -0.2253876E-04 Eh
   gradient norm :     0.0017458 Eh/α   predicted    -0.1465134E-04 ( -34.99%)
   displ. norm   :     0.5003967 α      lambda       -0.3858649E-04
   maximum displ.:     0.2663623 α      in ANC's #3, #1, #4, ...

........................................................................
.............................. CYCLE   35 ..............................
........................................................................

 iter      E             dE          RMSdq      gap      omega  full diag
   1    -91.8908019 -0.918908E+02  0.897E-02    3.13       0.0  T
   2    -91.8908039 -0.199477E-05  0.525E-02    3.13       1.0  T
   3    -91.8908028  0.116551E-05  0.525E-03    3.13       2.5  T
   4    -91.8908044 -0.166121E-05  0.146E-03    3.13       9.1  T
   5    -91.8908045 -0.541814E-07  0.716E-04    3.13      18.5  T
   6    -91.8908045  0.105345E-09  0.303E-04    3.13      43.7  T
     SCC iter.                  ...        0 min,  0.023 sec
     gradient                   ...        0 min,  0.086 sec
 * total energy  :   -90.5831290 Eh     change       -0.4041553E-04 Eh
   gradient norm :     0.0013517 Eh/α   predicted    -0.2144124E-04 ( -46.95%)
   displ. norm   :     0.2961719 α      lambda       -0.2336948E-04
   maximum displ.:     0.1629884 α      in ANC's #1, #3, #4, ...

........................................................................
.............................. CYCLE   36 ..............................
........................................................................

 iter      E             dE          RMSdq      gap      omega  full diag
   1    -91.8909894 -0.918910E+02  0.572E-02    3.13       0.0  T
   2    -91.8909900 -0.625884E-06  0.335E-02    3.13       1.0  T
   3    -91.8909897  0.323474E-06  0.291E-03    3.13       4.5  T
   4    -91.8909902 -0.503910E-06  0.918E-04    3.13      14.4  T
   5    -91.8909902 -0.205188E-07  0.479E-04    3.13      27.6  T
     SCC iter.                  ...        0 min,  0.059 sec
     gradient                   ...        0 min,  0.086 sec
 * total energy  :   -90.5831564 Eh     change       -0.2736497E-04 Eh
   gradient norm :     0.0012870 Eh/α   predicted    -0.1214167E-04 ( -55.63%)
   displ. norm   :     0.3056887 α      lambda       -0.2510329E-04
   maximum displ.:     0.1701301 α      in ANC's #1, #3, #4, ...

........................................................................
.............................. CYCLE   37 ..............................
........................................................................

 iter      E             dE          RMSdq      gap      omega  full diag
   1    -91.8911065 -0.918911E+02  0.652E-02    3.13       0.0  T
   2    -91.8911070 -0.494745E-06  0.382E-02    3.13       1.0  T
   3    -91.8911070  0.359704E-07  0.218E-03    3.13       6.1  T
   4    -91.8911072 -0.228625E-06  0.905E-04    3.13      14.6  T
   5    -91.8911072 -0.896112E-08  0.476E-04    3.13      27.8  T
     SCC iter.                  ...        0 min,  0.020 sec
     gradient                   ...        0 min,  0.092 sec
 * total energy  :   -90.5831846 Eh     change       -0.2816957E-04 Eh
   gradient norm :     0.0014308 Eh/α   predicted    -0.1307607E-04 ( -53.58%)
   displ. norm   :     0.2700845 α      lambda       -0.2016097E-04
   maximum displ.:     0.1531156 α      in ANC's #1, #3, #4, ...

........................................................................
.............................. CYCLE   38 ..............................
........................................................................

 iter      E             dE          RMSdq      gap      omega  full diag
   1    -91.8909758 -0.918910E+02  0.592E-02    3.13       0.0  T
   2    -91.8909762 -0.404276E-06  0.347E-02    3.13       1.0  T
   3    -91.8909762  0.400239E-08  0.190E-03    3.13       7.0  T
   4    -91.8909764 -0.165495E-06  0.804E-04    3.13      16.5  T
   5    -91.8909764 -0.558022E-08  0.416E-04    3.13      31.8  T
     SCC iter.                  ...        0 min,  0.019 sec
     gradient                   ...        0 min,  0.080 sec
 * total energy  :   -90.5832072 Eh     change       -0.2259324E-04 Eh
   gradient norm :     0.0014668 Eh/α   predicted    -0.1041206E-04 ( -53.92%)
   displ. norm   :     0.2331271 α      lambda       -0.1985871E-04
   maximum displ.:     0.1331642 α      in ANC's #1, #5, #3, ...

........................................................................
.............................. CYCLE   39 ..............................
........................................................................

 iter      E             dE          RMSdq      gap      omega  full diag
   1    -91.8914838 -0.918915E+02  0.562E-02    3.13       0.0  T
   2    -91.8914842 -0.381171E-06  0.329E-02    3.13       1.0  T
   3    -91.8914841  0.428409E-07  0.204E-03    3.12       6.5  T
   4    -91.8914843 -0.178861E-06  0.825E-04    3.12      16.1  T
   5    -91.8914843 -0.125934E-07  0.400E-04    3.12      33.1  T
     SCC iter.                  ...        0 min,  0.019 sec
     gradient                   ...        0 min,  0.086 sec
 * total energy  :   -90.5832291 Eh     change       -0.2190941E-04 Eh
   gradient norm :     0.0011772 Eh/α   predicted    -0.1017386E-04 ( -53.56%)
   displ. norm   :     0.3059558 α      lambda       -0.2104232E-04
   maximum displ.:     0.1760197 α      in ANC's #1, #5, #3, ...

........................................................................
.............................. CYCLE   40 ..............................
........................................................................

 iter      E             dE          RMSdq      gap      omega  full diag
   1    -91.8900014 -0.918900E+02  0.722E-02    3.12       0.0  T
   2    -91.8900021 -0.697453E-06  0.423E-02    3.12       1.0  T
   3    -91.8900019  0.128197E-06  0.290E-03    3.12       4.6  T
   4    -91.8900023 -0.376259E-06  0.948E-04    3.12      14.0  T
   5    -91.8900023 -0.929229E-08  0.533E-04    3.12      24.9  T
     SCC iter.                  ...        0 min,  0.020 sec
     gradient                   ...        0 min,  0.086 sec
 * total energy  :   -90.5832494 Eh     change       -0.2026949E-04 Eh
   gradient norm :     0.0017440 Eh/α   predicted    -0.1096030E-04 ( -45.93%)
   displ. norm   :     0.2735399 α      lambda       -0.2543646E-04
   maximum displ.:     0.1549391 α      in ANC's #1, #5, #8, ...

........................................................................
.............................. CYCLE   41 ..............................
........................................................................

 iter      E             dE          RMSdq      gap      omega  full diag
   1    -91.8922465 -0.918922E+02  0.690E-02    3.13       0.0  T
   2    -91.8922472 -0.690812E-06  0.404E-02    3.12       1.0  T
   3    -91.8922469  0.345777E-06  0.351E-03    3.12       3.8  T
   4    -91.8922475 -0.604838E-06  0.100E-03    3.12      13.2  T
   5    -91.8922475 -0.162438E-07  0.506E-04    3.12      26.2  T
   6    -91.8922475 -0.127039E-08  0.185E-04    3.12      71.5  T
     SCC iter.                  ...        0 min,  0.068 sec
     gradient                   ...        0 min,  0.046 sec
 * total energy  :   -90.5832651 Eh     change       -0.1577557E-04 Eh
   gradient norm :     0.0020512 Eh/α   predicted    -0.1314299E-04 ( -16.69%)
   displ. norm   :     0.1157780 α      lambda       -0.1336338E-04
   maximum displ.:     0.0674294 α      in ANC's #1, #5, #3, ...

........................................................................
.............................. CYCLE   42 ..............................
........................................................................

 iter      E             dE          RMSdq      gap      omega  full diag
   1    -91.8914319 -0.918914E+02  0.270E-02    3.12       0.0  T
   2    -91.8914320 -0.141812E-06  0.159E-02    3.12       1.0  T
   3    -91.8914318  0.168497E-06  0.193E-03    3.12       6.9  T
   4    -91.8914320 -0.216157E-06  0.402E-04    3.12      32.9  T
   5    -91.8914320 -0.329675E-08  0.207E-04    3.12      64.0  T
     SCC iter.                  ...        0 min,  0.019 sec
     gradient                   ...        0 min,  0.097 sec
 * total energy  :   -90.5832747 Eh     change       -0.9589434E-05 Eh
   gradient norm :     0.0013365 Eh/α   predicted    -0.6772228E-05 ( -29.38%)
   displ. norm   :     0.1567363 α      lambda       -0.1506622E-04
   maximum displ.:     0.0876120 α      in ANC's #1, #5, #3, ...
 * RMSD in coord.:     0.6303762 α      energy gain  -0.6500221E-03 Eh

generating ANC from exact Hessian ...
Using Lindh-Hessian (1995)
 Shifting diagonal of input Hessian by    9.7947050264935043E-003
 Lowest  eigenvalues of input Hessian
    0.000000    0.000000    0.000000    0.000000    0.000000    0.000000
    0.010000    0.010040    0.010169    0.010431    0.010973    0.011174
    0.011626    0.011822    0.012270    0.013884    0.014449    0.015565
 Highest eigenvalues
    2.115148    2.146933    2.209332    2.237630    2.316141    2.449509


........................................................................
.............................. CYCLE   43 ..............................
........................................................................

 iter      E             dE          RMSdq      gap      omega  full diag
   1    -91.8907867 -0.918908E+02  0.373E-02    3.11       0.0  T
   2    -91.8907871 -0.403362E-06  0.219E-02    3.11       1.0  T
   3    -91.8907866  0.566245E-06  0.341E-03    3.11       3.9  T
   4    -91.8907873 -0.695384E-06  0.661E-04    3.11      20.0  T
   5    -91.8907873 -0.994589E-08  0.325E-04    3.11      40.7  T
     SCC iter.                  ...        0 min,  0.019 sec
     gradient                   ...        0 min,  0.086 sec
 * total energy  :   -90.5832862 Eh     change       -0.1152422E-04 Eh
   gradient norm :     0.0021559 Eh/α   predicted     0.0000000E+00 (-100.00%)
   displ. norm   :     0.0179469 α      lambda       -0.1145264E-04
   maximum displ.:     0.0078228 α      in ANC's #6, #5, #10, ...

........................................................................
.............................. CYCLE   44 ..............................
........................................................................

 iter      E             dE          RMSdq      gap      omega  full diag
   1    -91.8914554 -0.918915E+02  0.725E-03    3.11       0.0  T
   2    -91.8914555 -0.894823E-07  0.433E-03    3.11       3.1  T
   3    -91.8914554  0.883364E-07  0.149E-03    3.11       8.9  T
   4    -91.8914555 -0.108908E-06  0.306E-04    3.11      43.3  T
   5    -91.8914555 -0.403820E-08  0.101E-04    3.11     130.9  T
     SCC iter.                  ...        0 min,  0.064 sec
     gradient                   ...        0 min,  0.046 sec
 * total energy  :   -90.5832945 Eh     change       -0.8277910E-05 Eh
   gradient norm :     0.0006521 Eh/α   predicted    -0.6212452E-05 ( -24.95%)
   displ. norm   :     0.0433589 α      lambda       -0.6877926E-05
   maximum displ.:     0.0216816 α      in ANC's #6, #5, #10, ...

........................................................................
.............................. CYCLE   45 ..............................
........................................................................

 iter      E             dE          RMSdq      gap      omega  full diag
   1    -91.8921216 -0.918921E+02  0.121E-02    3.12       0.0  T
   2    -91.8921218 -0.144654E-06  0.711E-03    3.12       1.9  T
   3    -91.8921216  0.146441E-06  0.185E-03    3.12       7.2  T
   4    -91.8921218 -0.178740E-06  0.372E-04    3.12      35.6  T
   5    -91.8921218 -0.541573E-08  0.147E-04    3.12      90.4  T
     SCC iter.                  ...        0 min,  0.019 sec
     gradient                   ...        0 min,  0.089 sec
 * total energy  :   -90.5833011 Eh     change       -0.6584276E-05 Eh
   gradient norm :     0.0012222 Eh/α   predicted    -0.3444217E-05 ( -47.69%)
   displ. norm   :     0.0589227 α      lambda       -0.6215213E-05
   maximum displ.:     0.0299604 α      in ANC's #6, #5, #10, ...

........................................................................
.............................. CYCLE   46 ..............................
........................................................................

 iter      E             dE          RMSdq      gap      omega  full diag
   1    -91.8920372 -0.918920E+02  0.164E-02    3.12       0.0  T
   2    -91.8920372 -0.589892E-07  0.962E-03    3.12       1.4  T
   3    -91.8920372  0.171894E-07  0.809E-04    3.12      16.4  T
   4    -91.8920373 -0.325176E-07  0.278E-04    3.12      47.7  T
     SCC iter.                  ...        0 min,  0.016 sec
     gradient                   ...        0 min,  0.076 sec
 * total energy  :   -90.5833092 Eh     change       -0.8045691E-05 Eh
   gradient norm :     0.0012958 Eh/α   predicted    -0.3149911E-05 ( -60.85%)
   displ. norm   :     0.1224370 α      lambda       -0.1172027E-04
   maximum displ.:     0.0619459 α      in ANC's #6, #5, #3, ...

........................................................................
.............................. CYCLE   47 ..............................
........................................................................

 iter      E             dE          RMSdq      gap      omega  full diag
   1    -91.8915286 -0.918915E+02  0.339E-02    3.12       0.0  T
   2    -91.8915288 -0.218224E-06  0.199E-02    3.12       1.0  T
   3    -91.8915288  0.624958E-07  0.156E-03    3.12       8.5  T
   4    -91.8915289 -0.125592E-06  0.510E-04    3.12      26.0  T
   5    -91.8915289 -0.396221E-08  0.240E-04    3.12      55.1  T
     SCC iter.                  ...        0 min,  0.064 sec
     gradient                   ...        0 min,  0.047 sec
 * total energy  :   -90.5833223 Eh     change       -0.1318409E-04 Eh
   gradient norm :     0.0006599 Eh/α   predicted    -0.5899420E-05 ( -55.25%)
   displ. norm   :     0.1271728 α      lambda       -0.8327290E-05
   maximum displ.:     0.0661457 α      in ANC's #5, #6, #3, ...

........................................................................
.............................. CYCLE   48 ..............................
........................................................................

 iter      E             dE          RMSdq      gap      omega  full diag
   1    -91.8911689 -0.918912E+02  0.348E-02    3.11       0.0  T
   2    -91.8911692 -0.231488E-06  0.204E-02    3.12       1.0  T
   3    -91.8911691  0.903508E-07  0.173E-03    3.12       7.7  T
   4    -91.8911692 -0.157189E-06  0.499E-04    3.12      26.5  T
   5    -91.8911692 -0.378765E-08  0.236E-04    3.12      56.1  T
     SCC iter.                  ...        0 min,  0.019 sec
     gradient                   ...        0 min,  0.086 sec
 * total energy  :   -90.5833321 Eh     change       -0.9747860E-05 Eh
   gradient norm :     0.0006263 Eh/α   predicted    -0.4216833E-05 ( -56.74%)
   displ. norm   :     0.1344486 α      lambda       -0.8312307E-05
   maximum displ.:     0.0708211 α      in ANC's #5, #6, #1, ...

........................................................................
.............................. CYCLE   49 ..............................
........................................................................

 iter      E             dE          RMSdq      gap      omega  full diag
   1    -91.8910549 -0.918911E+02  0.358E-02    3.11       0.0  T
   2    -91.8910551 -0.228887E-06  0.210E-02    3.11       1.0  T
   3    -91.8910550  0.114888E-06  0.182E-03    3.11       7.3  T
   4    -91.8910552 -0.183763E-06  0.486E-04    3.11      27.2  T
   5    -91.8910552 -0.383778E-08  0.233E-04    3.11      56.8  T
     SCC iter.                  ...        0 min,  0.019 sec
     gradient                   ...        0 min,  0.080 sec
 * total energy  :   -90.5833422 Eh     change       -0.1016014E-04 Eh
   gradient norm :     0.0007902 Eh/α   predicted    -0.4190285E-05 ( -58.76%)
   displ. norm   :     0.1752990 α      lambda       -0.1088753E-04
   maximum displ.:     0.0930565 α      in ANC's #5, #6, #1, ...

........................................................................
.............................. CYCLE   50 ..............................
........................................................................

 iter      E             dE          RMSdq      gap      omega  full diag
   1    -91.8910780 -0.918911E+02  0.460E-02    3.11       0.0  T
   2    -91.8910783 -0.329431E-06  0.270E-02    3.11       1.0  T
   3    -91.8910781  0.191273E-06  0.227E-03    3.11       5.8  T
   4    -91.8910784 -0.301216E-06  0.577E-04    3.11      23.0  T
   5    -91.8910784 -0.494771E-08  0.278E-04    3.11      47.6  T
     SCC iter.                  ...        0 min,  0.019 sec
     gradient                   ...        0 min,  0.079 sec
 * total energy  :   -90.5833546 Eh     change       -0.1235189E-04 Eh
   gradient norm :     0.0008163 Eh/α   predicted    -0.5521008E-05 ( -55.30%)
   displ. norm   :     0.1676346 α      lambda       -0.9084608E-05
   maximum displ.:     0.0904472 α      in ANC's #5, #6, #1, ...

........................................................................
.............................. CYCLE   51 ..............................
........................................................................

 iter      E             dE          RMSdq      gap      omega  full diag
   1    -91.8912874 -0.918913E+02  0.430E-02    3.11       0.0  T
   2    -91.8912877 -0.234931E-06  0.252E-02    3.11       1.0  T
   3    -91.8912875  0.168475E-06  0.206E-03    3.11       6.4  T
   4    -91.8912878 -0.262534E-06  0.498E-04    3.11      26.6  T
   5    -91.8912878 -0.247472E-08  0.242E-04    3.11      54.8  T
     SCC iter.                  ...        0 min,  0.019 sec
     gradient                   ...        0 min,  0.077 sec
 * total energy  :   -90.5833645 Eh     change       -0.9873722E-05 Eh
   gradient norm :     0.0006270 Eh/α   predicted    -0.4601674E-05 ( -53.39%)
   displ. norm   :     0.1252928 α      lambda       -0.6293180E-05
   maximum displ.:     0.0691663 α      in ANC's #5, #1, #6, ...

........................................................................
.............................. CYCLE   52 ..............................
........................................................................

 iter      E             dE          RMSdq      gap      omega  full diag
   1    -91.8916493 -0.918916E+02  0.318E-02    3.11       0.0  T
   2    -91.8916494 -0.103479E-06  0.186E-02    3.11       1.0  T
   3    -91.8916493  0.733391E-07  0.140E-03    3.11       9.5  T
   4    -91.8916494 -0.121751E-06  0.339E-04    3.11      39.1  T
   5    -91.8916494 -0.547900E-09  0.146E-04    3.11      91.0  T
     SCC iter.                  ...        0 min,  0.054 sec
     gradient                   ...        0 min,  0.047 sec
 * total energy  :   -90.5833721 Eh     change       -0.7593904E-05 Eh
   gradient norm :     0.0003861 Eh/α   predicted    -0.3170272E-05 ( -58.25%)
   displ. norm   :     0.1371112 α      lambda       -0.7292452E-05
   maximum displ.:     0.0776197 α      in ANC's #5, #1, #3, ...

........................................................................
.............................. CYCLE   53 ..............................
........................................................................

 iter      E             dE          RMSdq      gap      omega  full diag
   1    -91.8918081 -0.918918E+02  0.345E-02    3.12       0.0  T
   2    -91.8918082 -0.111426E-06  0.202E-02    3.12       1.0  T
   3    -91.8918082  0.503113E-07  0.131E-03    3.12      10.1  T
   4    -91.8918083 -0.101901E-06  0.369E-04    3.12      35.9  T
   5    -91.8918083 -0.792227E-09  0.165E-04    3.12      80.1  T
     SCC iter.                  ...        0 min,  0.046 sec
     gradient                   ...        0 min,  0.046 sec
 * total energy  :   -90.5833814 Eh     change       -0.9357584E-05 Eh
   gradient norm :     0.0004316 Eh/α   predicted    -0.3679991E-05 ( -60.67%)
   displ. norm   :     0.1823019 α      lambda       -0.1024002E-04
   maximum displ.:     0.1030941 α      in ANC's #5, #1, #3, ...

........................................................................
.............................. CYCLE   54 ..............................
........................................................................

 iter      E             dE          RMSdq      gap      omega  full diag
   1    -91.8918122 -0.918918E+02  0.448E-02    3.12       0.0  T
   2    -91.8918124 -0.195345E-06  0.263E-02    3.12       1.0  T
   3    -91.8918124  0.595408E-07  0.161E-03    3.12       8.2  T
   4    -91.8918125 -0.143772E-06  0.501E-04    3.12      26.4  T
   5    -91.8918125 -0.236854E-08  0.246E-04    3.12      53.8  T
     SCC iter.                  ...        0 min,  0.019 sec
     gradient                   ...        0 min,  0.085 sec
 * total energy  :   -90.5833941 Eh     change       -0.1266144E-04 Eh
   gradient norm :     0.0006078 Eh/α   predicted    -0.5197384E-05 ( -58.95%)
   displ. norm   :     0.2221402 α      lambda       -0.1072090E-04
   maximum displ.:     0.1266024 α      in ANC's #5, #1, #3, ...

........................................................................
.............................. CYCLE   55 ..............................
........................................................................

 iter      E             dE          RMSdq      gap      omega  full diag
   1    -91.8914299 -0.918914E+02  0.541E-02    3.12       0.0  T
   2    -91.8914302 -0.276299E-06  0.317E-02    3.12       1.0  T
   3    -91.8914301  0.416292E-07  0.170E-03    3.12       7.8  T
   4    -91.8914303 -0.155177E-06  0.596E-04    3.12      22.2  T
   5    -91.8914303 -0.404880E-08  0.299E-04    3.12      44.2  T
     SCC iter.                  ...        0 min,  0.019 sec
     gradient                   ...        0 min,  0.089 sec
 * total energy  :   -90.5834065 Eh     change       -0.1242402E-04 Eh
   gradient norm :     0.0007283 Eh/α   predicted    -0.5480597E-05 ( -55.89%)
   displ. norm   :     0.2050893 α      lambda       -0.8744842E-05
   maximum displ.:     0.1163123 α      in ANC's #5, #1, #3, ...

........................................................................
.............................. CYCLE   56 ..............................
........................................................................

 iter      E             dE          RMSdq      gap      omega  full diag
   1    -91.8913517 -0.918914E+02  0.481E-02    3.12       0.0  T
   2    -91.8913519 -0.232306E-06  0.282E-02    3.12       1.0  T
   3    -91.8913519  0.327248E-07  0.149E-03    3.12       8.9  T
   4    -91.8913520 -0.122611E-06  0.549E-04    3.12      24.1  T
   5    -91.8913520 -0.464506E-08  0.279E-04    3.12      47.5  T
     SCC iter.                  ...        0 min,  0.058 sec
     gradient                   ...        0 min,  0.046 sec
 * total energy  :   -90.5834165 Eh     change       -0.9965913E-05 Eh
   gradient norm :     0.0006771 Eh/α   predicted    -0.4459271E-05 ( -55.25%)
   displ. norm   :     0.1895383 α      lambda       -0.8005914E-05
   maximum displ.:     0.1096808 α      in ANC's #5, #1, #3, ...

........................................................................
.............................. CYCLE   57 ..............................
........................................................................

 iter      E             dE          RMSdq      gap      omega  full diag
   1    -91.8911881 -0.918912E+02  0.445E-02    3.12       0.0  T
   2    -91.8911883 -0.178929E-06  0.261E-02    3.12       1.0  T
   3    -91.8911883  0.125451E-07  0.127E-03    3.12      10.5  T
   4    -91.8911884 -0.860020E-07  0.497E-04    3.12      26.6  T
   5    -91.8911884 -0.312971E-08  0.232E-04    3.12      57.0  T
     SCC iter.                  ...        0 min,  0.019 sec
     gradient                   ...        0 min,  0.091 sec
 * total energy  :   -90.5834263 Eh     change       -0.9784242E-05 Eh
   gradient norm :     0.0007546 Eh/α   predicted    -0.4071308E-05 ( -58.39%)
   displ. norm   :     0.2630043 α      lambda       -0.1250637E-04
   maximum displ.:     0.1527062 α      in ANC's #5, #1, #3, ...

........................................................................
.............................. CYCLE   58 ..............................
........................................................................

 iter      E             dE          RMSdq      gap      omega  full diag
   1    -91.8909678 -0.918910E+02  0.612E-02    3.12       0.0  T
   2    -91.8909682 -0.338742E-06  0.359E-02    3.12       1.0  T
   3    -91.8909681  0.307970E-07  0.182E-03    3.12       7.3  T
   4    -91.8909683 -0.177172E-06  0.698E-04    3.12      19.0  T
   5    -91.8909683 -0.465572E-08  0.314E-04    3.12      42.2  T
     SCC iter.                  ...        0 min,  0.019 sec
     gradient                   ...        0 min,  0.079 sec
 * total energy  :   -90.5834407 Eh     change       -0.1448490E-04 Eh
   gradient norm :     0.0009764 Eh/α   predicted    -0.6447469E-05 ( -55.49%)
   displ. norm   :     0.2953763 α      lambda       -0.1478365E-04
   maximum displ.:     0.1674943 α      in ANC's #5, #1, #3, ...

........................................................................
.............................. CYCLE   59 ..............................
........................................................................

 iter      E             dE          RMSdq      gap      omega  full diag
   1    -91.8910376 -0.918910E+02  0.677E-02    3.12       0.0  T
   2    -91.8910380 -0.416284E-06  0.397E-02    3.12       1.0  T
   3    -91.8910380 -0.535962E-08  0.193E-03    3.12       6.9  T
   4    -91.8910382 -0.178143E-06  0.802E-04    3.12      16.5  T
   5    -91.8910382 -0.567336E-08  0.335E-04    3.12      39.5  T
     SCC iter.                  ...        0 min,  0.019 sec
     gradient                   ...        0 min,  0.080 sec
 * total energy  :   -90.5834570 Eh     change       -0.1623491E-04 Eh
   gradient norm :     0.0011552 Eh/α   predicted    -0.7683476E-05 ( -52.67%)
   displ. norm   :     0.2783188 α      lambda       -0.1287115E-04
   maximum displ.:     0.1580221 α      in ANC's #5, #1, #3, ...

........................................................................
.............................. CYCLE   60 ..............................
........................................................................

 iter      E             dE          RMSdq      gap      omega  full diag
   1    -91.8906660 -0.918907E+02  0.639E-02    3.12       0.0  T
   2    -91.8906664 -0.354532E-06  0.375E-02    3.12       1.0  T
   3    -91.8906663  0.725456E-07  0.213E-03    3.12       6.2  T
   4    -91.8906665 -0.246178E-06  0.729E-04    3.12      18.2  T
   5    -91.8906665 -0.148898E-08  0.289E-04    3.12      45.8  T
     SCC iter.                  ...        0 min,  0.019 sec
     gradient                   ...        0 min,  0.074 sec
 * total energy  :   -90.5834709 Eh     change       -0.1394867E-04 Eh
   gradient norm :     0.0012720 Eh/α   predicted    -0.6660738E-05 ( -52.25%)
   displ. norm   :     0.2138222 α      lambda       -0.1685103E-04
   maximum displ.:     0.1217976 α      in ANC's #1, #5, #4, ...

........................................................................
.............................. CYCLE   61 ..............................
........................................................................

 iter      E             dE          RMSdq      gap      omega  full diag
   1    -91.8927096 -0.918927E+02  0.458E-02    3.12       0.0  T
   2    -91.8927099 -0.344107E-06  0.269E-02    3.12       1.0  T
   3    -91.8927096  0.308427E-06  0.300E-03    3.12       4.4  T
   4    -91.8927101 -0.458175E-06  0.687E-04    3.12      19.3  T
   5    -91.8927101 -0.456731E-08  0.398E-04    3.12      33.3  T
     SCC iter.                  ...        0 min,  0.019 sec
     gradient                   ...        0 min,  0.046 sec
 * total energy  :   -90.5834793 Eh     change       -0.8363288E-05 Eh
   gradient norm :     0.0019392 Eh/α   predicted    -0.8599985E-05 (   2.83%)
   displ. norm   :     0.3174770 α      lambda       -0.1801877E-04
   maximum displ.:     0.1840335 α      in ANC's #5, #1, #3, ...

........................................................................
.............................. CYCLE   62 ..............................
........................................................................

 iter      E             dE          RMSdq      gap      omega  full diag
   1    -91.8906759 -0.918907E+02  0.745E-02    3.11       0.0  T
   2    -91.8906765 -0.637399E-06  0.437E-02    3.11       1.0  T
   3    -91.8906758  0.698356E-06  0.424E-03    3.12       3.1  T
[...]
   F. Musil, H. Neugebauer, J. Pisarek, C. Plett, P. Pracht, F. Pultar,
   J. Seibert, P. Shushkov, S. Spicher, M. Stahn, M. Steiner, T. Strunk,
   J. Stückrath, T. Rose, and J. Unsleber
   
 * started run on 2025/05/15 at 16:17:50.726     
   ID    Z sym.   atoms
    1    6 C      1, 3, 5-7, 10-14, 16, 18, 19, 21-25, 27-32
    2    7 N      2, 4, 8, 15, 17, 20
    3    8 O      9
    4    9 F      26
    5    1 H      33-57

           -------------------------------------------------
          |                Calculation Setup                |
           -------------------------------------------------

          program call               : xtb /rds/general/user/hgt20/home/callum/QDESCP/Mizolastine_rdkit_conf_14/Mizolastine_rdkit_conf_14.xyz --acc 1 --gfn 2 --chrg 0 --uhf 2 --etemp 300 --input /rds/general/user/hgt20/home/callum/QDESCP/Mizolastine_rdkit_conf_14/Mizolastine_rdkit_conf_14_xtb.inp -P 1
          hostname                   : login-c
          coordinate file            : /rds/general/user/hgt20/home/callum/QDESCP/Mizolastine_rdkit_conf_14/Mizolastine_rdkit_conf_14.xyz
          omp threads                :                     1


           -------------------------------------------------
          |                 G F N 2 - x T B                 |
           -------------------------------------------------

        Reference                      10.1021/acs.jctc.8b01176
      * Hamiltonian:
        H0-scaling (s, p, d)           1.850000    2.230000    2.230000
        zeta-weighting                 0.500000
      * Dispersion:
        s8                             2.700000
        a1                             0.520000
        a2                             5.000000
        s9                             5.000000
      * Repulsion:
        kExp                           1.500000    1.000000
        rExp                           1.000000
      * Coulomb:
        alpha                          2.000000
        third order                    shell-resolved
        anisotropic                    true
        a3                             3.000000
        a5                             4.000000
        cn-shift                       1.200000
        cn-exp                         4.000000
        max-rad                        5.000000


          ...................................................
          :                      SETUP                      :
          :.................................................:
          :  # basis functions                 153          :
          :  # atomic orbitals                 153          :
          :  # shells                           89          :
          :  # electrons                       164          :
          :  max. iterations                   250          :
          :  Hamiltonian                  GFN2-xTB          :
          :  restarted?                      false          :
          :  GBSA solvation                  false          :
          :  PC potential                    false          :
          :  electronic temp.          300.0000000     K    :
          :  accuracy                    1.0000000          :
          :  -> integral cutoff          0.2500000E+02      :
          :  -> integral neglect         0.1000000E-07      :
          :  -> SCF convergence          0.1000000E-05 Eh   :
          :  -> wf. convergence          0.1000000E-03 e    :
          :  Broyden damping             0.4000000          :
          :  net charge                          0          :
          :  unpaired electrons                  2          :
          ...................................................

 iter      E             dE          RMSdq      gap      omega  full diag
   1    -91.3444622 -0.913445E+02  0.374E+00    0.22       0.0  T
   2    -91.3333465  0.111156E-01  0.321E+00    0.97       1.0  T
   3    -91.5055506 -0.172204E+00  0.203E+00    0.09       1.0  T
   4    -91.3388494  0.166701E+00  0.210E+00    1.13       1.0  T
   5    -91.5608901 -0.222041E+00  0.128E+00    0.22       1.0  T
   6    -91.5298806  0.310094E-01  0.128E+00    0.69       1.0  T
   7    -91.7476252 -0.217745E+00  0.495E-01    0.10       1.0  T
   8    -91.6476624  0.999628E-01  0.882E-01    0.11       1.0  T
   9    -91.5953049  0.523575E-01  0.937E-01    0.15       1.0  T
  10    -91.6604429 -0.651380E-01  0.721E-01    0.05       1.0  T
  11    -91.6093474  0.510955E-01  0.884E-01    0.22       1.0  T
  12    -91.6710158 -0.616684E-01  0.684E-01    0.15       1.0  T
  13    -91.7537385 -0.827227E-01  0.219E-01    0.06       1.0  T
  14    -91.7597930 -0.605450E-02  0.118E-01    0.04       1.0  T
  15    -91.7615117 -0.171872E-02  0.660E-02    0.03       1.0  T
  16    -91.7618934 -0.381672E-03  0.130E-02    0.03       1.0  T
  17    -91.7615542  0.339152E-03  0.425E-02    0.03       1.0  T
  18    -91.7618994 -0.345173E-03  0.687E-03    0.03       1.9  T
  19    -91.7618998 -0.393463E-06  0.497E-03    0.03       2.7  T
  20    -91.7619038 -0.401349E-05  0.221E-03    0.03       6.0  T
  21    -91.7619038 -0.241795E-08  0.202E-03    0.03       6.6  T
  22    -91.7619042 -0.437298E-06  0.139E-03    0.03       9.5  T
  23    -91.7619046 -0.352583E-06  0.345E-04    0.03      38.4  T
  24    -91.7619046 -0.162939E-07  0.191E-04    0.03      69.5  T

   *** convergence criteria satisfied after 24 iterations ***

         #    Occupation            Energy/Eh            Energy/eV
      -------------------------------------------------------------
         1        2.0000           -0.8141190             -22.1533
       ...           ...                  ...                  ...
        77        2.0000           -0.3955423             -10.7633
        78        2.0000           -0.3934565             -10.7065
        79        1.9997           -0.3886368             -10.5753
        80        1.9996           -0.3883647             -10.5679
        81        1.6066           -0.3813642             -10.3774
        82        1.3941           -0.3805440             -10.3551
        83        0.5954           -0.2426825              -6.6037 (HOMO)
        84        0.3063           -0.2415388              -6.5726 (LUMO)
        85        0.0952           -0.2401760              -6.5355
        86        0.0031           -0.2368442              -6.4449
        87                         -0.2144913              -5.8366
        88                         -0.2121774              -5.7736
       ...                                ...                  ...
       153                          0.7069763              19.2378
      -------------------------------------------------------------
                  HL-Gap            0.0011438 Eh            0.0311 eV
             Fermi-level           -0.3116341 Eh           -8.4800 eV

 transition dipole moment (au) for excitation:          82          83
     X       Y       Z   
   1.5480  -0.6195   0.2858  total (au/Debye):    1.692   4.300
 dE (eV)             :    3.751
 oscillator strength :  0.37198E+00

 SCC (total)                   0 d,  0 h,  0 min,  0.284 sec
 SCC setup                      ...        0 min,  0.001 sec (  0.225%)
 Dispersion                     ...        0 min,  0.001 sec (  0.316%)
 classical contributions        ...        0 min,  0.000 sec (  0.094%)
 integral evaluation            ...        0 min,  0.013 sec (  4.574%)
 iterations                     ...        0 min,  0.160 sec ( 56.543%)
 molecular gradient             ...        0 min,  0.098 sec ( 34.439%)
 printout                       ...        0 min,  0.011 sec (  3.805%)

         :::::::::::::::::::::::::::::::::::::::::::::::::::::
         ::                     SUMMARY                     ::
         :::::::::::::::::::::::::::::::::::::::::::::::::::::
         :: total energy             -90.453435772783 Eh    ::
         :: gradient norm              0.099034218042 Eh/a0 ::
         :: HOMO-LUMO gap              0.031123314021 eV    ::
         ::.................................................::
         :: SCC energy               -91.760918203157 Eh    ::
         :: -> isotropic ES            0.088204875619 Eh    ::
         :: -> anisotropic ES          0.004162742118 Eh    ::
         :: -> anisotropic XC          0.041431573248 Eh    ::
         :: -> dispersion             -0.068575942652 Eh    ::
         :: repulsion energy           1.307482430374 Eh    ::
         :: add. restraining           0.000000000000 Eh    ::
         :: total charge               0.000000000929 e     ::
         :::::::::::::::::::::::::::::::::::::::::::::::::::::

           -------------------------------------------------
          |                Property Printout                |
           -------------------------------------------------

    * Orbital Energies and Occupations

         #    Occupation            Energy/Eh            Energy/eV
      -------------------------------------------------------------
         1        2.0000           -0.8141190             -22.1533
       ...           ...                  ...                  ...
        71        2.0000           -0.4359584             -11.8630
        72        2.0000           -0.4343035             -11.8180
        73        2.0000           -0.4216509             -11.4737
        74        2.0000           -0.4183049             -11.3827
        75        2.0000           -0.4152498             -11.2995
        76        2.0000           -0.4074475             -11.0872
        77        2.0000           -0.3955423             -10.7633
        78        2.0000           -0.3934565             -10.7065
        79        1.9997           -0.3886368             -10.5753
        80        1.9996           -0.3883647             -10.5679
        81        1.6066           -0.3813642             -10.3774
        82        1.3941           -0.3805440             -10.3551
        83        0.5954           -0.2426825              -6.6037 (HOMO)
        84        0.3063           -0.2415388              -6.5726 (LUMO)
        85        0.0952           -0.2401760              -6.5355
        86        0.0031           -0.2368442              -6.4449
        87                         -0.2144913              -5.8366
        88                         -0.2121774              -5.7736
        89                         -0.1843840              -5.0173
        90                         -0.1097264              -2.9858
        91                         -0.1092882              -2.9739
        92                         -0.0845723              -2.3013
        93                         -0.0518738              -1.4116
        94                         -0.0249989              -0.6803
       ...                                ...                  ...
       153                          0.7069763              19.2378
      -------------------------------------------------------------
                  HL-Gap            0.0011438 Eh            0.0311 eV
             Fermi-level           -0.3116341 Eh           -8.4800 eV

     #   Z          covCN         q      C6AA      α(0)
     1   6 C        3.694    -0.055    21.752     6.672
     2   7 N        2.746    -0.073    22.649     7.068
     3   6 C        2.835     0.199    23.767     7.989
     4   7 N        1.845    -0.277    28.025     7.846
     5   6 C        2.903     0.029    27.355     8.576
     6   6 C        2.904    -0.079    29.966     8.976
     7   6 C        2.768     0.267    22.490     7.767
     8   7 N        2.705    -0.196    25.264     7.465
     9   8 O        0.859    -0.434    22.370     6.341
    10   6 C        3.805     0.023    20.182     6.395
    11   6 C        3.805    -0.069    21.819     6.650
    12   6 C        3.764    -0.001    20.646     6.477
    13   6 C        3.805    -0.079    22.004     6.678
    14   6 C        3.771     0.000    20.605     6.469
    15   7 N        2.732    -0.122    23.653     7.223
    16   6 C        3.140     0.186    23.816     7.986
    17   7 N        1.884    -0.326    29.299     8.024
    18   6 C        3.193     0.070    25.951     8.307
    19   6 C        3.091     0.040    27.006     8.518
    20   7 N        2.818    -0.072    22.637     7.066
    21   6 C        3.744    -0.001    20.669     6.486
    22   6 C        2.968    -0.006    28.172     8.706
    23   6 C        2.929    -0.050    29.235     8.867
    24   6 C        2.916    -0.055    29.377     8.888
    25   6 C        2.788     0.166    24.408     8.093
    26   9 F        0.787    -0.229    11.543     4.013
    27   6 C        2.916    -0.059    29.458     8.900
    28   6 C        2.927    -0.043    29.065     8.841
    29   6 C        2.908    -0.063    29.577     8.918
    30   6 C        2.927    -0.033    28.812     8.803
    31   6 C        2.923    -0.038    28.944     8.823
    32   6 C        2.911    -0.055    29.357     8.885
    33   1 H        0.924     0.061     2.188     2.313
    34   1 H        0.925     0.077     2.005     2.214
    35   1 H        0.924     0.060     2.204     2.322
    36   1 H        0.925     0.032     2.558     2.501
    37   1 H        0.926     0.055     2.258     2.350
    38   1 H        0.860     0.182     1.200     1.716
    39   1 H        0.924     0.089     1.888     2.149
    40   1 H        0.924     0.047     2.356     2.400
    41   1 H        0.924     0.051     2.302     2.372
    42   1 H        0.924     0.053     2.277     2.360
    43   1 H        0.924     0.058     2.222     2.331
    44   1 H        0.925     0.074     2.043     2.235
    45   1 H        0.925     0.052     2.292     2.368
    46   1 H        0.924     0.066     2.125     2.280
    47   1 H        0.924     0.052     2.296     2.370
    48   1 H        0.924     0.058     2.225     2.333
    49   1 H        0.924     0.062     2.176     2.307
    50   1 H        0.926     0.034     2.529     2.487
    51   1 H        0.926     0.054     2.276     2.359
    52   1 H        0.926     0.051     2.302     2.372
    53   1 H        0.926     0.037     2.490     2.467
    54   1 H        0.926     0.024     2.668     2.554
    55   1 H        0.926     0.032     2.551     2.498
    56   1 H        0.926     0.032     2.555     2.499
    57   1 H        0.926     0.038     2.477     2.461

 Mol. C6AA /au·bohr⁶  :      38600.016440
 Mol. C8AA /au·bohr⁸  :     915363.322967
 Mol. α(0) /au        :        305.334508


Wiberg/Mayer (AO) data.
largest (>0.10) Wiberg bond orders for each atom

 ---------------------------------------------------------------------------
     #   Z sym  total        # sym  WBO       # sym  WBO       # sym  WBO
 ---------------------------------------------------------------------------
     1   6 C    3.966 --     2 N    1.006    34 H    0.972    35 H    0.969
                            33 H    0.968
     2   7 N    3.411 --     3 C    1.204     1 C    1.006    10 C    0.973
     3   6 C    3.863 --     4 N    1.366     2 N    1.204     8 N    1.153
     4   7 N    2.937 --     3 C    1.366     5 C    1.323
     5   6 C    3.731 --     4 N    1.323     6 C    1.316    36 H    0.964
     6   6 C    3.661 --     5 C    1.316     7 C    1.195    37 H    0.967
     7   6 C    3.897 --     9 O    1.612     6 C    1.195     8 N    1.023
     8   7 N    3.391 --     3 C    1.153     7 C    1.023    38 H    0.927
                             9 O    0.104
     9   8 O    1.895 --     7 C    1.612     8 N    0.104
    10   6 C    3.957 --    13 C    0.986    11 C    0.984     2 N    0.973
                            39 H    0.946
    11   6 C    3.974 --    12 C    0.988    10 C    0.984    41 H    0.973
                            40 H    0.972
    12   6 C    3.960 --    11 C    0.988    15 N    0.978    42 H    0.970
                            43 H    0.964
    13   6 C    3.972 --    14 C    0.989    10 C    0.986    45 H    0.973
                            44 H    0.963
    14   6 C    3.969 --    15 N    0.991    13 C    0.989    46 H    0.971
                            47 H    0.968
    15   7 N    3.235 --    16 C    1.112    14 C    0.991    12 C    0.978
    16   6 C    3.812 --    17 N    1.413    20 N    1.141    15 N    1.112
    17   7 N    2.929 --    16 C    1.413    18 C    1.247
    18   6 C    3.896 --    32 C    1.274    17 N    1.247    19 C    1.214
    19   6 C    3.903 --    29 C    1.361    18 C    1.214    20 N    1.140
    20   7 N    3.545 --    16 C    1.141    19 C    1.140    21 C    0.994
    21   6 C    3.971 --    20 N    0.994    22 C    0.990    48 H    0.960
                            49 H    0.952
    22   6 C    3.981 --    28 C    1.422    23 C    1.397    21 C    0.990
    23   6 C    3.928 --    24 C    1.414    22 C    1.397    50 H    0.970
    24   6 C    3.942 --    23 C    1.414    25 C    1.395    51 H    0.968
    25   6 C    3.881 --    27 C    1.395    24 C    1.395    26 F    0.956
    26   9 F    1.085 --    25 C    0.956
    27   6 C    3.930 --    28 C    1.401    25 C    1.395    52 H    0.968
    28   6 C    3.948 --    22 C    1.422    27 C    1.401    53 H    0.967
    29   6 C    3.897 --    30 C    1.400    19 C    1.361    54 H    0.967
    30   6 C    3.857 --    29 C    1.400    31 C    1.378    55 H    0.972
    31   6 C    3.960 --    32 C    1.481    30 C    1.378    56 H    0.971
    32   6 C    3.866 --    31 C    1.481    18 C    1.274    57 H    0.969
    33   1 H    0.990 --     1 C    0.968
    34   1 H    0.994 --     1 C    0.972
    35   1 H    0.991 --     1 C    0.969
    36   1 H    0.998 --     5 C    0.964
    37   1 H    0.997 --     6 C    0.967
    38   1 H    0.967 --     8 N    0.927
    39   1 H    0.992 --    10 C    0.946
    40   1 H    0.998 --    11 C    0.972
    41   1 H    0.995 --    11 C    0.973
    42   1 H    0.995 --    12 C    0.970
    43   1 H    0.995 --    12 C    0.964
    44   1 H    0.994 --    13 C    0.963
    45   1 H    0.996 --    13 C    0.973
    46   1 H    0.994 --    14 C    0.971
    47   1 H    0.993 --    14 C    0.968
    48   1 H    0.995 --    21 C    0.960
    49   1 H    0.995 --    21 C    0.952
    50   1 H    0.999 --    23 C    0.970
    51   1 H    0.997 --    24 C    0.968
    52   1 H    0.997 --    27 C    0.968
    53   1 H    0.999 --    28 C    0.967
    54   1 H    0.999 --    29 C    0.967
    55   1 H    0.999 --    30 C    0.972
    56   1 H    0.998 --    31 C    0.971
    57   1 H    0.998 --    32 C    0.969
 ---------------------------------------------------------------------------

Topologies differ in total number of bonds
Writing topology from bond orders to xtbtopo.mol

molecular dipole:
                 x           y           z       tot (Debye)
 q only:       -1.623       1.787      -0.827
   full:       -1.826       1.511      -0.773       6.337
molecular quadrupole (traceless):
                xx          xy          yy          xz          yz          zz
 q only:      -38.482      10.875      24.899      -2.343      14.860      13.583
  q+dip:      -35.455      10.427      22.952      -2.055      19.110      12.503
   full:      -34.924      10.058      23.489      -1.829      16.003      11.436


           -------------------------------------------------
          | TOTAL ENERGY              -90.453435772783 Eh   |
          | GRADIENT NORM               0.099034218042 Eh/α |
          | HOMO-LUMO GAP               0.031123314021 eV   |
           -------------------------------------------------

------------------------------------------------------------------------
 * finished run on 2025/05/15 at 16:17:51.029     
------------------------------------------------------------------------
 total:
 * wall-time:     0 d,  0 h,  0 min,  0.303 sec
 *  cpu-time:     0 d,  0 h,  0 min,  0.184 sec
 * ratio c/w:     0.606 speedup
 SCF:
 * wall-time:     0 d,  0 h,  0 min,  0.284 sec
 *  cpu-time:     0 d,  0 h,  0 min,  0.166 sec
 * ratio c/w:     0.584 speedup


