42
 energy: -62.296345129655 gnorm: 0.000669076824 xtb: 6.7.1 (edcfbbe)
C            3.29446511534996        0.41785994900972        2.24341786286571
C            3.28688324828521        1.24785137517528        0.95808900389883
C            2.88438290686811        0.40737526653853       -0.22023342508274
C            3.80419582424296       -0.11293784860260       -1.10955612887805
C            3.42307437631956       -0.92332039119222       -2.18298145853234
C            2.10466501553953       -1.24396586149039       -2.40777909635446
C            1.14350252120025       -0.73545314976848       -1.53376067451611
C            1.54691354641518        0.08172529591843       -0.44728914450068
N            0.43115432863258        0.43480593253129        0.25783419850109
C           -0.66278909657575       -0.10381504499932       -0.36216545343492
C           -0.27513920713819       -0.83083127410987       -1.45349272467779
C           -1.28306750103563       -1.49773982307609       -2.32748587130409
C           -2.60505171655294       -0.75444328701090       -2.10850639892794
O           -2.95798281722429       -0.67353724973769       -0.74317360753131
C           -2.07663409044881        0.06062797275068        0.09792207426870
C           -2.28056652917807       -0.50453747943432        1.51719916161483
C           -1.89891083993438       -1.97735081771718        1.60060188555852
C           -2.50592405706182        1.56504972707122        0.05224955663326
C           -2.06686926211590        2.38303777755503        1.23129496493059
O           -3.09347960921364        3.01853857520950        1.79858970337580
O           -0.94027402859360        2.49666728417520        1.64954301806959
H            2.30753203344380        0.00463265454360        2.43775541149851
H            3.58718208319236        1.03170731225804        3.09244660850346
H            3.99696283191132       -0.40765298652253        2.15274233047684
H            2.59108110056154        2.08313360777743        1.07202883225582
H            4.28390800096583        1.65915760705018        0.78927913638201
H            4.85201348111603        0.11490896511213       -0.97355557900400
H            4.18751800102114       -1.30168195050900       -2.84627271653289
H            1.81567435382918       -1.87195904402268       -3.23737895576176
H            0.38139354180842        1.11530516861752        1.00095055559029
H           -0.99413054917977       -1.44802720835415       -3.37839055013032
H           -1.39896971345104       -2.54995718554664       -2.05154923171036
H           -2.53176510951360        0.25273557218439       -2.54445338041559
H           -3.43968268666008       -1.28004775359684       -2.57798800347428
H           -1.67926104266972        0.07148560188328        2.22154311474324
H           -3.33427003698539       -0.38474943191472        1.77457920118197
H           -2.48699140986801       -2.54995903266245        0.88925296330969
H           -0.84468245114785       -2.11409993798814        1.37096256439041
H           -2.09074687716497       -2.35685164462457        2.60126437167703
H           -2.08227656129817        2.01779117263251       -0.84771822621359
H           -3.59397130095558        1.60407867800490       -0.00920771957524
H           -2.79906581673475        3.55434290687669        2.55309182683433
