41
 energy: -72.628509503961 gnorm: 0.000818059865 xtb: 6.7.1 (edcfbbe)
C            0.06806718382053        3.00013011360289       -1.64771392655041
C           -0.25712868641306        1.76104820789667       -0.89930225724791
C           -1.40159762652029        1.43966883647959       -0.23564758004160
C           -1.22828591242270        0.12763739696298        0.31802003905197
C            0.07285586940581       -0.29224576907508       -0.01615265677837
N            0.67833570787772        0.73262182790604       -0.74435067494125
C            1.96062297830169        0.74422393609027       -1.26928186884619
C            2.97437383568497       -0.05548108033913       -0.52754495759831
C            3.92927407955560       -0.77159304840114       -1.24229367909363
C            4.93428705937778       -1.45219922950675       -0.58169696128539
C            4.99933355510854       -1.38928193689997        0.80214033193214
Cl           6.25531714673426       -2.23042315620531        1.63519745105088
C            4.07379722139342       -0.65170959631210        1.52714832326917
C            3.06227563858387        0.01215498621880        0.86108359299169
O            2.26451733549219        1.40629717090125       -2.23645588050806
C            0.49750511070586       -1.57583487594703        0.29721204376577
C           -0.36267260944239       -2.38975960176550        1.00036394475305
C           -1.64511381793654       -1.96382184522151        1.38040484608047
O           -2.37301762001397       -2.88209635864162        2.07787097234239
C           -3.68226720217204       -2.54461947967326        2.46331311646600
C           -2.09109573923454       -0.70134708097873        1.02937378392763
C           -2.65240840425206        2.24622732989693       -0.13895197762449
C           -3.63079375295567        1.89977849537097       -1.24195383831947
O           -4.72711137544605        2.67162362951576       -1.17081072810021
O           -3.48696680136998        1.05945551868010       -2.08356399234885
H           -0.70219612061271        3.74916216952758       -1.48692012819489
H            0.13488668406692        2.78853764014947       -2.71368543676203
H            1.03092039636662        3.40195193627858       -1.33731959069186
H            3.86966985080104       -0.79571585409434       -2.31954146590639
H            5.66713830830029       -2.02095778302453       -1.13176384744088
H            4.14828353584579       -0.60031457968356        2.60169196256166
H            2.34137133029350        0.58867631078319        1.42114388060846
H            1.46218456675422       -1.95128145884657       -0.00191448207356
H           -0.07006130857749       -3.39237104072939        1.26664381327208
H           -4.31536282331435       -2.33424276617849        1.59527157278284
H           -3.69308088080944       -1.68286364286325        3.13914114689084
H           -4.06960090343971       -3.41672113678017        2.98763776645004
H           -3.08527980041876       -0.36031314943804        1.26815338214819
H           -2.45016146408001        3.31702789087849       -0.20041297814876
H           -3.15485959255939        2.06266319954149        0.81338385721787
H           -5.34575495247882        2.44610787392496       -1.88331691905944
