57
 energy: -87.642365924533 gnorm: 0.000846165763 xtb: 6.7.1 (edcfbbe)
O           -3.13141826334750       -0.35411178805208        2.36496305883001
C           -3.51519899580180       -0.21876232672390        1.21595470058776
C           -2.82470787272210        0.48700817454952        0.16144493842385
C           -1.49734593987872        1.08442248429309        0.51765220489994
C           -0.37437980406938        0.05513010951206        0.31972962917070
N            0.92041693333503        0.61598653260169        0.65358531912708
C            1.89132615591759       -0.39701737592058        1.02350298276417
C            3.13225547511230        0.27133949297496        1.60367988361347
C            3.77603715568469        1.22064123076328        0.58107388516434
C            2.70109187248842        2.17884886358730        0.06055626104853
C            1.46031484417425        1.43408070838582       -0.41897017217969
C            4.45199801191219        0.44351984685787       -0.49738667784823
N            3.84857500278918       -0.08449128359245       -1.51846587890190
O            4.76213029104619       -0.74678675431709       -2.29912831941050
C            5.97164883858154       -0.62383311083800       -1.73075134278716
C            5.85546610984918        0.13598933660343       -0.55104558637647
C            6.98014480366995        0.40420392790240        0.22625043938963
C            8.19042968488461       -0.09283272126459       -0.19725533190801
C            8.26913171722704       -0.84176282598085       -1.37485380504857
F            9.47893859839887       -1.30271782614923       -1.74429432116908
C            7.18463688045312       -1.13232528907190       -2.17338895381424
C           -3.37989266301038        0.55670531257735       -1.08483157503061
N           -4.57976585220322       -0.01411952802432       -1.37827939585544
C           -5.20717485731060       -0.64585055982373       -0.44394275105596
N           -4.74065485185164       -0.77372238017405        0.81743526995794
C           -5.57690558097312       -1.44233838213302        1.78956958092093
C           -6.97612881905791       -0.83230730637167        1.74286418119060
C           -7.57148979922804       -0.90881200947943        0.32614887998326
C           -6.51690054115580       -1.30867359206749       -0.71690154901652
C           -2.73564666444129        1.26840804839689       -2.23325896957650
H           -1.50890493708757        1.36400434066733        1.57189399626386
H           -1.30979942397911        1.97326305223511       -0.08281078365365
H           -0.57259080062037       -0.77971896305980        0.99565981501899
H           -0.39741176860997       -0.33468654222970       -0.71376339808072
H            2.17644394829432       -1.01938399968107        0.15673021662092
H            1.44670280902261       -1.04448001244701        1.78315681392975
H            2.83613198295701        0.85639245711580        2.47507639220739
H            3.85021892841150       -0.48816232679755        1.92059621438232
H            4.55540166118153        1.80282929108894        1.08638895883837
H            2.41582244664702        2.84328093645275        0.87797285192494
H            3.10087808023299        2.78281533833801       -0.75572549088435
H            1.72203276110022        0.81995816899512       -1.29616711013391
H            0.70693511021247        2.16536610419723       -0.71717361949645
H            6.90236253226261        0.98273009502505        1.13312129395188
H            9.09512007199920        0.08218719465376        0.36272647670973
H            7.27798229099526       -1.71241577197822       -3.07519402253986
H           -5.61334036314504       -2.51459533376107        1.57061212331256
H           -5.10695388388645       -1.29736504934630        2.76566035299802
H           -7.61347464098342       -1.34917058708419        2.45981911730392
H           -6.89975795719279        0.20995125810883        2.05737818750751
H           -8.38517006541513       -1.63403321611118        0.29187540194300
H           -7.98650113045897        0.06153949169750        0.05260248029055
H           -6.84124142332265       -1.04742577108776       -1.72267865120018
H           -6.36119132482475       -2.39067245015063       -0.67927425048963
H           -1.73931357026952        0.87696021015189       -2.42181239278518
H           -2.64783806143696        2.33216091930776       -2.02019263675766
H           -3.34937514255639        1.13425215667186       -3.11833492227425
