52
 energy: -76.359632094007 gnorm: 0.000613925581 xtb: 6.7.1 (edcfbbe)
H            0.27975491194374       -0.10435127733571       -1.60451866262356
C            0.61246327333633       -0.27824256139028       -0.55429081139242
C            1.93202207713493        0.38880079005364       -0.35076583231983
N            2.12671552363331        1.74583793460444       -0.27728682147390
C            3.46091220730584        1.98898877943729       -0.10227492484115
C            4.13189944868395        0.73981356522518       -0.07148209391505
C            5.51623718044756        0.71094984994416        0.09112268671573
C            6.19009652860609        1.90494165165177        0.21730515941840
C            5.51560668839772        3.12820758902184        0.18631025649900
C            4.14723882598909        3.18820366135249        0.02656675658138
C            3.12731611780914       -0.25767087356537       -0.23564988755961
C            3.21546895564352       -1.74364650683439       -0.30202944108293
C            1.93674804312492       -2.26143870404153       -0.96328220548544
N            0.77087713044204       -1.70364323194362       -0.29986154698638
C           -0.45431054058658       -2.41371008775538       -0.59661805376907
C           -1.56559323126656       -1.94573632708159        0.34386343738382
C           -2.86632834864542       -2.71162337685262        0.11686795312976
C           -3.94687971367563       -2.22380642493144        1.07877568689026
C           -4.20253512052935       -0.71739124742660        0.93511642823670
C           -2.87157601543227        0.05957871869418        1.11478536512870
C           -1.78745132397346       -0.44433258310413        0.15678703759842
C           -0.46228676968765        0.28034209958900        0.38538256844489
H           -2.10626541751528       -0.25487430559945       -0.87508151808893
C           -3.17861610750873        1.53206419614617        0.93297248775427
O           -3.18947403141546        1.88793965591089       -0.35673314598607
C           -3.57345512894322        3.22650054943102       -0.63342920103635
O           -3.41458446837745        2.29302531174911        1.83358998003383
O           -4.85437686487522       -0.40322131113281       -0.26712539166932
H           -1.22481326083263       -2.11875145269376        1.36961704386500
H            1.40806632440854        2.44662553393674       -0.32718059381306
H            6.04371895162534       -0.23100888603193        0.11734552592731
H            7.26300205147739        1.90372777502338        0.34368365140239
H            6.07990286289037        4.04331627098562        0.28942415130450
H            3.62651055749903        4.13462625278845        0.00273722810890
H            3.29875773834526       -2.16026006187849        0.70543569072196
H            4.08955804815490       -2.06023157917121       -0.87427676432118
H            1.94998940935031       -2.00487610980548       -2.03789314148668
H            1.88926644012040       -3.34915694252868       -0.87558435359133
H           -0.27862073939583       -3.48182622823050       -0.44588614680043
H           -0.77119083039054       -2.26752955239160       -1.64824708420797
H           -3.19656903708517       -2.58043008166324       -0.91731513461252
H           -2.69969599246839       -3.77945262942813        0.27023711231511
H           -4.88388465704753       -2.74959992208329        0.88741473271104
H           -3.64246144089407       -2.43063983451813        2.10547802707668
H           -4.90028137810816       -0.39321765902089        1.71612106097105
H           -2.54446040119198       -0.07937520382728        2.14923596499354
H           -0.58868832211240        1.35001775338866        0.21035636632277
H           -0.13334166077661        0.13450218015731        1.41566683957510
H           -3.38825547096119        3.38579554307012       -1.69282425076702
H           -2.98889824775103        3.92273619400106       -0.02805930551415
H           -4.63185146246652        3.36632346390585       -0.40651346695686
H           -4.26528331245659       -0.61332035780375       -1.00078941880866
