38
 energy: -65.475720801403 gnorm: 0.000599561515 xtb: 6.7.1 (edcfbbe)
O           -2.45089021039266       -0.76494226154293        3.17625781008622
C           -1.45609211554382       -1.08534178421960        2.25097512115310
C           -1.59051957962751       -0.26756465306463        0.95758587274052
O           -0.37789946427020       -0.38047135017831        0.24098134735481
C           -0.34825899235435        0.38591796163615       -0.94400985527642
C           -1.44646038997373       -0.06845704007556       -1.91700113064612
C           -2.80282447565689        0.03098332121761       -1.21863625382860
C           -2.76121035692341       -0.76164041122966        0.09283030195178
O           -3.96340420936416       -0.61375070768079        0.80429905897885
O           -3.83991167410269       -0.49334907128380       -2.00889990325643
O           -1.47957639577790        0.74005519638135       -3.06469995858353
O            0.86705637235604        0.18638592857252       -1.57746545761406
C            1.98237915370361        0.72725130544690       -0.92669447793547
C            2.15120630707760        2.10275897388388       -0.86911093561948
C            3.27444258582279        2.63460411773097       -0.26138589697319
C            4.22776985830920        1.79260883659130        0.28403889217942
C            4.05898914994665        0.42126116381969        0.21403159784987
C            2.94020961853269       -0.13368366276229       -0.39240928620706
C            2.72824027274907       -1.62844998473856       -0.42222243267930
O            1.94971195014250       -2.07127917482311        0.66520489384353
H           -3.30520401799519       -0.80862456236602        2.72295269729974
H           -1.46956481660667       -2.15555730019491        1.99847932725837
H           -0.49665868620502       -0.85246635151701        2.71915852587357
H           -1.77207608965461        0.78610023308827        1.22447408775200
H           -0.50577189379222        1.45344395682484       -0.68687356662191
H           -1.24764299408213       -1.11790030653423       -2.18452572605249
H           -3.00209129244420        1.09275896359499       -0.99549920872026
H           -2.59646299869389       -1.82280094544049       -0.15688724056266
H           -4.68309722708737       -0.73735781722113        0.17157853815771
H           -3.75090073653483       -0.11515639020242       -2.89210178382137
H           -0.59114268895357        0.75899842597247       -3.44155789934824
H            1.40608378504293        2.75179583787481       -1.30622696254418
H            3.40252801883933        3.70561061657952       -0.21764642754914
H            5.10308483419436        2.20489511278565        0.76269284093581
H            4.79977865054684       -0.23832453939304        0.64049423022721
H            2.25656514741834       -1.90972812537639       -1.37471669045828
H            3.68678319957189       -2.14574187789676       -0.33425954872905
H            1.10253240178352       -1.60284163425963        0.63669549938477
