----- Optimization -----
      -----------------------------------------------------------      
     |                   =====================                   |     
     |                           x T B                           |     
     |                   =====================                   |     
     |                         S. Grimme                         |     
     |          Mulliken Center for Theoretical Chemistry        |     
     |                    University of Bonn                     |     
      -----------------------------------------------------------      

   * xtb version 6.7.1 (edcfbbe) compiled by 'conda@3ef47c1a292c' on 2024-11-25

   xtb is free software: you can redistribute it and/or modify it under
   the terms of the GNU Lesser General Public License as published by
   the Free Software Foundation, either version 3 of the License, or
   (at your option) any later version.
   
   xtb is distributed in the hope that it will be useful,
   but WITHOUT ANY WARRANTY; without even the implied warranty of
   MERCHANTABILITY or FITNESS FOR A PARTICULAR PURPOSE.  See the
   GNU Lesser General Public License for more details.
   
   Cite this work as:
   * C. Bannwarth, E. Caldeweyher, S. Ehlert, A. Hansen, P. Pracht,
     J. Seibert, S. Spicher, S. Grimme, WIREs Comput. Mol. Sci., 2020, 11,
     e01493. DOI: 10.1002/wcms.1493
   
   for GFN2-xTB:
   * C. Bannwarth, S. Ehlert and S. Grimme., J. Chem. Theory Comput., 2019,
     15, 1652-1671. DOI: 10.1021/acs.jctc.8b01176
   for GFN1-xTB:
   * S. Grimme, C. Bannwarth, P. Shushkov, J. Chem. Theory Comput., 2017,
     13, 1989-2009. DOI: 10.1021/acs.jctc.7b00118
   for GFN0-xTB:
   * P. Pracht, E. Caldeweyher, S. Ehlert, S. Grimme, ChemRxiv, 2019, preprint.
     DOI: 10.26434/chemrxiv.8326202.v1
   for GFN-FF:
   * S. Spicher and S. Grimme, Angew. Chem. Int. Ed., 2020, 59, 15665-15673.
     DOI: 10.1002/anie.202004239
   
   for ALPB and GBSA implicit solvation:
   * S. Ehlert, M. Stahn, S. Spicher, S. Grimme, J. Chem. Theory Comput.,
     2021, 17, 4250-4261. DOI: 10.1021/acs.jctc.1c00471
   
   for ddCOSMO and CPCM-X implicit solvation:
   * M. Stahn, S. Ehlert, S. Grimme, J. Phys. Chem. A,
     2023, XX, XXXX-XXXX. DOI: 10.1021/acs.jpca.3c04382
   
   for DFT-D4:
   * E. Caldeweyher, C. Bannwarth and S. Grimme, J. Chem. Phys., 2017,
     147, 034112. DOI: 10.1063/1.4993215
   * E. Caldeweyher, S. Ehlert, A. Hansen, H. Neugebauer, S. Spicher,
     C. Bannwarth and S. Grimme, J. Chem. Phys., 2019, 150, 154122.
     DOI: 10.1063/1.5090222
   * E. Caldeweyher, J.-M. Mewes, S. Ehlert and S. Grimme, Phys. Chem. Chem. Phys.
     2020, 22, 8499-8512. DOI: 10.1039/D0CP00502A
   
   for sTDA-xTB:
   * S. Grimme and C. Bannwarth, J. Chem. Phys., 2016, 145, 054103.
     DOI: 10.1063/1.4959605
   
   in the mass-spec context:
   * V. Asgeirsson, C. Bauer and S. Grimme, Chem. Sci., 2017, 8, 4879.
     DOI: 10.1039/c7sc00601b
   * J. Koopman and S. Grimme, ACS Omega 2019, 4, 12, 15120-15133.
     DOI: 10.1021/acsomega.9b02011
   
   for metadynamics refer to:
   * S. Grimme, J. Chem. Theory Comput., 2019, 155, 2847-2862
     DOI: 10.1021/acs.jctc.9b00143
   
   for SPH calculations refer to:
   * S. Spicher and S. Grimme, J. Chem. Theory Comput., 2021, 17, 1701-1714
     DOI: 10.1021/acs.jctc.0c01306
   
   for ONIOM refer to:
   * C. Plett, A. Katbashev, S. Ehlert, S. Grimme, M. Bursch,
     Phys. Chem. Chem. Phys., 2023, 25, 17860-17868. DOI: 10.1039/D3CP02178E
   
   for DIPRO refer to:
   * J. Kohn, N. Gildemeister, S. Grimme, D. Fazzi, A. Hansen,
     J. Chem. Phys., 2023, just accepted.
   
   for PTB refer to:
   * S. Grimme, M. Mueller, A. Hansen, J. Chem. Phys., 2023, 158, 124111.
     DOI: 10.1063/5.0137838
   
   with help from (in alphabetical order)
   P. Atkinson, C. Bannwarth, F. Bohle, G. Brandenburg, E. Caldeweyher
   M. Checinski, S. Dohm, S. Ehlert, S. Ehrlich, I. Gerasimov, C. Hölzer
   A. Katbashev, J. Kohn, J. Koopman, C. Lavigne, S. Lehtola, F. März, M. Müller,
   F. Musil, H. Neugebauer, J. Pisarek, C. Plett, P. Pracht, F. Pultar,
   J. Seibert, P. Shushkov, S. Spicher, M. Stahn, M. Steiner, T. Strunk,
   J. Stückrath, T. Rose, and J. Unsleber
   
 * started run on 2025/05/15 at 16:07:14.765     
   ID    Z sym.   atoms
    1    8 O      1, 4, 9-12, 20
    2    6 C      2, 3, 5-8, 13-19
    3    1 H      21-38

           -------------------------------------------------
          |                Calculation Setup                |
           -------------------------------------------------

          program call               : xtb /rds/general/user/hgt20/home/callum/QDESCP/Salicin_rdkit_conf_14/Salicin_rdkit_conf_14.xyz --opt normal --acc 1 --gfn 2 --chrg 0 --uhf 0 -P 1
          hostname                   : login-c
          coordinate file            : /rds/general/user/hgt20/home/callum/QDESCP/Salicin_rdkit_conf_14/Salicin_rdkit_conf_14.xyz
          omp threads                :                     1


           -------------------------------------------------
          |                 G F N 2 - x T B                 |
           -------------------------------------------------

        Reference                      10.1021/acs.jctc.8b01176
      * Hamiltonian:
        H0-scaling (s, p, d)           1.850000    2.230000    2.230000
        zeta-weighting                 0.500000
      * Dispersion:
        s8                             2.700000
        a1                             0.520000
        a2                             5.000000
        s9                             5.000000
      * Repulsion:
        kExp                           1.500000    1.000000
        rExp                           1.000000
      * Coulomb:
        alpha                          2.000000
        third order                    shell-resolved
        anisotropic                    true
        a3                             3.000000
        a5                             4.000000
        cn-shift                       1.200000
        cn-exp                         4.000000
        max-rad                        5.000000


          ...................................................
          :                      SETUP                      :
          :.................................................:
          :  # basis functions                  98          :
          :  # atomic orbitals                  98          :
          :  # shells                           58          :
          :  # electrons                       112          :
          :  max. iterations                   250          :
          :  Hamiltonian                  GFN2-xTB          :
          :  restarted?                      false          :
          :  GBSA solvation                  false          :
          :  PC potential                    false          :
          :  electronic temp.          300.0000000     K    :
          :  accuracy                    1.0000000          :
          :  -> integral cutoff          0.2500000E+02      :
          :  -> integral neglect         0.1000000E-07      :
          :  -> SCF convergence          0.1000000E-05 Eh   :
          :  -> wf. convergence          0.1000000E-03 e    :
          :  Broyden damping             0.4000000          :
          :  net charge                          0          :
          :  unpaired electrons                  0          :
          ...................................................

 iter      E             dE          RMSdq      gap      omega  full diag
   1    -66.0092299 -0.660092E+02  0.459E+00    4.41       0.0  T
   2    -66.0723237 -0.630939E-01  0.256E+00    4.34       1.0  T
   3    -66.0693958  0.292796E-02  0.885E-01    4.04       1.0  T
   4    -66.0755477 -0.615190E-02  0.288E-01    4.14       1.0  T
   5    -66.0773078 -0.176016E-02  0.945E-02    4.20       1.0  T
   6    -66.0773587 -0.508052E-04  0.443E-02    4.21       1.0  T
   7    -66.0773661 -0.749580E-05  0.157E-02    4.21       1.0  T
   8    -66.0773690 -0.281291E-05  0.505E-03    4.21       3.2  T
   9    -66.0773693 -0.338071E-06  0.210E-03    4.21       7.7  T
  10    -66.0773693 -0.284205E-07  0.900E-04    4.21      18.0  T
  11    -66.0773693 -0.111903E-07  0.370E-04    4.21      43.9  T

   *** convergence criteria satisfied after 11 iterations ***

         #    Occupation            Energy/Eh            Energy/eV
      -------------------------------------------------------------
         1        2.0000           -0.7454525             -20.2848
       ...           ...                  ...                  ...
        50        2.0000           -0.4392306             -11.9521
        51        2.0000           -0.4333687             -11.7926
        52        2.0000           -0.4272494             -11.6260
        53        2.0000           -0.4159997             -11.3199
        54        2.0000           -0.4138483             -11.2614
        55        2.0000           -0.4104418             -11.1687
        56        2.0000           -0.3987330             -10.8501 (HOMO)
        57                         -0.2440704              -6.6415 (LUMO)
        58                         -0.2426053              -6.6016
        59                         -0.1234682              -3.3597
        60                         -0.0819894              -2.2310
        61                         -0.0433493              -1.1796
       ...                                ...                  ...
        98                          0.6136762              16.6990
      -------------------------------------------------------------
                  HL-Gap            0.1546626 Eh            4.2086 eV
             Fermi-level           -0.3214017 Eh           -8.7458 eV

 SCC (total)                   0 d,  0 h,  0 min,  0.048 sec
 SCC setup                      ...        0 min,  0.000 sec (  0.675%)
 Dispersion                     ...        0 min,  0.000 sec (  0.760%)
 classical contributions        ...        0 min,  0.000 sec (  0.265%)
 integral evaluation            ...        0 min,  0.007 sec ( 13.658%)
 iterations                     ...        0 min,  0.020 sec ( 41.426%)
 molecular gradient             ...        0 min,  0.021 sec ( 42.903%)
 printout                       ...        0 min,  0.000 sec (  0.297%)

         :::::::::::::::::::::::::::::::::::::::::::::::::::::
         ::                     SUMMARY                     ::
         :::::::::::::::::::::::::::::::::::::::::::::::::::::
         :: total energy             -65.464230671786 Eh    ::
         :: gradient norm              0.080616184215 Eh/a0 ::
         :: HOMO-LUMO gap              4.208584296575 eV    ::
         ::.................................................::
         :: SCC energy               -66.076819902298 Eh    ::
         :: -> isotropic ES            0.156344560649 Eh    ::
         :: -> anisotropic ES         -0.007348084462 Eh    ::
         :: -> anisotropic XC          0.000327651253 Eh    ::
         :: -> dispersion             -0.036887851737 Eh    ::
         :: repulsion energy           0.612589230511 Eh    ::
         :: add. restraining           0.000000000000 Eh    ::
         :: total charge               0.000000000000 e     ::
         :::::::::::::::::::::::::::::::::::::::::::::::::::::

      ----------------------------------------------------------- 
     |                   =====================                   |
     |                        A N C O P T                        |
     |                   =====================                   |
     |               Approximate Normal Coordinate               |
     |                Rational Function Optimizer                |
      ----------------------------------------------------------- 
      ----------------------------------------------------------- 
     |                   =====================                   |
     |                        A N C O P T                        |
     |                   =====================                   |
     |               Approximate Normal Coordinate               |
     |                Rational Function Optimizer                |
      ----------------------------------------------------------- 

          ...................................................
          :                      SETUP                      :
          :.................................................:
          :   optimization level            normal          :
          :   max. optcycles                   200          :
          :   ANC micro-cycles                  20          :
          :   degrees of freedom               108          :
          :.................................................:
          :   RF solver                   davidson          :
          :   write xtbopt.log                true          :
          :   linear?                        false          :
          :   energy convergence         0.5000000E-05 Eh   :
          :   grad. convergence          0.1000000E-02 Eh/α :
          :   maxmium RF displ.          1.0000000          :
          :   Hlow (freq-cutoff)         0.1000000E-01      :
          :   Hmax (freq-cutoff)         5.0000000          :
          :   S6 in model hess.         20.0000000          :
          ...................................................

generating ANC from exact Hessian ...
Using Lindh-Hessian (1995)
 Shifting diagonal of input Hessian by    9.5627288355458751E-003
 Lowest  eigenvalues of input Hessian
    0.000000    0.000000    0.000000    0.000000    0.000000    0.000000
    0.010000    0.010459    0.011182    0.012444    0.013031    0.013887
    0.015182    0.016186    0.017695    0.018347    0.021210    0.022453
 Highest eigenvalues
    1.523005    1.573357    1.697508    1.837085    1.954537    2.016189


........................................................................
.............................. CYCLE    1 ..............................
........................................................................

 iter      E             dE          RMSdq      gap      omega  full diag
   1    -66.0773693 -0.660774E+02  0.110E-04    4.21       0.0  T
   2    -66.0773693 -0.660236E-10  0.615E-05    4.21     263.7  T
   3    -66.0773693 -0.126477E-11  0.352E-05    4.21     460.6  T
     SCC iter.                  ...        0 min,  0.006 sec
     gradient                   ...        0 min,  0.020 sec
 * total energy  :   -65.4642307 Eh     change       -0.2723496E-08 Eh
   gradient norm :     0.0806170 Eh/α   predicted     0.0000000E+00 (-100.00%)
   displ. norm   :     0.2750955 α      lambda       -0.1143824E-01
   maximum displ.:     0.0806689 α      in ANC's #14, #52, #26, ...

........................................................................
.............................. CYCLE    2 ..............................
........................................................................

 iter      E             dE          RMSdq      gap      omega  full diag
   1    -66.1079355 -0.661079E+02  0.162E-01    4.31       0.0  T
   2    -66.1079778 -0.423248E-04  0.977E-02    4.30       1.0  T
   3    -66.1079612  0.165924E-04  0.313E-02    4.30       1.0  T
   4    -66.1079862 -0.249126E-04  0.865E-03    4.30       1.9  T
   5    -66.1079877 -0.154141E-05  0.397E-03    4.30       4.1  T
   6    -66.1079878 -0.848807E-07  0.180E-03    4.30       9.0  T
   7    -66.1079878 -0.154816E-07  0.711E-04    4.30      22.8  T
   8    -66.1079878 -0.524331E-08  0.236E-04    4.30      68.6  T
     SCC iter.                  ...        0 min,  0.013 sec
     gradient                   ...        0 min,  0.020 sec
 * total energy  :   -65.4723039 Eh     change       -0.8073195E-02 Eh
   gradient norm :     0.0413279 Eh/α   predicted    -0.6153173E-02 ( -23.78%)
   displ. norm   :     0.2693904 α      lambda       -0.4467009E-02
   maximum displ.:     0.1022045 α      in ANC's #10, #14, #8, ...

........................................................................
.............................. CYCLE    3 ..............................
........................................................................

 iter      E             dE          RMSdq      gap      omega  full diag
   1    -66.1235100 -0.661235E+02  0.129E-01    4.33       0.0  T
   2    -66.1235366 -0.265189E-04  0.771E-02    4.33       1.0  T
   3    -66.1235310  0.560894E-05  0.237E-02    4.33       1.0  T
   4    -66.1235418 -0.108468E-04  0.674E-03    4.33       2.4  T
   5    -66.1235425 -0.689283E-06  0.346E-03    4.33       4.7  T
   6    -66.1235426 -0.888019E-07  0.138E-03    4.33      11.8  T
   7    -66.1235426 -0.656340E-08  0.622E-04    4.33      26.1  T
   8    -66.1235426 -0.370292E-08  0.172E-04    4.33      94.1  T
     SCC iter.                  ...        0 min,  0.013 sec
     gradient                   ...        0 min,  0.019 sec
 * total energy  :   -65.4749193 Eh     change       -0.2615394E-02 Eh
   gradient norm :     0.0125929 Eh/α   predicted    -0.2396530E-02 (  -8.37%)
   displ. norm   :     0.1560052 α      lambda       -0.5958560E-03
   maximum displ.:     0.0724172 α      in ANC's #10, #8, #4, ...

........................................................................
.............................. CYCLE    4 ..............................
........................................................................

 iter      E             dE          RMSdq      gap      omega  full diag
   1    -66.1230153 -0.661230E+02  0.644E-02    4.33       0.0  T
   2    -66.1230170 -0.172933E-05  0.383E-02    4.34       1.0  T
   3    -66.1230169  0.111993E-06  0.438E-03    4.34       3.7  T
   4    -66.1230173 -0.462468E-06  0.193E-03    4.34       8.4  T
   5    -66.1230174 -0.615779E-07  0.941E-04    4.34      17.2  T
   6    -66.1230174 -0.135586E-07  0.420E-04    4.34      38.6  T
     SCC iter.                  ...        0 min,  0.010 sec
     gradient                   ...        0 min,  0.020 sec
 * total energy  :   -65.4753453 Eh     change       -0.4260125E-03 Eh
   gradient norm :     0.0068952 Eh/α   predicted    -0.3051814E-03 ( -28.36%)
   displ. norm   :     0.1744737 α      lambda       -0.3433592E-03
   maximum displ.:     0.0823412 α      in ANC's #8, #10, #4, ...

........................................................................
.............................. CYCLE    5 ..............................
........................................................................

 iter      E             dE          RMSdq      gap      omega  full diag
   1    -66.1212592 -0.661213E+02  0.739E-02    4.34       0.0  T
   2    -66.1212607 -0.155614E-05  0.441E-02    4.34       1.0  T
   3    -66.1212599  0.867605E-06  0.568E-03    4.34       2.9  T
   4    -66.1212611 -0.124419E-05  0.195E-03    4.34       8.3  T
   5    -66.1212612 -0.672612E-07  0.915E-04    4.34      17.7  T
   6    -66.1212612 -0.537675E-08  0.350E-04    4.34      46.3  T
     SCC iter.                  ...        0 min,  0.010 sec
     gradient                   ...        0 min,  0.020 sec
 * total energy  :   -65.4755609 Eh     change       -0.2156491E-03 Eh
   gradient norm :     0.0047305 Eh/α   predicted    -0.1769633E-03 ( -17.94%)
   displ. norm   :     0.0996901 α      lambda       -0.8844575E-04
   maximum displ.:     0.0439038 α      in ANC's #4, #8, #5, ...

........................................................................
.............................. CYCLE    6 ..............................
........................................................................

 iter      E             dE          RMSdq      gap      omega  full diag
   1    -66.1211669 -0.661212E+02  0.419E-02    4.35       0.0  T
   2    -66.1211673 -0.343138E-06  0.249E-02    4.35       1.0  T
   3    -66.1211671  0.129358E-06  0.256E-03    4.35       6.3  T
   4    -66.1211674 -0.226880E-06  0.969E-04    4.35      16.7  T
   5    -66.1211674 -0.121528E-07  0.484E-04    4.35      33.5  T
     SCC iter.                  ...        0 min,  0.008 sec
     gradient                   ...        0 min,  0.020 sec
 * total energy  :   -65.4756253 Eh     change       -0.6438513E-04 Eh
   gradient norm :     0.0036377 Eh/α   predicted    -0.4473104E-04 ( -30.53%)
   displ. norm   :     0.1058960 α      lambda       -0.6669394E-04
   maximum displ.:     0.0497387 α      in ANC's #4, #5, #3, ...

........................................................................
.............................. CYCLE    7 ..............................
........................................................................

 iter      E             dE          RMSdq      gap      omega  full diag
   1    -66.1219182 -0.661219E+02  0.431E-02    4.36       0.0  T
   2    -66.1219185 -0.300514E-06  0.255E-02    4.36       1.0  T
   3    -66.1219185  0.897259E-08  0.199E-03    4.36       8.2  T
   4    -66.1219186 -0.993286E-07  0.926E-04    4.36      17.5  T
   5    -66.1219186 -0.886753E-08  0.460E-04    4.36      35.3  T
     SCC iter.                  ...        0 min,  0.008 sec
     gradient                   ...        0 min,  0.020 sec
 * total energy  :   -65.4756694 Eh     change       -0.4411063E-04 Eh
   gradient norm :     0.0017699 Eh/α   predicted    -0.3372409E-04 ( -23.55%)
   displ. norm   :     0.1004686 α      lambda       -0.2440644E-04
   maximum displ.:     0.0491406 α      in ANC's #3, #4, #5, ...

........................................................................
.............................. CYCLE    8 ..............................
........................................................................

 iter      E             dE          RMSdq      gap      omega  full diag
   1    -66.1228307 -0.661228E+02  0.373E-02    4.37       0.0  T
   2    -66.1228309 -0.226806E-06  0.221E-02    4.37       1.0  T
   3    -66.1228310 -0.244147E-07  0.150E-03    4.37      10.8  T
   4    -66.1228310 -0.430443E-07  0.735E-04    4.37      22.1  T
   5    -66.1228310 -0.251165E-08  0.386E-04    4.37      42.0  T
     SCC iter.                  ...        0 min,  0.008 sec
     gradient                   ...        0 min,  0.020 sec
 * total energy  :   -65.4756896 Eh     change       -0.2022150E-04 Eh
   gradient norm :     0.0016393 Eh/α   predicted    -0.1227688E-04 ( -39.29%)
   displ. norm   :     0.0430501 α      lambda       -0.8938219E-05
   maximum displ.:     0.0273294 α      in ANC's #3, #2, #6, ...

........................................................................
.............................. CYCLE    9 ..............................
........................................................................

 iter      E             dE          RMSdq      gap      omega  full diag
   1    -66.1229787 -0.661230E+02  0.112E-02    4.37       0.0  T
   2    -66.1229788 -0.386838E-07  0.663E-03    4.37       2.4  T
   3    -66.1229788  0.271135E-08  0.625E-04    4.37      26.0  T
   4    -66.1229788 -0.100044E-07  0.247E-04    4.37      65.8  T
     SCC iter.                  ...        0 min,  0.007 sec
     gradient                   ...        0 min,  0.020 sec
 * total energy  :   -65.4757000 Eh     change       -0.1037320E-04 Eh
   gradient norm :     0.0014471 Eh/α   predicted    -0.4479395E-05 ( -56.82%)
   displ. norm   :     0.0679171 α      lambda       -0.1022175E-04
   maximum displ.:     0.0452987 α      in ANC's #3, #2, #1, ...

........................................................................
.............................. CYCLE   10 ..............................
........................................................................

 iter      E             dE          RMSdq      gap      omega  full diag
   1    -66.1225219 -0.661225E+02  0.173E-02    4.36       0.0  T
   2    -66.1225220 -0.414604E-07  0.102E-02    4.36       1.6  T
   3    -66.1225220  0.225629E-08  0.743E-04    4.36      21.8  T
   4    -66.1225220 -0.136633E-07  0.303E-04    4.36      53.5  T
     SCC iter.                  ...        0 min,  0.007 sec
     gradient                   ...        0 min,  0.020 sec
 * total energy  :   -65.4757098 Eh     change       -0.9827546E-05 Eh
   gradient norm :     0.0009267 Eh/α   predicted    -0.5123069E-05 ( -47.87%)
   displ. norm   :     0.0661522 α      lambda       -0.6653930E-05
   maximum displ.:     0.0420517 α      in ANC's #3, #2, #1, ...

........................................................................
.............................. CYCLE   11 ..............................
........................................................................

 iter      E             dE          RMSdq      gap      omega  full diag
   1    -66.1225018 -0.661225E+02  0.171E-02    4.36       0.0  T
   2    -66.1225019 -0.431900E-07  0.101E-02    4.36       1.6  T
   3    -66.1225018  0.306141E-07  0.120E-03    4.36      13.5  T
   4    -66.1225019 -0.491413E-07  0.374E-04    4.36      43.3  T
   5    -66.1225019 -0.784169E-09  0.192E-04    4.36      84.3  T
     SCC iter.                  ...        0 min,  0.008 sec
     gradient                   ...        0 min,  0.020 sec
 * total energy  :   -65.4757158 Eh     change       -0.5994435E-05 Eh
   gradient norm :     0.0011888 Eh/α   predicted    -0.3337311E-05 ( -44.33%)
   displ. norm   :     0.0493343 α      lambda       -0.4101563E-05
   maximum displ.:     0.0316795 α      in ANC's #3, #1, #2, ...

........................................................................
.............................. CYCLE   12 ..............................
........................................................................

 iter      E             dE          RMSdq      gap      omega  full diag
   1    -66.1225549 -0.661226E+02  0.135E-02    4.36       0.0  T
   2    -66.1225549 -0.205812E-07  0.793E-03    4.36       2.0  T
   3    -66.1225549 -0.136065E-08  0.492E-04    4.36      33.0  T
   4    -66.1225549 -0.426171E-08  0.235E-04    4.36      69.0  T
     SCC iter.                  ...        0 min,  0.007 sec
     gradient                   ...        0 min,  0.020 sec
 * total energy  :   -65.4757208 Eh     change       -0.4963665E-05 Eh
   gradient norm :     0.0005992 Eh/α   predicted    -0.2055864E-05 ( -58.58%)
   displ. norm   :     0.0668714 α      lambda       -0.4612074E-05
   maximum displ.:     0.0405386 α      in ANC's #3, #1, #2, ...

   *** GEOMETRY OPTIMIZATION CONVERGED AFTER 12 ITERATIONS ***

------------------------------------------------------------------------
 total energy gain   :        -0.0114901 Eh       -7.2102 kcal/mol
 total RMSD          :         0.1685621 a0        0.0892 Å
 total power (kW/mol):        -2.5139441 (step)  -67.3353 (real)
------------------------------------------------------------------------

 ANCopt (total)                0 d,  0 h,  0 min,  0.448 sec
 optimizer setup                ...        0 min,  0.000 sec (  0.019%)
 model hessian                  ...        0 min,  0.016 sec (  3.638%)
 ANC generation                 ...        0 min,  0.001 sec (  0.281%)
 coordinate transformation      ...        0 min,  0.000 sec (  0.017%)
 single point calculation       ...        0 min,  0.426 sec ( 95.116%)
 optimization log               ...        0 min,  0.003 sec (  0.669%)
 hessian update                 ...        0 min,  0.000 sec (  0.030%)
 rational function              ...        0 min,  0.001 sec (  0.141%)

================
 final structure:
================
38
 xtb: 6.7.1 (edcfbbe)
O           -2.45089021039266       -0.76494226154293        3.17625781008622
C           -1.45609211554382       -1.08534178421960        2.25097512115310
C           -1.59051957962751       -0.26756465306463        0.95758587274052
O           -0.37789946427020       -0.38047135017831        0.24098134735481
C           -0.34825899235435        0.38591796163615       -0.94400985527642
C           -1.44646038997373       -0.06845704007556       -1.91700113064612
C           -2.80282447565689        0.03098332121761       -1.21863625382860
C           -2.76121035692341       -0.76164041122966        0.09283030195178
O           -3.96340420936416       -0.61375070768079        0.80429905897885
O           -3.83991167410269       -0.49334907128380       -2.00889990325643
O           -1.47957639577790        0.74005519638135       -3.06469995858353
O            0.86705637235604        0.18638592857252       -1.57746545761406
C            1.98237915370361        0.72725130544690       -0.92669447793547
C            2.15120630707760        2.10275897388388       -0.86911093561948
C            3.27444258582279        2.63460411773097       -0.26138589697319
C            4.22776985830920        1.79260883659130        0.28403889217942
C            4.05898914994665        0.42126116381969        0.21403159784987
C            2.94020961853269       -0.13368366276229       -0.39240928620706
C            2.72824027274907       -1.62844998473856       -0.42222243267930
O            1.94971195014250       -2.07127917482311        0.66520489384353
H           -3.30520401799519       -0.80862456236602        2.72295269729974
H           -1.46956481660667       -2.15555730019491        1.99847932725837
H           -0.49665868620502       -0.85246635151701        2.71915852587357
H           -1.77207608965461        0.78610023308827        1.22447408775200
H           -0.50577189379222        1.45344395682484       -0.68687356662191
H           -1.24764299408213       -1.11790030653423       -2.18452572605249
H           -3.00209129244420        1.09275896359499       -0.99549920872026
H           -2.59646299869389       -1.82280094544049       -0.15688724056266
H           -4.68309722708737       -0.73735781722113        0.17157853815771
H           -3.75090073653483       -0.11515639020242       -2.89210178382137
H           -0.59114268895357        0.75899842597247       -3.44155789934824
H            1.40608378504293        2.75179583787481       -1.30622696254418
H            3.40252801883933        3.70561061657952       -0.21764642754914
H            5.10308483419436        2.20489511278565        0.76269284093581
H            4.79977865054684       -0.23832453939304        0.64049423022721
H            2.25656514741834       -1.90972812537639       -1.37471669045828
H            3.68678319957189       -2.14574187789676       -0.33425954872905
H            1.10253240178352       -1.60284163425963        0.63669549938477

 Bond Distances (Angstroems)
 ---------------------------
O1-C2=1.3959         O1-H21=0.9681        C2-O1=1.3959         C2-C3=1.5361         C2-H22=1.0997        C2-H23=1.0927        
C3-C2=1.5361         C3-O4=1.4131         C3-C8=1.5370         C3-H24=1.1020        O4-C3=1.4131         O4-C5=1.4115         
C5-O4=1.4115         C5-C6=1.5360         C5-O12=1.3849        C5-H25=1.1093        C6-C5=1.5360         C6-C7=1.5288         
C6-O11=1.4043        C6-H26=1.1011        C7-C6=1.5288         C7-C8=1.5329         C7-O10=1.4053        C7-H27=1.1031        
C8-C3=1.5370         C8-C7=1.5329         C8-O9=1.4048         C8-H28=1.1025        O9-C8=1.4048         O9-H29=0.9662        
O10-C7=1.4053        O10-H30=0.9649       O11-C6=1.4043        O11-H31=0.9652       O12-C5=1.3849        O12-C13=1.4000       
C13-O12=1.4000       C13-C14=1.3870       C13-C18=1.3943       C14-C13=1.3870       C14-C15=1.3834       C14-H32=1.0805       
C15-C14=1.3834       C15-C16=1.3839       C15-H33=1.0795       C16-C15=1.3839       C16-C17=1.3835       C16-H34=1.0795       
C17-C16=1.3835       C17-C18=1.3883       C17-H35=1.0797       C18-C13=1.3943       C18-C17=1.3883       C18-C19=1.5100       
C19-C18=1.5100       C19-O20=1.4088       C19-H36=1.0995       C19-H37=1.0928       O20-C19=1.4088       O20-H38=0.9685       
H21-O1=0.9681        H22-C2=1.0997        H23-C2=1.0927        H24-C3=1.1020        H25-C5=1.1093        H26-C6=1.1011        
H27-C7=1.1031        H28-C8=1.1025        H29-O9=0.9662        H30-O10=0.9649       H31-O11=0.9652       H32-C14=1.0805       
H33-C15=1.0795       H34-C16=1.0795       H35-C17=1.0797       H36-C19=1.0995       H37-C19=1.0928       H38-O20=0.9685       
 C  H  Rav=1.0940 sigma=0.0103  Rmin=1.0795  Rmax=1.1093    13
 C  C  Rav=1.4584 sigma=0.0721  Rmin=1.3834  Rmax=1.5370    12
 O  H  Rav=0.9666 sigma=0.0015  Rmin=0.9649  Rmax=0.9685     5
 O  C  Rav=1.4032 sigma=0.0082  Rmin=1.3849  Rmax=1.4131     9

 selected bond angles (degree)
 --------------------
H21-O1-C2=107.95               C3-C2-O1=111.94                H22-C2-O1=111.52               H22-C2-C3=108.89               
H23-C2-O1=107.03               H23-C2-C3=108.91               H23-C2-H22=108.45              O4-C3-C2=108.02                
C8-C3-C2=111.67                C8-C3-O4=110.04                H24-C3-C2=108.63               H24-C3-O4=109.91               
H24-C3-C8=108.55               C5-O4-C3=113.60                C6-C5-O4=110.87                O12-C5-O4=108.92               
O12-C5-C6=107.16               H25-C5-O4=108.96               H25-C5-C6=109.27               H25-C5-O12=111.67              
C7-C6-C5=109.01                O11-C6-C5=111.36               O11-C6-C7=108.36               H26-C6-C5=107.86               
H26-C6-C7=109.46               H26-C6-O11=110.76              C8-C7-C6=109.46                O10-C7-C6=111.94               
O10-C7-C8=107.95               H27-C7-C6=108.38               H27-C7-C8=109.24               H27-C7-O10=109.85              
C7-C8-C3=109.62                O9-C8-C3=109.45                O9-C8-C7=110.83                H28-C8-C3=108.84               
H28-C8-C7=107.94               H28-C8-O9=110.12               H29-O9-C8=107.00               H30-O10-C7=107.48              

 selected dihedral angles (degree)
 ---------------------------------
C3-C2-O1-H21= 50.39           H22-C2-O1-H21=288.12          H23-C2-O1-H21=169.66          O4-C3-C2-O1=164.62            
O4-C3-C2-H22=288.39           O4-C3-C2-H23= 46.48           C8-C3-C2-O1=285.75            C8-C3-C2-H22= 49.52           
C8-C3-C2-H23=167.61           H24-C3-C2-O1= 45.44           H24-C3-C2-H22=169.20          H24-C3-C2-H23=287.29          
C5-O4-C3-C2=183.01            C5-O4-C3-C8= 60.88            C5-O4-C3-H24=301.39           C6-C5-O4-C3=298.71            
O12-C5-O4-C3=181.03           H25-C5-O4-C3= 59.00           C7-C6-C5-O4= 56.87            C7-C6-C5-O12=175.61           
C7-C6-C5-H25=296.77           O11-C6-C5-O4=176.38           O11-C6-C5-O12=295.11          O11-C6-C5-H25= 56.27          
H26-C6-C5-O4=298.10           H26-C6-C5-O12= 56.84          H26-C6-C5-H25=178.00          C8-C7-C6-C5=305.44            
C8-C7-C6-O11=184.09           C8-C7-C6-H26= 63.20           O10-C7-C6-C5=185.79           O10-C7-C6-O11= 64.44          
O10-C7-C6-H26=303.56          H27-C7-C6-C5= 64.49           H27-C7-C6-O11=303.14          H27-C7-C6-H26=182.26          
C7-C8-C3-C2=183.23            C7-C8-C3-O4=303.18            C7-C8-C3-H24= 63.50           O9-C8-C3-C2= 61.47            
O9-C8-C3-O4=181.42            O9-C8-C3-H24=301.74           H28-C8-C3-C2=301.08           H28-C8-C3-O4= 61.03           
H28-C8-C3-H24=181.35          C3-C8-C7-C6= 54.98            C3-C8-C7-O10=177.05           C3-C8-C7-H27=296.46           
O9-C8-C7-C6=175.91            O9-C8-C7-O10=297.97           O9-C8-C7-H27= 57.39           H28-C8-C7-C6=296.57           
H28-C8-C7-O10= 58.63          H28-C8-C7-H27=178.05          H29-O9-C8-C3=167.26           H29-O9-C8-C7= 46.23           
H29-O9-C8-H28=286.88          H30-O10-C7-C6=311.54          H30-O10-C7-C8=191.01          H30-O10-C7-H27= 71.98         
           -------------------------------------------------
          |                Final Singlepoint                |
           -------------------------------------------------

          ...................................................
          :                      SETUP                      :
          :.................................................:
          :  # basis functions                  98          :
          :  # atomic orbitals                  98          :
          :  # shells                           58          :
          :  # electrons                       112          :
          :  max. iterations                   250          :
          :  Hamiltonian                  GFN2-xTB          :
          :  restarted?                      false          :
          :  GBSA solvation                  false          :
          :  PC potential                    false          :
          :  electronic temp.          300.0000000     K    :
          :  accuracy                    1.0000000          :
          :  -> integral cutoff          0.2500000E+02      :
          :  -> integral neglect         0.1000000E-07      :
          :  -> SCF convergence          0.1000000E-05 Eh   :
          :  -> wf. convergence          0.1000000E-03 e    :
          :  Broyden damping             0.4000000          :
          :  net charge                          0          :
          :  unpaired electrons                  0          :
          ...................................................

 iter      E             dE          RMSdq      gap      omega  full diag
   1    -66.1225549 -0.661226E+02  0.101E-04    4.36       0.0  T
   2    -66.1225549 -0.500791E-10  0.628E-05    4.36     258.4  T
   3    -66.1225549 -0.204352E-10  0.398E-05    4.36     407.5  T

   *** convergence criteria satisfied after 3 iterations ***

         #    Occupation            Energy/Eh            Energy/eV
      -------------------------------------------------------------
         1        2.0000           -0.7462098             -20.3054
       ...           ...                  ...                  ...
        50        2.0000           -0.4346956             -11.8287
        51        2.0000           -0.4286433             -11.6640
        52        2.0000           -0.4263207             -11.6008
        53        2.0000           -0.4179218             -11.3722
        54        2.0000           -0.4152079             -11.2984
        55        2.0000           -0.4101806             -11.1616
        56        2.0000           -0.4008845             -10.9086 (HOMO)
        57                         -0.2405351              -6.5453 (LUMO)
        58                         -0.2389906              -6.5033
        59                         -0.1136676              -3.0931
        60                         -0.0476141              -1.2956
        61                         -0.0234413              -0.6379
       ...                                ...                  ...
        98                          0.6420206              17.4703
      -------------------------------------------------------------
                  HL-Gap            0.1603494 Eh            4.3633 eV
             Fermi-level           -0.3207098 Eh           -8.7270 eV

 SCC (total)                   0 d,  0 h,  0 min,  0.032 sec
 SCC setup                      ...        0 min,  0.000 sec (  0.797%)
 Dispersion                     ...        0 min,  0.000 sec (  0.770%)
 classical contributions        ...        0 min,  0.000 sec (  0.353%)
 integral evaluation            ...        0 min,  0.006 sec ( 19.405%)
 iterations                     ...        0 min,  0.005 sec ( 15.554%)
 molecular gradient             ...        0 min,  0.020 sec ( 62.683%)
 printout                       ...        0 min,  0.000 sec (  0.413%)

         :::::::::::::::::::::::::::::::::::::::::::::::::::::
         ::                     SUMMARY                     ::
         :::::::::::::::::::::::::::::::::::::::::::::::::::::
         :: total energy             -65.475720801403 Eh    ::
         :: gradient norm              0.000599561515 Eh/a0 ::
         :: HOMO-LUMO gap              4.363329691055 eV    ::
         ::.................................................::
         :: SCC energy               -66.122011777959 Eh    ::
         :: -> isotropic ES            0.152594184396 Eh    ::
         :: -> anisotropic ES         -0.009096822443 Eh    ::
         :: -> anisotropic XC         -0.002482207105 Eh    ::
         :: -> dispersion             -0.037222086475 Eh    ::
         :: repulsion energy           0.646290976556 Eh    ::
         :: add. restraining           0.000000000000 Eh    ::
         :: total charge              -0.000000000000 e     ::
         :::::::::::::::::::::::::::::::::::::::::::::::::::::

           -------------------------------------------------
          |                Property Printout                |
           -------------------------------------------------

    * Orbital Energies and Occupations

         #    Occupation            Energy/Eh            Energy/eV
      -------------------------------------------------------------
         1        2.0000           -0.7462098             -20.3054
       ...           ...                  ...                  ...
        44        2.0000           -0.4708785             -12.8133
        45        2.0000           -0.4619508             -12.5703
        46        2.0000           -0.4558858             -12.4053
        47        2.0000           -0.4517859             -12.2937
        48        2.0000           -0.4468879             -12.1604
        49        2.0000           -0.4403318             -11.9820
        50        2.0000           -0.4346956             -11.8287
        51        2.0000           -0.4286433             -11.6640
        52        2.0000           -0.4263207             -11.6008
        53        2.0000           -0.4179218             -11.3722
        54        2.0000           -0.4152079             -11.2984
        55        2.0000           -0.4101806             -11.1616
        56        2.0000           -0.4008845             -10.9086 (HOMO)
        57                         -0.2405351              -6.5453 (LUMO)
        58                         -0.2389906              -6.5033
        59                         -0.1136676              -3.0931
        60                         -0.0476141              -1.2956
        61                         -0.0234413              -0.6379
        62                         -0.0010408              -0.0283
        63                          0.0216074               0.5880
        64                          0.0347599               0.9459
        65                          0.0528600               1.4384
        66                          0.0672561               1.8301
        67                          0.0777457               2.1156
       ...                                ...                  ...
        98                          0.6420206              17.4703
      -------------------------------------------------------------
                  HL-Gap            0.1603494 Eh            4.3633 eV
             Fermi-level           -0.3207098 Eh           -8.7270 eV

     #   Z          covCN         q      C6AA      α(0)
     1   8 O        1.656    -0.432    21.485     6.257
     2   6 C        3.675     0.073    19.575     6.339
     3   6 C        3.751     0.095    19.073     6.228
     4   8 O        1.701    -0.352    19.931     6.028
     5   6 C        3.658     0.250    16.991     5.916
     6   6 C        3.728     0.088    19.210     6.257
     7   6 C        3.731     0.100    19.027     6.226
     8   6 C        3.729     0.097    19.070     6.234
     9   8 O        1.656    -0.444    21.714     6.290
    10   8 O        1.656    -0.444    21.713     6.290
    11   8 O        1.656    -0.442    21.690     6.287
    12   8 O        1.705    -0.313    19.216     5.918
    13   6 C        2.880     0.133    25.083     8.210
    14   6 C        2.917    -0.052    29.279     8.873
    15   6 C        2.921    -0.030    28.760     8.794
    16   6 C        2.918    -0.033    28.811     8.802
    17   6 C        2.926    -0.032    28.791     8.799
    18   6 C        2.964    -0.011    28.292     8.725
    19   6 C        3.679     0.082    19.414     6.311
    20   8 O        1.655    -0.446    21.762     6.297
    21   1 H        0.805     0.317     0.672     1.287
    22   1 H        0.923     0.038     2.476     2.461
    23   1 H        0.924     0.070     2.080     2.256
    24   1 H        0.923     0.041     2.437     2.441
    25   1 H        0.922     0.006     2.951     2.686
    26   1 H        0.923     0.042     2.421     2.433
    27   1 H        0.923     0.032     2.555     2.500
    28   1 H        0.923     0.038     2.474     2.460
    29   1 H        0.805     0.322     0.657     1.273
    30   1 H        0.805     0.317     0.672     1.288
    31   1 H        0.805     0.313     0.684     1.299
    32   1 H        0.926     0.042     2.422     2.434
    33   1 H        0.926     0.046     2.377     2.411
    34   1 H        0.926     0.047     2.362     2.403
    35   1 H        0.926     0.054     2.276     2.359
    36   1 H        0.923     0.030     2.585     2.514
    37   1 H        0.924     0.050     2.317     2.381
    38   1 H        0.804     0.306     0.704     1.318

 Mol. C6AA /au·bohr⁶  :      14028.841698
 Mol. C8AA /au·bohr⁸  :     316348.529390
 Mol. α(0) /au        :        177.289746


Wiberg/Mayer (AO) data.
largest (>0.10) Wiberg bond orders for each atom

 ---------------------------------------------------------------------------
     #   Z sym  total        # sym  WBO       # sym  WBO       # sym  WBO
 ---------------------------------------------------------------------------
     1   8 O    1.964 --     2 C    1.023    21 H    0.871
     2   6 C    3.962 --     1 O    1.023     3 C    0.973    23 H    0.967
                            22 H    0.965
     3   6 C    3.936 --     2 C    0.973     8 C    0.970     4 O    0.959
                            24 H    0.956
     4   8 O    2.078 --     3 C    0.959     5 C    0.950
     5   6 C    3.928 --    12 O    0.993     6 C    0.951     4 O    0.950
                            25 H    0.943
     6   6 C    3.960 --    11 O    1.000     7 C    0.971    26 H    0.956
                             5 C    0.951
     7   6 C    3.962 --    10 O    0.999     6 C    0.971     8 C    0.970
                            27 H    0.955
     8   6 C    3.961 --     9 O    1.000     7 C    0.970     3 C    0.970
                            28 H    0.955
     9   8 O    1.965 --     8 C    1.000    29 H    0.874
    10   8 O    1.958 --     7 C    0.999    30 H    0.881
    11   8 O    1.960 --     6 C    1.000    31 H    0.884
    12   8 O    2.130 --     5 C    0.993    13 C    0.960
    13   6 C    3.922 --    14 C    1.407    18 C    1.375    12 O    0.960
                            16 C    0.104
    14   6 C    3.990 --    15 C    1.440    13 C    1.407    32 H    0.967
                            17 C    0.109
    15   6 C    3.991 --    14 C    1.440    16 C    1.437    33 H    0.970
                            18 C    0.109
    16   6 C    3.991 --    17 C    1.443    15 C    1.437    34 H    0.970
                            13 C    0.104
    17   6 C    3.989 --    16 C    1.443    18 C    1.418    35 H    0.967
                            14 C    0.109
    18   6 C    3.986 --    17 C    1.418    13 C    1.375    19 C    0.993
                            15 C    0.109
    19   6 C    3.963 --    20 O    0.999    18 C    0.993    37 H    0.971
                            36 H    0.965
    20   8 O    1.959 --    19 C    0.999    38 H    0.872
    21   1 H    0.899 --     1 O    0.871
    22   1 H    0.999 --     2 C    0.965
    23   1 H    0.995 --     2 C    0.967
    24   1 H    0.998 --     3 C    0.956
    25   1 H    1.000 --     5 C    0.943
    26   1 H    0.998 --     6 C    0.956
    27   1 H    0.999 --     7 C    0.955
    28   1 H    0.999 --     8 C    0.955
    29   1 H    0.896 --     9 O    0.874
    30   1 H    0.899 --    10 O    0.881
    31   1 H    0.902 --    11 O    0.884
    32   1 H    0.998 --    14 C    0.967
    33   1 H    0.997 --    15 C    0.970
    34   1 H    0.997 --    16 C    0.970
    35   1 H    0.997 --    17 C    0.967
    36   1 H    0.999 --    19 C    0.965
    37   1 H    0.997 --    19 C    0.971
    38   1 H    0.906 --    20 O    0.872
 ---------------------------------------------------------------------------

Topologies differ in total number of bonds
Writing topology from bond orders to xtbtopo.mol

molecular dipole:
                 x           y           z       tot (Debye)
 q only:        0.153       0.673      -0.943
   full:        0.049       0.977      -1.618       4.805
molecular quadrupole (traceless):
                xx          xy          yy          xz          yz          zz
 q only:        9.199       6.042      -2.214       2.180       1.931      -6.984
  q+dip:        6.806       5.823       5.317       7.899       4.630     -12.123
   full:        7.944       6.284       1.524       5.243       3.868      -9.469

           -------------------------------------------------
          |                Geometry Summary                 |
           -------------------------------------------------

      molecular mass/u    :      286.2783346
   center of mass at/Å    :       -0.0655916      -0.0183980      -0.2404002
  moments of inertia/u·Å² :        0.9668116E+03   0.2280024E+04   0.2722699E+04
rotational constants/cm⁻¹ :        0.1743632E-01   0.7393621E-02   0.6191516E-02

 * 37 selected distances

     #   Z          #   Z                                           value/Å
     1   8 O        2   6 C                                       1.3958609
     2   6 C        3   6 C                                       1.5361271
     3   6 C        4   8 O                                       1.4130527
     4   8 O        5   6 C                                       1.4115366
     5   6 C        6   6 C                                       1.5359738
     6   6 C        7   6 C                                       1.5288315
     3   6 C        8   6 C                                       1.5370200 (max)
     7   6 C        8   6 C                                       1.5329478
     8   6 C        9   8 O                                       1.4047525
     7   6 C       10   8 O                                       1.4053438
     6   6 C       11   8 O                                       1.4042798
     5   6 C       12   8 O                                       1.3849443
    13   6 C       14   6 C                                       1.3870257
    14   6 C       15   6 C                                       1.3834193
    15   6 C       16   6 C                                       1.3839355
    16   6 C       17   6 C                                       1.3834677
    13   6 C       18   6 C                                       1.3943132
    17   6 C       18   6 C                                       1.3883092
    19   6 C       20   8 O                                       1.4087947
     1   8 O       21   1 H                                       0.9681146
     2   6 C       22   1 H                                       1.0996805
     2   6 C       23   1 H                                       1.0926753
     3   6 C       24   1 H                                       1.1019991
     5   6 C       25   1 H                                       1.1092977
     6   6 C       26   1 H                                       1.1011036
     7   6 C       27   1 H                                       1.1031161
     8   6 C       28   1 H                                       1.1025255
     9   8 O       29   1 H                                       0.9662154
    10   8 O       30   1 H                                       0.9648826 (min)
    11   8 O       31   1 H                                       0.9652437
    14   6 C       32   1 H                                       1.0805217
    15   6 C       33   1 H                                       1.0795250
    16   6 C       34   1 H                                       1.0794749
    17   6 C       35   1 H                                       1.0796726
    19   6 C       36   1 H                                       1.0994728
    19   6 C       37   1 H                                       1.0927640
    20   8 O       38   1 H                                       0.9684833

 * 4 distinct bonds (by element types)

   Z      Z             #   av. dist./Å        max./Å        min./Å
   1 H    6 C          13     1.0939868     1.1092977     1.0794749
   6 C    6 C          11     1.4537610     1.5370200     1.3834193
   1 H    8 O           5     0.9665879     0.9684833     0.9648826
   6 C    8 O           8     1.4035707     1.4130527     1.3849443


optimized geometry written to: xtbopt.xyz


           -------------------------------------------------
          | TOTAL ENERGY              -65.475720801403 Eh   |
          | GRADIENT NORM               0.000599561515 Eh/α |
          | HOMO-LUMO GAP               4.363329691055 eV   |
           -------------------------------------------------

------------------------------------------------------------------------
 * finished run on 2025/05/15 at 16:07:15.309     
------------------------------------------------------------------------
 total:
 * wall-time:     0 d,  0 h,  0 min,  0.544 sec
 *  cpu-time:     0 d,  0 h,  0 min,  0.537 sec
 * ratio c/w:     0.986 speedup
 SCF:
 * wall-time:     0 d,  0 h,  0 min,  0.048 sec
 *  cpu-time:     0 d,  0 h,  0 min,  0.048 sec
 * ratio c/w:     0.994 speedup
 ANC optimizer:
 * wall-time:     0 d,  0 h,  0 min,  0.483 sec
 *  cpu-time:     0 d,  0 h,  0 min,  0.477 sec
 * ratio c/w:     0.988 speedup



----- Single-point -----
      -----------------------------------------------------------      
     |                   =====================                   |     
     |                           x T B                           |     
     |                   =====================                   |     
     |                         S. Grimme                         |     
     |          Mulliken Center for Theoretical Chemistry        |     
     |                    University of Bonn                     |     
      -----------------------------------------------------------      

   * xtb version 6.7.1 (edcfbbe) compiled by 'conda@3ef47c1a292c' on 2024-11-25

   xtb is free software: you can redistribute it and/or modify it under
   the terms of the GNU Lesser General Public License as published by
   the Free Software Foundation, either version 3 of the License, or
   (at your option) any later version.
   
   xtb is distributed in the hope that it will be useful,
   but WITHOUT ANY WARRANTY; without even the implied warranty of
   MERCHANTABILITY or FITNESS FOR A PARTICULAR PURPOSE.  See the
   GNU Lesser General Public License for more details.
   
   Cite this work as:
   * C. Bannwarth, E. Caldeweyher, S. Ehlert, A. Hansen, P. Pracht,
     J. Seibert, S. Spicher, S. Grimme, WIREs Comput. Mol. Sci., 2020, 11,
     e01493. DOI: 10.1002/wcms.1493
   
   for GFN2-xTB:
   * C. Bannwarth, S. Ehlert and S. Grimme., J. Chem. Theory Comput., 2019,
     15, 1652-1671. DOI: 10.1021/acs.jctc.8b01176
   for GFN1-xTB:
   * S. Grimme, C. Bannwarth, P. Shushkov, J. Chem. Theory Comput., 2017,
     13, 1989-2009. DOI: 10.1021/acs.jctc.7b00118
   for GFN0-xTB:
   * P. Pracht, E. Caldeweyher, S. Ehlert, S. Grimme, ChemRxiv, 2019, preprint.
     DOI: 10.26434/chemrxiv.8326202.v1
   for GFN-FF:
   * S. Spicher and S. Grimme, Angew. Chem. Int. Ed., 2020, 59, 15665-15673.
     DOI: 10.1002/anie.202004239
   
   for ALPB and GBSA implicit solvation:
   * S. Ehlert, M. Stahn, S. Spicher, S. Grimme, J. Chem. Theory Comput.,
     2021, 17, 4250-4261. DOI: 10.1021/acs.jctc.1c00471
   
   for ddCOSMO and CPCM-X implicit solvation:
   * M. Stahn, S. Ehlert, S. Grimme, J. Phys. Chem. A,
     2023, XX, XXXX-XXXX. DOI: 10.1021/acs.jpca.3c04382
   
   for DFT-D4:
   * E. Caldeweyher, C. Bannwarth and S. Grimme, J. Chem. Phys., 2017,
     147, 034112. DOI: 10.1063/1.4993215
   * E. Caldeweyher, S. Ehlert, A. Hansen, H. Neugebauer, S. Spicher,
     C. Bannwarth and S. Grimme, J. Chem. Phys., 2019, 150, 154122.
     DOI: 10.1063/1.5090222
   * E. Caldeweyher, J.-M. Mewes, S. Ehlert and S. Grimme, Phys. Chem. Chem. Phys.
     2020, 22, 8499-8512. DOI: 10.1039/D0CP00502A
   
   for sTDA-xTB:
   * S. Grimme and C. Bannwarth, J. Chem. Phys., 2016, 145, 054103.
     DOI: 10.1063/1.4959605
   
   in the mass-spec context:
   * V. Asgeirsson, C. Bauer and S. Grimme, Chem. Sci., 2017, 8, 4879.
     DOI: 10.1039/c7sc00601b
   * J. Koopman and S. Grimme, ACS Omega 2019, 4, 12, 15120-15133.
     DOI: 10.1021/acsomega.9b02011
   
   for metadynamics refer to:
   * S. Grimme, J. Chem. Theory Comput., 2019, 155, 2847-2862
     DOI: 10.1021/acs.jctc.9b00143
   
   for SPH calculations refer to:
   * S. Spicher and S. Grimme, J. Chem. Theory Comput., 2021, 17, 1701-1714
     DOI: 10.1021/acs.jctc.0c01306
   
   for ONIOM refer to:
   * C. Plett, A. Katbashev, S. Ehlert, S. Grimme, M. Bursch,
     Phys. Chem. Chem. Phys., 2023, 25, 17860-17868. DOI: 10.1039/D3CP02178E
   
   for DIPRO refer to:
   * J. Kohn, N. Gildemeister, S. Grimme, D. Fazzi, A. Hansen,
     J. Chem. Phys., 2023, just accepted.
   
   for PTB refer to:
   * S. Grimme, M. Mueller, A. Hansen, J. Chem. Phys., 2023, 158, 124111.
     DOI: 10.1063/5.0137838
   
   with help from (in alphabetical order)
   P. Atkinson, C. Bannwarth, F. Bohle, G. Brandenburg, E. Caldeweyher
   M. Checinski, S. Dohm, S. Ehlert, S. Ehrlich, I. Gerasimov, C. Hölzer
   A. Katbashev, J. Kohn, J. Koopman, C. Lavigne, S. Lehtola, F. März, M. Müller,
   F. Musil, H. Neugebauer, J. Pisarek, C. Plett, P. Pracht, F. Pultar,
   J. Seibert, P. Shushkov, S. Spicher, M. Stahn, M. Steiner, T. Strunk,
   J. Stückrath, T. Rose, and J. Unsleber
   
 * started run on 2025/05/15 at 16:07:15.326     
   ID    Z sym.   atoms
    1    8 O      1, 4, 9-12, 20
    2    6 C      2, 3, 5-8, 13-19
    3    1 H      21-38

           -------------------------------------------------
          |                Calculation Setup                |
           -------------------------------------------------

          program call               : xtb /rds/general/user/hgt20/home/callum/QDESCP/Salicin_rdkit_conf_14/Salicin_rdkit_conf_14.xyz --acc 1 --gfn 2 --chrg 0 --uhf 0 --etemp 300 --input /rds/general/user/hgt20/home/callum/QDESCP/Salicin_rdkit_conf_14/Salicin_rdkit_conf_14_xtb.inp -P 1
          hostname                   : login-c
          coordinate file            : /rds/general/user/hgt20/home/callum/QDESCP/Salicin_rdkit_conf_14/Salicin_rdkit_conf_14.xyz
          omp threads                :                     1


           -------------------------------------------------
          |                 G F N 2 - x T B                 |
           -------------------------------------------------

        Reference                      10.1021/acs.jctc.8b01176
      * Hamiltonian:
        H0-scaling (s, p, d)           1.850000    2.230000    2.230000
        zeta-weighting                 0.500000
      * Dispersion:
        s8                             2.700000
        a1                             0.520000
        a2                             5.000000
        s9                             5.000000
      * Repulsion:
        kExp                           1.500000    1.000000
        rExp                           1.000000
      * Coulomb:
        alpha                          2.000000
        third order                    shell-resolved
        anisotropic                    true
        a3                             3.000000
        a5                             4.000000
        cn-shift                       1.200000
        cn-exp                         4.000000
        max-rad                        5.000000

q/qsh data taken from xtbrestart
CAMM data taken from xtbrestart

          ...................................................
          :                      SETUP                      :
          :.................................................:
          :  # basis functions                  98          :
          :  # atomic orbitals                  98          :
          :  # shells                           58          :
          :  # electrons                       112          :
          :  max. iterations                   250          :
          :  Hamiltonian                  GFN2-xTB          :
          :  restarted?                       true          :
          :  GBSA solvation                  false          :
          :  PC potential                    false          :
          :  electronic temp.          300.0000000     K    :
          :  accuracy                    1.0000000          :
          :  -> integral cutoff          0.2500000E+02      :
          :  -> integral neglect         0.1000000E-07      :
          :  -> SCF convergence          0.1000000E-05 Eh   :
          :  -> wf. convergence          0.1000000E-03 e    :
          :  Broyden damping             0.4000000          :
          :  net charge                          0          :
          :  unpaired electrons                  0          :
          ...................................................

 iter      E             dE          RMSdq      gap      omega  full diag
   1    -66.1225549 -0.661226E+02  0.611E-06    4.36       0.0  T
   2    -66.1225549 -0.667910E-12  0.358E-06    4.36    4537.6  T
   3    -66.1225549  0.852651E-13  0.215E-06    4.36    7558.3  T

   *** convergence criteria satisfied after 3 iterations ***

         #    Occupation            Energy/Eh            Energy/eV
      -------------------------------------------------------------
         1        2.0000           -0.7462099             -20.3054
       ...           ...                  ...                  ...
        50        2.0000           -0.4346956             -11.8287
        51        2.0000           -0.4286433             -11.6640
        52        2.0000           -0.4263208             -11.6008
        53        2.0000           -0.4179217             -11.3722
        54        2.0000           -0.4152079             -11.2984
        55        2.0000           -0.4101806             -11.1616
        56        2.0000           -0.4008844             -10.9086 (HOMO)
        57                         -0.2405350              -6.5453 (LUMO)
        58                         -0.2389906              -6.5033
        59                         -0.1136675              -3.0931
        60                         -0.0476141              -1.2956
        61                         -0.0234414              -0.6379
       ...                                ...                  ...
        98                          0.6420207              17.4703
      -------------------------------------------------------------
                  HL-Gap            0.1603494 Eh            4.3633 eV
             Fermi-level           -0.3207097 Eh           -8.7270 eV

 SCC (total)                   0 d,  0 h,  0 min,  0.033 sec
 SCC setup                      ...        0 min,  0.000 sec (  1.001%)
 Dispersion                     ...        0 min,  0.000 sec (  1.146%)
 classical contributions        ...        0 min,  0.000 sec (  0.366%)
 integral evaluation            ...        0 min,  0.007 sec ( 19.993%)
 iterations                     ...        0 min,  0.006 sec ( 19.447%)
 molecular gradient             ...        0 min,  0.019 sec ( 57.475%)
 printout                       ...        0 min,  0.000 sec (  0.549%)

         :::::::::::::::::::::::::::::::::::::::::::::::::::::
         ::                     SUMMARY                     ::
         :::::::::::::::::::::::::::::::::::::::::::::::::::::
         :: total energy             -65.475720801414 Eh    ::
         :: gradient norm              0.000599667333 Eh/a0 ::
         :: HOMO-LUMO gap              4.363329654341 eV    ::
         ::.................................................::
         :: SCC energy               -66.122011777970 Eh    ::
         :: -> isotropic ES            0.152594061671 Eh    ::
         :: -> anisotropic ES         -0.009096863268 Eh    ::
         :: -> anisotropic XC         -0.002482201207 Eh    ::
         :: -> dispersion             -0.037222086408 Eh    ::
         :: repulsion energy           0.646290976556 Eh    ::
         :: add. restraining           0.000000000000 Eh    ::
         :: total charge              -0.000000000000 e     ::
         :::::::::::::::::::::::::::::::::::::::::::::::::::::

           -------------------------------------------------
          |                Property Printout                |
           -------------------------------------------------

    * Orbital Energies and Occupations

         #    Occupation            Energy/Eh            Energy/eV
      -------------------------------------------------------------
         1        2.0000           -0.7462099             -20.3054
       ...           ...                  ...                  ...
        44        2.0000           -0.4708785             -12.8133
        45        2.0000           -0.4619508             -12.5703
        46        2.0000           -0.4558858             -12.4053
        47        2.0000           -0.4517858             -12.2937
        48        2.0000           -0.4468879             -12.1604
        49        2.0000           -0.4403317             -11.9820
        50        2.0000           -0.4346956             -11.8287
        51        2.0000           -0.4286433             -11.6640
        52        2.0000           -0.4263208             -11.6008
        53        2.0000           -0.4179217             -11.3722
        54        2.0000           -0.4152079             -11.2984
        55        2.0000           -0.4101806             -11.1616
        56        2.0000           -0.4008844             -10.9086 (HOMO)
        57                         -0.2405350              -6.5453 (LUMO)
        58                         -0.2389906              -6.5033
        59                         -0.1136675              -3.0931
        60                         -0.0476141              -1.2956
        61                         -0.0234414              -0.6379
        62                         -0.0010408              -0.0283
        63                          0.0216074               0.5880
        64                          0.0347599               0.9459
        65                          0.0528600               1.4384
        66                          0.0672561               1.8301
        67                          0.0777457               2.1156
       ...                                ...                  ...
        98                          0.6420207              17.4703
      -------------------------------------------------------------
                  HL-Gap            0.1603494 Eh            4.3633 eV
             Fermi-level           -0.3207097 Eh           -8.7270 eV

     #   Z          covCN         q      C6AA      α(0)
     1   8 O        1.656    -0.432    21.485     6.257
     2   6 C        3.675     0.073    19.575     6.339
     3   6 C        3.751     0.095    19.073     6.228
     4   8 O        1.701    -0.352    19.931     6.028
     5   6 C        3.658     0.250    16.991     5.916
     6   6 C        3.728     0.088    19.210     6.257
     7   6 C        3.731     0.100    19.027     6.226
     8   6 C        3.729     0.097    19.070     6.234
     9   8 O        1.656    -0.444    21.714     6.290
    10   8 O        1.656    -0.444    21.713     6.290
    11   8 O        1.656    -0.442    21.690     6.287
    12   8 O        1.705    -0.313    19.216     5.918
    13   6 C        2.880     0.133    25.083     8.210
    14   6 C        2.917    -0.052    29.279     8.873
    15   6 C        2.921    -0.030    28.760     8.794
    16   6 C        2.918    -0.033    28.811     8.802
    17   6 C        2.926    -0.032    28.791     8.799
    18   6 C        2.964    -0.011    28.292     8.725
    19   6 C        3.679     0.082    19.414     6.311
    20   8 O        1.655    -0.446    21.762     6.297
    21   1 H        0.805     0.317     0.672     1.287
    22   1 H        0.923     0.038     2.476     2.461
    23   1 H        0.924     0.070     2.080     2.256
    24   1 H        0.923     0.041     2.437     2.441
    25   1 H        0.922     0.006     2.951     2.686
    26   1 H        0.923     0.042     2.421     2.433
    27   1 H        0.923     0.032     2.555     2.500
    28   1 H        0.923     0.038     2.474     2.460
    29   1 H        0.805     0.322     0.657     1.273
    30   1 H        0.805     0.317     0.672     1.288
    31   1 H        0.805     0.313     0.684     1.299
    32   1 H        0.926     0.042     2.422     2.434
    33   1 H        0.926     0.046     2.377     2.411
    34   1 H        0.926     0.047     2.362     2.403
    35   1 H        0.926     0.054     2.276     2.359
    36   1 H        0.923     0.030     2.585     2.514
    37   1 H        0.924     0.050     2.317     2.381
    38   1 H        0.804     0.306     0.704     1.318

 Mol. C6AA /au·bohr⁶  :      14028.841673
 Mol. C8AA /au·bohr⁸  :     316348.528041
 Mol. α(0) /au        :        177.289746


Wiberg/Mayer (AO) data.
largest (>0.10) Wiberg bond orders for each atom

 ---------------------------------------------------------------------------
     #   Z sym  total        # sym  WBO       # sym  WBO       # sym  WBO
 ---------------------------------------------------------------------------
     1   8 O    1.964 --     2 C    1.023    21 H    0.871
     2   6 C    3.962 --     1 O    1.023     3 C    0.973    23 H    0.967
                            22 H    0.965
     3   6 C    3.936 --     2 C    0.973     8 C    0.970     4 O    0.959
                            24 H    0.956
     4   8 O    2.078 --     3 C    0.959     5 C    0.950
     5   6 C    3.928 --    12 O    0.993     6 C    0.951     4 O    0.950
                            25 H    0.943
     6   6 C    3.960 --    11 O    1.000     7 C    0.971    26 H    0.956
                             5 C    0.951
     7   6 C    3.962 --    10 O    0.999     6 C    0.971     8 C    0.970
                            27 H    0.955
     8   6 C    3.961 --     9 O    1.000     7 C    0.970     3 C    0.970
                            28 H    0.955
     9   8 O    1.965 --     8 C    1.000    29 H    0.874
    10   8 O    1.958 --     7 C    0.999    30 H    0.881
    11   8 O    1.960 --     6 C    1.000    31 H    0.884
    12   8 O    2.130 --     5 C    0.993    13 C    0.960
    13   6 C    3.922 --    14 C    1.407    18 C    1.375    12 O    0.960
                            16 C    0.104
    14   6 C    3.990 --    15 C    1.440    13 C    1.407    32 H    0.967
                            17 C    0.109
    15   6 C    3.991 --    14 C    1.440    16 C    1.437    33 H    0.970
                            18 C    0.109
    16   6 C    3.991 --    17 C    1.443    15 C    1.437    34 H    0.970
                            13 C    0.104
    17   6 C    3.989 --    16 C    1.443    18 C    1.418    35 H    0.967
                            14 C    0.109
    18   6 C    3.986 --    17 C    1.418    13 C    1.375    19 C    0.993
                            15 C    0.109
    19   6 C    3.963 --    20 O    0.999    18 C    0.993    37 H    0.971
                            36 H    0.965
    20   8 O    1.959 --    19 C    0.999    38 H    0.872
    21   1 H    0.899 --     1 O    0.871
    22   1 H    0.999 --     2 C    0.965
    23   1 H    0.995 --     2 C    0.967
    24   1 H    0.998 --     3 C    0.956
    25   1 H    1.000 --     5 C    0.943
    26   1 H    0.998 --     6 C    0.956
    27   1 H    0.999 --     7 C    0.955
    28   1 H    0.999 --     8 C    0.955
    29   1 H    0.896 --     9 O    0.874
    30   1 H    0.899 --    10 O    0.881
    31   1 H    0.902 --    11 O    0.884
    32   1 H    0.998 --    14 C    0.967
    33   1 H    0.997 --    15 C    0.970
    34   1 H    0.997 --    16 C    0.970
    35   1 H    0.997 --    17 C    0.967
    36   1 H    0.999 --    19 C    0.965
    37   1 H    0.997 --    19 C    0.971
    38   1 H    0.906 --    20 O    0.872
 ---------------------------------------------------------------------------

Topologies differ in total number of bonds
Writing topology from bond orders to xtbtopo.mol

molecular dipole:
                 x           y           z       tot (Debye)
 q only:        0.153       0.673      -0.943
   full:        0.049       0.977      -1.618       4.805
molecular quadrupole (traceless):
                xx          xy          yy          xz          yz          zz
 q only:        9.199       6.042      -2.214       2.180       1.931      -6.984
  q+dip:        6.806       5.823       5.318       7.899       4.630     -12.123
   full:        7.944       6.284       1.524       5.243       3.868      -9.469


           -------------------------------------------------
          | TOTAL ENERGY              -65.475720801414 Eh   |
          | GRADIENT NORM               0.000599667333 Eh/α |
          | HOMO-LUMO GAP               4.363329654341 eV   |
           -------------------------------------------------

------------------------------------------------------------------------
 * finished run on 2025/05/15 at 16:07:15.371     
------------------------------------------------------------------------
 total:
 * wall-time:     0 d,  0 h,  0 min,  0.045 sec
 *  cpu-time:     0 d,  0 h,  0 min,  0.044 sec
 * ratio c/w:     0.974 speedup
 SCF:
 * wall-time:     0 d,  0 h,  0 min,  0.033 sec
 *  cpu-time:     0 d,  0 h,  0 min,  0.033 sec
 * ratio c/w:     0.995 speedup



----- FOD -----
      -----------------------------------------------------------      
     |                   =====================                   |     
     |                           x T B                           |     
     |                   =====================                   |     
     |                         S. Grimme                         |     
     |          Mulliken Center for Theoretical Chemistry        |     
     |                    University of Bonn                     |     
      -----------------------------------------------------------      

   * xtb version 6.7.1 (edcfbbe) compiled by 'conda@3ef47c1a292c' on 2024-11-25

   xtb is free software: you can redistribute it and/or modify it under
   the terms of the GNU Lesser General Public License as published by
   the Free Software Foundation, either version 3 of the License, or
   (at your option) any later version.
   
   xtb is distributed in the hope that it will be useful,
   but WITHOUT ANY WARRANTY; without even the implied warranty of
   MERCHANTABILITY or FITNESS FOR A PARTICULAR PURPOSE.  See the
   GNU Lesser General Public License for more details.
   
   Cite this work as:
   * C. Bannwarth, E. Caldeweyher, S. Ehlert, A. Hansen, P. Pracht,
     J. Seibert, S. Spicher, S. Grimme, WIREs Comput. Mol. Sci., 2020, 11,
     e01493. DOI: 10.1002/wcms.1493
   
   for GFN2-xTB:
   * C. Bannwarth, S. Ehlert and S. Grimme., J. Chem. Theory Comput., 2019,
     15, 1652-1671. DOI: 10.1021/acs.jctc.8b01176
   for GFN1-xTB:
   * S. Grimme, C. Bannwarth, P. Shushkov, J. Chem. Theory Comput., 2017,
     13, 1989-2009. DOI: 10.1021/acs.jctc.7b00118
   for GFN0-xTB:
   * P. Pracht, E. Caldeweyher, S. Ehlert, S. Grimme, ChemRxiv, 2019, preprint.
     DOI: 10.26434/chemrxiv.8326202.v1
   for GFN-FF:
   * S. Spicher and S. Grimme, Angew. Chem. Int. Ed., 2020, 59, 15665-15673.
     DOI: 10.1002/anie.202004239
   
   for ALPB and GBSA implicit solvation:
   * S. Ehlert, M. Stahn, S. Spicher, S. Grimme, J. Chem. Theory Comput.,
     2021, 17, 4250-4261. DOI: 10.1021/acs.jctc.1c00471
   
   for ddCOSMO and CPCM-X implicit solvation:
   * M. Stahn, S. Ehlert, S. Grimme, J. Phys. Chem. A,
     2023, XX, XXXX-XXXX. DOI: 10.1021/acs.jpca.3c04382
   
   for DFT-D4:
   * E. Caldeweyher, C. Bannwarth and S. Grimme, J. Chem. Phys., 2017,
     147, 034112. DOI: 10.1063/1.4993215
   * E. Caldeweyher, S. Ehlert, A. Hansen, H. Neugebauer, S. Spicher,
     C. Bannwarth and S. Grimme, J. Chem. Phys., 2019, 150, 154122.
     DOI: 10.1063/1.5090222
   * E. Caldeweyher, J.-M. Mewes, S. Ehlert and S. Grimme, Phys. Chem. Chem. Phys.
     2020, 22, 8499-8512. DOI: 10.1039/D0CP00502A
   
   for sTDA-xTB:
   * S. Grimme and C. Bannwarth, J. Chem. Phys., 2016, 145, 054103.
     DOI: 10.1063/1.4959605
   
   in the mass-spec context:
   * V. Asgeirsson, C. Bauer and S. Grimme, Chem. Sci., 2017, 8, 4879.
     DOI: 10.1039/c7sc00601b
   * J. Koopman and S. Grimme, ACS Omega 2019, 4, 12, 15120-15133.
     DOI: 10.1021/acsomega.9b02011
   
   for metadynamics refer to:
   * S. Grimme, J. Chem. Theory Comput., 2019, 155, 2847-2862
     DOI: 10.1021/acs.jctc.9b00143
   
   for SPH calculations refer to:
   * S. Spicher and S. Grimme, J. Chem. Theory Comput., 2021, 17, 1701-1714
     DOI: 10.1021/acs.jctc.0c01306
   
   for ONIOM refer to:
   * C. Plett, A. Katbashev, S. Ehlert, S. Grimme, M. Bursch,
     Phys. Chem. Chem. Phys., 2023, 25, 17860-17868. DOI: 10.1039/D3CP02178E
   
   for DIPRO refer to:
   * J. Kohn, N. Gildemeister, S. Grimme, D. Fazzi, A. Hansen,
     J. Chem. Phys., 2023, just accepted.
   
   for PTB refer to:
   * S. Grimme, M. Mueller, A. Hansen, J. Chem. Phys., 2023, 158, 124111.
     DOI: 10.1063/5.0137838
   
   with help from (in alphabetical order)
   P. Atkinson, C. Bannwarth, F. Bohle, G. Brandenburg, E. Caldeweyher
   M. Checinski, S. Dohm, S. Ehlert, S. Ehrlich, I. Gerasimov, C. Hölzer
   A. Katbashev, J. Kohn, J. Koopman, C. Lavigne, S. Lehtola, F. März, M. Müller,
   F. Musil, H. Neugebauer, J. Pisarek, C. Plett, P. Pracht, F. Pultar,
   J. Seibert, P. Shushkov, S. Spicher, M. Stahn, M. Steiner, T. Strunk,
   J. Stückrath, T. Rose, and J. Unsleber
   
 * started run on 2025/05/15 at 16:07:15.851     
   ID    Z sym.   atoms
    1    8 O      1, 4, 9-12, 20
    2    6 C      2, 3, 5-8, 13-19
    3    1 H      21-38

           -------------------------------------------------
          |                Calculation Setup                |
           -------------------------------------------------

          program call               : xtb /rds/general/user/hgt20/home/callum/QDESCP/Salicin_rdkit_conf_14/Salicin_rdkit_conf_14.xyz --fod --gfn 2 --chrg 0 --acc 1 --uhf 0 --etemp 300 -P 1
          hostname                   : login-c
          coordinate file            : /rds/general/user/hgt20/home/callum/QDESCP/Salicin_rdkit_conf_14/Salicin_rdkit_conf_14.xyz
          omp threads                :                     1


           -------------------------------------------------
          |                 G F N 2 - x T B                 |
           -------------------------------------------------

        Reference                      10.1021/acs.jctc.8b01176
      * Hamiltonian:
        H0-scaling (s, p, d)           1.850000    2.230000    2.230000
        zeta-weighting                 0.500000
      * Dispersion:
        s8                             2.700000
        a1                             0.520000
        a2                             5.000000
        s9                             5.000000
      * Repulsion:
        kExp                           1.500000    1.000000
        rExp                           1.000000
      * Coulomb:
        alpha                          2.000000
        third order                    shell-resolved
        anisotropic                    true
[...]
     J. Seibert, S. Spicher, S. Grimme, WIREs Comput. Mol. Sci., 2020, 11,
     e01493. DOI: 10.1002/wcms.1493
   
   for GFN2-xTB:
   * C. Bannwarth, S. Ehlert and S. Grimme., J. Chem. Theory Comput., 2019,
     15, 1652-1671. DOI: 10.1021/acs.jctc.8b01176
   for GFN1-xTB:
   * S. Grimme, C. Bannwarth, P. Shushkov, J. Chem. Theory Comput., 2017,
     13, 1989-2009. DOI: 10.1021/acs.jctc.7b00118
   for GFN0-xTB:
   * P. Pracht, E. Caldeweyher, S. Ehlert, S. Grimme, ChemRxiv, 2019, preprint.
     DOI: 10.26434/chemrxiv.8326202.v1
   for GFN-FF:
   * S. Spicher and S. Grimme, Angew. Chem. Int. Ed., 2020, 59, 15665-15673.
     DOI: 10.1002/anie.202004239
   
   for ALPB and GBSA implicit solvation:
   * S. Ehlert, M. Stahn, S. Spicher, S. Grimme, J. Chem. Theory Comput.,
     2021, 17, 4250-4261. DOI: 10.1021/acs.jctc.1c00471
   
   for ddCOSMO and CPCM-X implicit solvation:
   * M. Stahn, S. Ehlert, S. Grimme, J. Phys. Chem. A,
     2023, XX, XXXX-XXXX. DOI: 10.1021/acs.jpca.3c04382
   
   for DFT-D4:
   * E. Caldeweyher, C. Bannwarth and S. Grimme, J. Chem. Phys., 2017,
     147, 034112. DOI: 10.1063/1.4993215
   * E. Caldeweyher, S. Ehlert, A. Hansen, H. Neugebauer, S. Spicher,
     C. Bannwarth and S. Grimme, J. Chem. Phys., 2019, 150, 154122.
     DOI: 10.1063/1.5090222
   * E. Caldeweyher, J.-M. Mewes, S. Ehlert and S. Grimme, Phys. Chem. Chem. Phys.
     2020, 22, 8499-8512. DOI: 10.1039/D0CP00502A
   
   for sTDA-xTB:
   * S. Grimme and C. Bannwarth, J. Chem. Phys., 2016, 145, 054103.
     DOI: 10.1063/1.4959605
   
   in the mass-spec context:
   * V. Asgeirsson, C. Bauer and S. Grimme, Chem. Sci., 2017, 8, 4879.
     DOI: 10.1039/c7sc00601b
   * J. Koopman and S. Grimme, ACS Omega 2019, 4, 12, 15120-15133.
     DOI: 10.1021/acsomega.9b02011
   
   for metadynamics refer to:
   * S. Grimme, J. Chem. Theory Comput., 2019, 155, 2847-2862
     DOI: 10.1021/acs.jctc.9b00143
   
   for SPH calculations refer to:
   * S. Spicher and S. Grimme, J. Chem. Theory Comput., 2021, 17, 1701-1714
     DOI: 10.1021/acs.jctc.0c01306
   
   for ONIOM refer to:
   * C. Plett, A. Katbashev, S. Ehlert, S. Grimme, M. Bursch,
     Phys. Chem. Chem. Phys., 2023, 25, 17860-17868. DOI: 10.1039/D3CP02178E
   
   for DIPRO refer to:
   * J. Kohn, N. Gildemeister, S. Grimme, D. Fazzi, A. Hansen,
     J. Chem. Phys., 2023, just accepted.
   
   for PTB refer to:
   * S. Grimme, M. Mueller, A. Hansen, J. Chem. Phys., 2023, 158, 124111.
     DOI: 10.1063/5.0137838
   
   with help from (in alphabetical order)
   P. Atkinson, C. Bannwarth, F. Bohle, G. Brandenburg, E. Caldeweyher
   M. Checinski, S. Dohm, S. Ehlert, S. Ehrlich, I. Gerasimov, C. Hölzer
   A. Katbashev, J. Kohn, J. Koopman, C. Lavigne, S. Lehtola, F. März, M. Müller,
   F. Musil, H. Neugebauer, J. Pisarek, C. Plett, P. Pracht, F. Pultar,
   J. Seibert, P. Shushkov, S. Spicher, M. Stahn, M. Steiner, T. Strunk,
   J. Stückrath, T. Rose, and J. Unsleber
   
 * started run on 2025/05/15 at 16:07:16.617     
   ID    Z sym.   atoms
    1    8 O      1, 4, 9-12, 20
    2    6 C      2, 3, 5-8, 13-19
    3    1 H      21-38

           -------------------------------------------------
          |                Calculation Setup                |
           -------------------------------------------------

          program call               : xtb /rds/general/user/hgt20/home/callum/QDESCP/Salicin_rdkit_conf_14/Salicin_rdkit_conf_14.xyz --acc 1 --gfn 2 --chrg 0 --uhf 2 --etemp 300 --input /rds/general/user/hgt20/home/callum/QDESCP/Salicin_rdkit_conf_14/Salicin_rdkit_conf_14_xtb.inp -P 1
          hostname                   : login-c
          coordinate file            : /rds/general/user/hgt20/home/callum/QDESCP/Salicin_rdkit_conf_14/Salicin_rdkit_conf_14.xyz
          omp threads                :                     1


           -------------------------------------------------
          |                 G F N 2 - x T B                 |
           -------------------------------------------------

        Reference                      10.1021/acs.jctc.8b01176
      * Hamiltonian:
        H0-scaling (s, p, d)           1.850000    2.230000    2.230000
        zeta-weighting                 0.500000
      * Dispersion:
        s8                             2.700000
        a1                             0.520000
        a2                             5.000000
        s9                             5.000000
      * Repulsion:
        kExp                           1.500000    1.000000
        rExp                           1.000000
      * Coulomb:
        alpha                          2.000000
        third order                    shell-resolved
        anisotropic                    true
        a3                             3.000000
        a5                             4.000000
        cn-shift                       1.200000
        cn-exp                         4.000000
        max-rad                        5.000000


          ...................................................
          :                      SETUP                      :
          :.................................................:
          :  # basis functions                  98          :
          :  # atomic orbitals                  98          :
          :  # shells                           58          :
          :  # electrons                       112          :
          :  max. iterations                   250          :
          :  Hamiltonian                  GFN2-xTB          :
          :  restarted?                      false          :
          :  GBSA solvation                  false          :
          :  PC potential                    false          :
          :  electronic temp.          300.0000000     K    :
          :  accuracy                    1.0000000          :
          :  -> integral cutoff          0.2500000E+02      :
          :  -> integral neglect         0.1000000E-07      :
          :  -> SCF convergence          0.1000000E-05 Eh   :
          :  -> wf. convergence          0.1000000E-03 e    :
          :  Broyden damping             0.4000000          :
          :  net charge                          0          :
          :  unpaired electrons                  2          :
          ...................................................

 iter      E             dE          RMSdq      gap      omega  full diag
   1    -65.8427072 -0.658427E+02  0.450E+00    0.19       0.0  T
   2    -65.7869758  0.557314E-01  0.358E+00    0.72       1.0  T
   3    -65.8288085 -0.418327E-01  0.259E+00    0.69       1.0  T
   4    -65.8215894  0.721906E-02  0.146E+00    0.07       1.0  T
   5    -65.9334557 -0.111866E+00  0.867E-01    0.06       1.0  T
   6    -65.9470312 -0.135755E-01  0.498E-01    0.06       1.0  T
   7    -65.9426023  0.442889E-02  0.567E-01    0.10       1.0  T
   8    -65.9489035 -0.630114E-02  0.329E-01    0.04       1.0  T
   9    -65.9520189 -0.311540E-02  0.147E-01    0.05       1.0  T
  10    -65.9515965  0.422369E-03  0.173E-01    0.06       1.0  T
  11    -65.9522925 -0.696036E-03  0.103E-01    0.05       1.0  T
  12    -65.9525242 -0.231683E-03  0.310E-02    0.05       1.0  T
  13    -65.9525660 -0.418128E-04  0.142E-02    0.05       1.1  T
  14    -65.9525695 -0.350308E-05  0.799E-03    0.05       2.0  T
  15    -65.9525709 -0.141081E-05  0.494E-03    0.05       3.3  T
  16    -65.9525722 -0.123872E-05  0.105E-03    0.05      15.4  T
  17    -65.9525722  0.973357E-08  0.984E-04    0.05      16.5  T
  18    -65.9525722 -0.445686E-07  0.143E-04    0.05     113.7  T

   *** convergence criteria satisfied after 18 iterations ***

         #    Occupation            Energy/Eh            Energy/eV
      -------------------------------------------------------------
         1        2.0000           -0.7513009             -20.4439
       ...           ...                  ...                  ...
        51        2.0000           -0.4303605             -11.7107
        52        2.0000           -0.4258725             -11.5886
        53        2.0000           -0.4191315             -11.4051
        54        1.9853           -0.4085590             -11.1175
        55        1.8245           -0.4060327             -11.0487
        56        1.1901           -0.4031858             -10.9712
        57        0.7343           -0.2303820              -6.2690 (HOMO)
        58        0.2657           -0.2284502              -6.2164 (LUMO)
        59                         -0.1034187              -2.8142
        60                         -0.0517993              -1.4095
        61                         -0.0256408              -0.6977
        62                         -0.0046475              -0.1265
       ...                                ...                  ...
        98                          0.6518862              17.7387
      -------------------------------------------------------------
                  HL-Gap            0.0019319 Eh            0.0526 eV
             Fermi-level           -0.3169893 Eh           -8.6257 eV

 transition dipole moment (au) for excitation:          56          57
     X       Y       Z   
   1.0322  -0.5625   0.5430  total (au/Debye):    1.295   3.291
 dE (eV)             :    4.702
 oscillator strength :  0.27317E+00

 SCC (total)                   0 d,  0 h,  0 min,  0.080 sec
 SCC setup                      ...        0 min,  0.000 sec (  0.365%)
 Dispersion                     ...        0 min,  0.000 sec (  0.458%)
 classical contributions        ...        0 min,  0.000 sec (  0.148%)
 integral evaluation            ...        0 min,  0.007 sec (  8.159%)
 iterations                     ...        0 min,  0.031 sec ( 38.332%)
 molecular gradient             ...        0 min,  0.036 sec ( 44.650%)
 printout                       ...        0 min,  0.006 sec (  7.878%)

         :::::::::::::::::::::::::::::::::::::::::::::::::::::
         ::                     SUMMARY                     ::
         :::::::::::::::::::::::::::::::::::::::::::::::::::::
         :: total energy             -65.305738086045 Eh    ::
         :: gradient norm              0.117786512533 Eh/a0 ::
         :: HOMO-LUMO gap              0.052568656663 eV    ::
         ::.................................................::
         :: SCC energy               -65.952029062601 Eh    ::
         :: -> isotropic ES            0.147529439763 Eh    ::
         :: -> anisotropic ES         -0.007891524359 Eh    ::
         :: -> anisotropic XC         -0.003039409297 Eh    ::
         :: -> dispersion             -0.037190861142 Eh    ::
         :: repulsion energy           0.646290976556 Eh    ::
         :: add. restraining           0.000000000000 Eh    ::
         :: total charge               0.000000000018 e     ::
         :::::::::::::::::::::::::::::::::::::::::::::::::::::

           -------------------------------------------------
          |                Property Printout                |
           -------------------------------------------------

    * Orbital Energies and Occupations

         #    Occupation            Energy/Eh            Energy/eV
      -------------------------------------------------------------
         1        2.0000           -0.7513009             -20.4439
       ...           ...                  ...                  ...
        45        2.0000           -0.4623967             -12.5825
        46        2.0000           -0.4560426             -12.4095
        47        2.0000           -0.4522906             -12.3075
        48        2.0000           -0.4453025             -12.1173
        49        2.0000           -0.4432207             -12.0607
        50        2.0000           -0.4381687             -11.9232
        51        2.0000           -0.4303605             -11.7107
        52        2.0000           -0.4258725             -11.5886
        53        2.0000           -0.4191315             -11.4051
        54        1.9853           -0.4085590             -11.1175
        55        1.8245           -0.4060327             -11.0487
        56        1.1901           -0.4031858             -10.9712
        57        0.7343           -0.2303820              -6.2690 (HOMO)
        58        0.2657           -0.2284502              -6.2164 (LUMO)
        59                         -0.1034187              -2.8142
        60                         -0.0517993              -1.4095
        61                         -0.0256408              -0.6977
        62                         -0.0046475              -0.1265
        63                          0.0186320               0.5070
        64                          0.0317652               0.8644
        65                          0.0488103               1.3282
        66                          0.0644841               1.7547
        67                          0.0756903               2.0596
        68                          0.0858357               2.3357
       ...                                ...                  ...
        98                          0.6518862              17.7387
      -------------------------------------------------------------
                  HL-Gap            0.0019319 Eh            0.0526 eV
             Fermi-level           -0.3169893 Eh           -8.6257 eV

     #   Z          covCN         q      C6AA      α(0)
     1   8 O        1.656    -0.428    21.402     6.245
     2   6 C        3.675     0.073    19.578     6.340
     3   6 C        3.751     0.094    19.076     6.229
     4   8 O        1.701    -0.350    19.892     6.022
     5   6 C        3.658     0.247    17.031     5.923
     6   6 C        3.728     0.088    19.214     6.258
     7   6 C        3.731     0.099    19.031     6.227
     8   6 C        3.729     0.097    19.073     6.235
     9   8 O        1.656    -0.443    21.708     6.290
    10   8 O        1.656    -0.443    21.701     6.289
    11   8 O        1.656    -0.442    21.671     6.284
    12   8 O        1.705    -0.294    18.893     5.869
    13   6 C        2.880     0.124    25.267     8.240
    14   6 C        2.917    -0.062    29.536     8.912
    15   6 C        2.921    -0.043    29.065     8.841
    16   6 C        2.918    -0.032    28.787     8.798
    17   6 C        2.926    -0.044    29.093     8.845
    18   6 C        2.964    -0.026    28.650     8.780
    19   6 C        3.679     0.082    19.420     6.312
    20   8 O        1.655    -0.422    21.287     6.228
    21   1 H        0.805     0.319     0.667     1.283
    22   1 H        0.923     0.039     2.458     2.452
    23   1 H        0.924     0.072     2.062     2.245
    24   1 H        0.923     0.044     2.402     2.424
    25   1 H        0.922     0.013     2.837     2.634
    26   1 H        0.923     0.042     2.426     2.436
    27   1 H        0.923     0.034     2.537     2.491
    28   1 H        0.923     0.038     2.474     2.460
    29   1 H        0.805     0.323     0.655     1.271
    30   1 H        0.805     0.318     0.670     1.286
    31   1 H        0.805     0.313     0.683     1.298
    32   1 H        0.926     0.033     2.545     2.495
    33   1 H        0.926     0.039     2.468     2.457
    34   1 H        0.926     0.040     2.454     2.450
    35   1 H        0.926     0.045     2.384     2.414
    36   1 H        0.923     0.045     2.388     2.417
    37   1 H        0.924     0.055     2.258     2.350
    38   1 H        0.804     0.313     0.684     1.299

 Mol. C6AA /au·bohr⁶  :      14029.838907
 Mol. C8AA /au·bohr⁸  :     316537.740452
 Mol. α(0) /au        :        177.327051


Wiberg/Mayer (AO) data.
largest (>0.10) Wiberg bond orders for each atom

 ---------------------------------------------------------------------------
     #   Z sym  total        # sym  WBO       # sym  WBO       # sym  WBO
 ---------------------------------------------------------------------------
     1   8 O    1.963 --     2 C    1.024    21 H    0.870
     2   6 C    3.959 --     1 O    1.024     3 C    0.970    23 H    0.967
                            22 H    0.964
     3   6 C    3.933 --     2 C    0.970     8 C    0.970     4 O    0.958
                            24 H    0.956
     4   8 O    2.076 --     3 C    0.958     5 C    0.949
     5   6 C    3.917 --    12 O    0.987     6 C    0.951     4 O    0.949
                            25 H    0.940
     6   6 C    3.959 --    11 O    1.001     7 C    0.970    26 H    0.956
                             5 C    0.951
     7   6 C    3.962 --    10 O    1.000     6 C    0.970     8 C    0.970
                            27 H    0.955
     8   6 C    3.962 --     9 O    1.001     7 C    0.970     3 C    0.970
                            28 H    0.955
     9   8 O    1.965 --     8 C    1.001    29 H    0.874
    10   8 O    1.958 --     7 C    1.000    30 H    0.881
    11   8 O    1.960 --     6 C    1.001    31 H    0.883
    12   8 O    2.160 --    13 C    0.994     5 C    0.987
    13   6 C    3.554 --    14 C    1.282    18 C    1.078    12 O    0.994
    14   6 C    3.773 --    15 C    1.402    13 C    1.282    32 H    0.964
    15   6 C    3.660 --    14 C    1.402    16 C    1.138    33 H    0.965
    16   6 C    3.642 --    17 C    1.346    15 C    1.138    34 H    0.970
                            18 C    0.100
    17   6 C    3.777 --    18 C    1.356    16 C    1.346    35 H    0.964
    18   6 C    3.616 --    17 C    1.356    13 C    1.078    19 C    0.989
                            16 C    0.100
    19   6 C    3.940 --    20 O    0.993    18 C    0.989    37 H    0.969
                            36 H    0.939
    20   8 O    1.960 --    19 C    0.993    38 H    0.867
    21   1 H    0.898 --     1 O    0.870
    22   1 H    0.997 --     2 C    0.964
    23   1 H    0.994 --     2 C    0.967
    24   1 H    0.998 --     3 C    0.956
    25   1 H    0.998 --     5 C    0.940
    26   1 H    0.998 --     6 C    0.956
    27   1 H    0.999 --     7 C    0.955
    28   1 H    0.999 --     8 C    0.955
    29   1 H    0.895 --     9 O    0.874
    30   1 H    0.899 --    10 O    0.881
    31   1 H    0.901 --    11 O    0.883
    32   1 H    0.997 --    14 C    0.964
    33   1 H    0.994 --    15 C    0.965
    34   1 H    0.997 --    16 C    0.970
    35   1 H    0.995 --    17 C    0.964
    36   1 H    0.985 --    19 C    0.939
    37   1 H    0.995 --    19 C    0.969
    38   1 H    0.902 --    20 O    0.867
 ---------------------------------------------------------------------------

Topologies differ in total number of bonds
Writing topology from bond orders to xtbtopo.mol

molecular dipole:
                 x           y           z       tot (Debye)
 q only:       -0.230       0.264      -0.917
   full:       -0.358       0.521      -1.595       4.361
molecular quadrupole (traceless):
                xx          xy          yy          xz          yz          zz
 q only:        6.805       3.020      -1.694       1.884       2.063      -5.111
  q+dip:        3.996       2.978       5.820       7.370       5.053      -9.816
   full:        5.173       3.195       2.232       4.982       4.127      -7.405


           -------------------------------------------------
          | TOTAL ENERGY              -65.305738086045 Eh   |
          | GRADIENT NORM               0.117786512533 Eh/α |
          | HOMO-LUMO GAP               0.052568656663 eV   |
           -------------------------------------------------

------------------------------------------------------------------------
 * finished run on 2025/05/15 at 16:07:16.710     
------------------------------------------------------------------------
 total:
 * wall-time:     0 d,  0 h,  0 min,  0.092 sec
 *  cpu-time:     0 d,  0 h,  0 min,  0.073 sec
 * ratio c/w:     0.796 speedup
 SCF:
 * wall-time:     0 d,  0 h,  0 min,  0.081 sec
 *  cpu-time:     0 d,  0 h,  0 min,  0.063 sec
 * ratio c/w:     0.783 speedup


