66
 energy: -102.675529509064 gnorm: 0.000587774613 xtb: 6.7.1 (edcfbbe)
C           -4.46106585927754        2.09911906606577        2.55321535960287
C           -5.62168574405762        1.13074362130041        2.35861484770126
C           -5.20154519048578       -0.19047912610210        1.69744114090553
C           -4.74178554540546       -0.00238608958114        0.29675768253587
N           -5.50524984578246       -0.03729411673724       -0.77500290254152
C           -4.71700755005048        0.17690292954247       -1.85304548442152
C           -5.23866841910578        0.21316940645649       -3.24012611353433
C           -3.40844080232058        0.35091888812134       -1.43589599943036
N           -3.45993103936273        0.23488794548868       -0.05587585460328
N           -2.33038749861174        0.36396862948720        0.69932624632559
C           -1.15258257071680        0.57951809226190        0.05896076766808
C            0.06606985736128        0.71741894305469        0.87436047510923
C            0.20760341823008        0.24266240662413        2.19499291679835
C            1.44204562529960        0.35926532943761        2.83218794114638
C            2.51716509289254        0.94450991401087        2.18824798697260
C            2.36451847107235        1.44063990566847        0.90858864975141
S            3.77763444103646        2.16727407325391        0.06251483608471
O            4.83767171818938        2.28322819199226        1.02107959641180
N            4.24136457686443        1.03764197312312       -1.05526092159604
C            3.40805868124546        0.87322479428442       -2.22541216955626
C            4.22933581671824        0.14174204030666       -3.29694003164800
N            4.73546758642443       -1.13588625330582       -2.83794095555426
C            5.51174785680535       -0.94768216133363       -1.62922412888275
C            4.74105854224978       -0.20713180702640       -0.52285002371692
C            3.74830172814885       -2.20238421162925       -2.76713646476656
C            4.40888000240176       -3.56042476109159       -2.99155176585545
O            3.34540858619248        3.33332815104975       -0.64303314206969
C            1.15596457218019        1.33011843655498        0.25860917949139
O           -0.88213538423321       -0.31768268012072        2.78937577396294
C           -0.77483645367010       -0.87759455448758        4.09222864317012
C           -2.13547432380683       -1.45238172231043        4.45447324247164
N           -1.03462104577392        0.68239271755110       -1.21665961212043
C           -2.12230151982806        0.56832447461074       -2.08346267825745
O           -1.96890674990264        0.63900035935708       -3.28301748348537
H           -3.68175979944681        1.65761537391004        3.17362432580468
H           -4.02860293798197        2.38842883279172        1.59817841531773
H           -4.80886490189950        3.00296937150711        3.04718510217376
H           -6.06934125901455        0.90436962564256        3.32850839162608
H           -6.38533830715167        1.59917530583330        1.73688130259703
H           -4.41373944837078       -0.66808510904947        2.28745984235877
H           -6.06387798585420       -0.85735258631861        1.67018316288329
H           -4.40711015459492        0.26662133938510       -3.93629249128445
H           -5.83614157687699       -0.67388253894356       -3.43758605591549
H           -5.87862964803945        1.08362949801519       -3.37501409075708
H           -2.39106137067634        0.20667367850442        1.69650669372179
H            1.57250354701595       -0.00550160125542        3.83791251439143
H            3.47573207724515        1.04022690922863        2.67269834589596
H            3.12061180992298        1.86896488036055       -2.56038591061889
H            2.50285955918671        0.29259731664570       -1.99118526917352
H            3.62198842017960       -0.01026748476165       -4.19021688698031
H            5.09225486081449        0.76031481873496       -3.55884481132061
H            6.39083350507813       -0.35386142437252       -1.89321100873856
H            5.84481841329618       -1.91718457731785       -1.25804747599274
H            3.91339495331136       -0.83263895774790       -0.14881220895102
H            5.40023512359565        0.03921010424981        0.30951529874109
H            3.19871251907037       -2.21714274366313       -1.81323588750774
H            3.02029573413841       -2.03464644090946       -3.56352379168180
H            5.08648651318763       -3.81032038122836       -2.17943424278071
H            3.64966831771059       -4.33580920991995       -3.05561454345530
H            4.97529434009348       -3.54256508105672       -3.91797242250792
H            1.02451139188055        1.72372574553125       -0.73571399298610
H           -0.01574423899529       -1.66877854538065        4.09551274433241
H           -0.48760096794986       -0.09980427273604        4.81044376594954
H           -2.88574440643295       -0.66573326133132        4.48433240059845
H           -2.43394265022396       -2.20024112915851        3.72380117996789
H           -2.08427246315450       -1.91968026104628        5.43310805022124
