51
 energy: -84.109713039391 gnorm: 0.000351803870 xtb: 6.7.1 (edcfbbe)
F            7.56789928128276       -1.63885667006690        2.19597969471977
C            6.51043565973596       -1.49127496199227        1.37587900355808
C            6.68252863033549       -1.67087390529580        0.01427050307818
C            5.58756507730727       -1.51862880040487       -0.81126628807852
C            4.33363727439607       -1.18413307917275       -0.29584825102140
C            4.19290177722636       -1.01568223552603        1.08123732708899
C            5.27959749026051       -1.16929175979904        1.92119563810731
C            3.21484018952827       -1.04926907555988       -1.27109971381520
C            1.97523345070124       -0.30988194366821       -0.81054321836595
C            0.84686619831886       -0.41286409025601       -1.83482846669822
C           -0.36868826459606        0.35625968929574       -1.32589241791761
N           -0.01152949221569        1.74596673319449       -1.13498725386326
C            1.02369899422988        1.89770234696464       -0.13162215622295
C            2.28909817659637        1.17570876452757       -0.59167778078095
C           -1.10498284664143        2.67577609216822       -1.03053643224479
C           -1.90676943963119        2.70531095452542        0.29080446512754
N           -2.64925279433280        1.47624345544826        0.53547703396570
C           -2.17512886260422        0.62570945911689        1.51379818534520
N           -2.88987019427352       -0.53035858780266        1.69425467614936
C           -4.01085982094867       -0.88388919534802        0.98166617518426
C           -4.67078624255006       -2.09009151590647        1.20739592264800
C           -5.79301777951660       -2.40176849083510        0.46798673207847
C           -6.27344061886321       -1.52397617791428       -0.49868535021911
C           -5.62506441380643       -0.32947626937897       -0.72525103759994
C           -4.48779105812826        0.00163723281804        0.01115191177280
C           -3.79100506166140        1.26771039596969       -0.23096774958283
O           -4.15423607526545        2.09813680642110       -1.03622454537130
O           -1.18840687574477        0.85675892622164        2.17852134292510
O            3.31742558848525       -1.49409311129518       -2.39281030374866
H            7.65482399600568       -1.92605159389874       -0.37621272018336
H            5.68024411232835       -1.65526181181921       -1.87811712548490
H            3.23503507708008       -0.77881007466819        1.51596370637578
H            5.18454774977780       -1.04583897260275        2.98856538829239
H            1.63303742456727       -0.74205454855532        0.13616515362612
H            0.58520079507719       -1.45845680223079       -2.00428717948304
H            1.18028115998359        0.01230855029676       -2.78125815102591
H           -1.17978141435037        0.30228520300909       -2.05657573652003
H           -0.71270517209543       -0.12354063478472       -0.39235497998539
H            1.23338121210016        2.96400123664413       -0.01601825606615
H            0.71545505294324        1.49413357722208        0.84717531424701
H            3.07838964738545        1.30490774533351        0.15033268416912
H            2.62512712106298        1.60859661861549       -1.53521358125243
H           -0.69622216521403        3.68195106612937       -1.16845325778701
H           -1.79849125291301        2.47806155587891       -1.85081463175614
H           -1.24446226121643        2.86068000529674        1.14232833764574
H           -2.63087659923235        3.52074812599568        0.22630396872378
H           -2.54168423589728       -1.15155186264373        2.41242632699474
H           -4.29724357188422       -2.77019158212003        1.95853594574529
H           -6.30155123753456       -3.33770372828497        0.64334597406572
H           -7.15237214829514       -1.78099433519510       -1.06862942434720
H           -5.97123123730097        0.37407127594633       -1.46648540222984
