----- Optimization -----
      -----------------------------------------------------------      
     |                   =====================                   |     
     |                           x T B                           |     
     |                   =====================                   |     
     |                         S. Grimme                         |     
     |          Mulliken Center for Theoretical Chemistry        |     
     |                    University of Bonn                     |     
      -----------------------------------------------------------      

   * xtb version 6.7.1 (edcfbbe) compiled by 'conda@3ef47c1a292c' on 2024-11-25

   xtb is free software: you can redistribute it and/or modify it under
   the terms of the GNU Lesser General Public License as published by
   the Free Software Foundation, either version 3 of the License, or
   (at your option) any later version.
   
   xtb is distributed in the hope that it will be useful,
   but WITHOUT ANY WARRANTY; without even the implied warranty of
   MERCHANTABILITY or FITNESS FOR A PARTICULAR PURPOSE.  See the
   GNU Lesser General Public License for more details.
   
   Cite this work as:
   * C. Bannwarth, E. Caldeweyher, S. Ehlert, A. Hansen, P. Pracht,
     J. Seibert, S. Spicher, S. Grimme, WIREs Comput. Mol. Sci., 2020, 11,
     e01493. DOI: 10.1002/wcms.1493
   
   for GFN2-xTB:
   * C. Bannwarth, S. Ehlert and S. Grimme., J. Chem. Theory Comput., 2019,
     15, 1652-1671. DOI: 10.1021/acs.jctc.8b01176
   for GFN1-xTB:
   * S. Grimme, C. Bannwarth, P. Shushkov, J. Chem. Theory Comput., 2017,
     13, 1989-2009. DOI: 10.1021/acs.jctc.7b00118
   for GFN0-xTB:
   * P. Pracht, E. Caldeweyher, S. Ehlert, S. Grimme, ChemRxiv, 2019, preprint.
     DOI: 10.26434/chemrxiv.8326202.v1
   for GFN-FF:
   * S. Spicher and S. Grimme, Angew. Chem. Int. Ed., 2020, 59, 15665-15673.
     DOI: 10.1002/anie.202004239
   
   for ALPB and GBSA implicit solvation:
   * S. Ehlert, M. Stahn, S. Spicher, S. Grimme, J. Chem. Theory Comput.,
     2021, 17, 4250-4261. DOI: 10.1021/acs.jctc.1c00471
   
   for ddCOSMO and CPCM-X implicit solvation:
   * M. Stahn, S. Ehlert, S. Grimme, J. Phys. Chem. A,
     2023, XX, XXXX-XXXX. DOI: 10.1021/acs.jpca.3c04382
   
   for DFT-D4:
   * E. Caldeweyher, C. Bannwarth and S. Grimme, J. Chem. Phys., 2017,
     147, 034112. DOI: 10.1063/1.4993215
   * E. Caldeweyher, S. Ehlert, A. Hansen, H. Neugebauer, S. Spicher,
     C. Bannwarth and S. Grimme, J. Chem. Phys., 2019, 150, 154122.
     DOI: 10.1063/1.5090222
   * E. Caldeweyher, J.-M. Mewes, S. Ehlert and S. Grimme, Phys. Chem. Chem. Phys.
     2020, 22, 8499-8512. DOI: 10.1039/D0CP00502A
   
   for sTDA-xTB:
   * S. Grimme and C. Bannwarth, J. Chem. Phys., 2016, 145, 054103.
     DOI: 10.1063/1.4959605
   
   in the mass-spec context:
   * V. Asgeirsson, C. Bauer and S. Grimme, Chem. Sci., 2017, 8, 4879.
     DOI: 10.1039/c7sc00601b
   * J. Koopman and S. Grimme, ACS Omega 2019, 4, 12, 15120-15133.
     DOI: 10.1021/acsomega.9b02011
   
   for metadynamics refer to:
   * S. Grimme, J. Chem. Theory Comput., 2019, 155, 2847-2862
     DOI: 10.1021/acs.jctc.9b00143
   
   for SPH calculations refer to:
   * S. Spicher and S. Grimme, J. Chem. Theory Comput., 2021, 17, 1701-1714
     DOI: 10.1021/acs.jctc.0c01306
   
   for ONIOM refer to:
   * C. Plett, A. Katbashev, S. Ehlert, S. Grimme, M. Bursch,
     Phys. Chem. Chem. Phys., 2023, 25, 17860-17868. DOI: 10.1039/D3CP02178E
   
   for DIPRO refer to:
   * J. Kohn, N. Gildemeister, S. Grimme, D. Fazzi, A. Hansen,
     J. Chem. Phys., 2023, just accepted.
   
   for PTB refer to:
   * S. Grimme, M. Mueller, A. Hansen, J. Chem. Phys., 2023, 158, 124111.
     DOI: 10.1063/5.0137838
   
   with help from (in alphabetical order)
   P. Atkinson, C. Bannwarth, F. Bohle, G. Brandenburg, E. Caldeweyher
   M. Checinski, S. Dohm, S. Ehlert, S. Ehrlich, I. Gerasimov, C. Hölzer
   A. Katbashev, J. Kohn, J. Koopman, C. Lavigne, S. Lehtola, F. März, M. Müller,
   F. Musil, H. Neugebauer, J. Pisarek, C. Plett, P. Pracht, F. Pultar,
   J. Seibert, P. Shushkov, S. Spicher, M. Stahn, M. Steiner, T. Strunk,
   J. Stückrath, T. Rose, and J. Unsleber
   
 * started run on 2025/05/15 at 16:36:45.062     
   ID    Z sym.   atoms
    1    6 C      1-3, 5-8, 10, 11, 13, 15, 16, 18-20, 22, 23
    2    8 O      4, 21, 24
    3    7 N      9, 14, 17
    4   16 S      12
    5    1 H      25-43

           -------------------------------------------------
          |                Calculation Setup                |
           -------------------------------------------------

          program call               : xtb /rds/general/user/hgt20/home/callum/QDESCP/Omeprazole_rdkit_conf_12/Omeprazole_rdkit_conf_12.xyz --opt normal --acc 1 --gfn 2 --chrg 0 --uhf 0 -P 1
          hostname                   : login-c
          coordinate file            : /rds/general/user/hgt20/home/callum/QDESCP/Omeprazole_rdkit_conf_12/Omeprazole_rdkit_conf_12.xyz
          omp threads                :                     1


           -------------------------------------------------
          |                 G F N 2 - x T B                 |
           -------------------------------------------------

        Reference                      10.1021/acs.jctc.8b01176
      * Hamiltonian:
        H0-scaling (s, p, d)           1.850000    2.230000    2.230000
        zeta-weighting                 0.500000
      * Dispersion:
        s8                             2.700000
        a1                             0.520000
        a2                             5.000000
        s9                             5.000000
      * Repulsion:
        kExp                           1.500000    1.000000
        rExp                           1.000000
      * Coulomb:
        alpha                          2.000000
        third order                    shell-resolved
        anisotropic                    true
        a3                             3.000000
        a5                             4.000000
        cn-shift                       1.200000
        cn-exp                         4.000000
        max-rad                        5.000000


          ...................................................
          :                      SETUP                      :
          :.................................................:
          :  # basis functions                 121          :
          :  # atomic orbitals                 120          :
          :  # shells                           68          :
          :  # electrons                       126          :
          :  max. iterations                   250          :
          :  Hamiltonian                  GFN2-xTB          :
          :  restarted?                      false          :
          :  GBSA solvation                  false          :
          :  PC potential                    false          :
          :  electronic temp.          300.0000000     K    :
          :  accuracy                    1.0000000          :
          :  -> integral cutoff          0.2500000E+02      :
          :  -> integral neglect         0.1000000E-07      :
          :  -> SCF convergence          0.1000000E-05 Eh   :
          :  -> wf. convergence          0.1000000E-03 e    :
          :  Broyden damping             0.4000000          :
          :  net charge                          0          :
          :  unpaired electrons                  0          :
          ...................................................

 iter      E             dE          RMSdq      gap      omega  full diag
   1    -71.0619547 -0.710620E+02  0.452E+00    3.11       0.0  T
   2    -71.1667048 -0.104750E+00  0.258E+00    3.21       1.0  T
   3    -71.1599612  0.674359E-02  0.119E+00    3.04       1.0  T
   4    -71.1741890 -0.142278E-01  0.504E-01    3.00       1.0  T
   5    -71.1819868 -0.779774E-02  0.169E-01    2.97       1.0  T
   6    -71.1820825 -0.956901E-04  0.791E-02    2.96       1.0  T
   7    -71.1821815 -0.990338E-04  0.312E-02    2.97       1.0  T
   8    -71.1821895 -0.802869E-05  0.191E-02    2.97       1.0  T
   9    -71.1821913 -0.178129E-05  0.805E-03    2.97       1.9  T
  10    -71.1821926 -0.130810E-05  0.312E-03    2.97       4.9  T
  11    -71.1821927 -0.446501E-07  0.156E-03    2.97       9.8  T
  12    -71.1821927 -0.154960E-07  0.619E-04    2.97      24.6  T
  13    -71.1821927 -0.685678E-08  0.251E-04    2.97      60.9  T

   *** convergence criteria satisfied after 13 iterations ***

         #    Occupation            Energy/Eh            Energy/eV
      -------------------------------------------------------------
         1        2.0000           -0.7565755             -20.5875
       ...           ...                  ...                  ...
        57        2.0000           -0.4105547             -11.1718
        58        2.0000           -0.4034184             -10.9776
        59        2.0000           -0.3981698             -10.8348
        60        2.0000           -0.3949192             -10.7463
        61        2.0000           -0.3844620             -10.4617
        62        2.0000           -0.3782736             -10.2933
        63        2.0000           -0.3728819             -10.1466 (HOMO)
        64                         -0.2636510              -7.1743 (LUMO)
        65                         -0.2519263              -6.8553
        66                         -0.2374348              -6.4609
        67                         -0.2100789              -5.7165
        68                         -0.2035883              -5.5399
       ...                                ...                  ...
       120                          0.8047374              21.8980
      -------------------------------------------------------------
                  HL-Gap            0.1092309 Eh            2.9723 eV
             Fermi-level           -0.3182664 Eh           -8.6605 eV

 SCC (total)                   0 d,  0 h,  0 min,  0.073 sec
 SCC setup                      ...        0 min,  0.000 sec (  0.526%)
 Dispersion                     ...        0 min,  0.000 sec (  0.666%)
 classical contributions        ...        0 min,  0.000 sec (  0.207%)
 integral evaluation            ...        0 min,  0.016 sec ( 22.219%)
 iterations                     ...        0 min,  0.031 sec ( 42.647%)
 molecular gradient             ...        0 min,  0.025 sec ( 33.453%)
 printout                       ...        0 min,  0.000 sec (  0.273%)

         :::::::::::::::::::::::::::::::::::::::::::::::::::::
         ::                     SUMMARY                     ::
         :::::::::::::::::::::::::::::::::::::::::::::::::::::
         :: total energy             -70.299210975388 Eh    ::
         :: gradient norm              0.102597653442 Eh/a0 ::
         :: HOMO-LUMO gap              2.972325178251 eV    ::
         ::.................................................::
         :: SCC energy               -71.182441507812 Eh    ::
         :: -> isotropic ES            0.095280923415 Eh    ::
         :: -> anisotropic ES          0.008019617418 Eh    ::
         :: -> anisotropic XC          0.031137414010 Eh    ::
         :: -> dispersion             -0.046697476964 Eh    ::
         :: repulsion energy           0.883230532424 Eh    ::
         :: add. restraining           0.000000000000 Eh    ::
         :: total charge               0.000000000000 e     ::
         :::::::::::::::::::::::::::::::::::::::::::::::::::::

      ----------------------------------------------------------- 
     |                   =====================                   |
     |                        A N C O P T                        |
     |                   =====================                   |
     |               Approximate Normal Coordinate               |
     |                Rational Function Optimizer                |
      ----------------------------------------------------------- 
      ----------------------------------------------------------- 
     |                   =====================                   |
     |                        A N C O P T                        |
     |                   =====================                   |
     |               Approximate Normal Coordinate               |
     |                Rational Function Optimizer                |
      ----------------------------------------------------------- 

          ...................................................
          :                      SETUP                      :
          :.................................................:
          :   optimization level            normal          :
          :   max. optcycles                   200          :
          :   ANC micro-cycles                  20          :
          :   degrees of freedom               123          :
          :.................................................:
          :   RF solver                   davidson          :
          :   write xtbopt.log                true          :
          :   linear?                        false          :
          :   energy convergence         0.5000000E-05 Eh   :
          :   grad. convergence          0.1000000E-02 Eh/α :
          :   maxmium RF displ.          1.0000000          :
          :   Hlow (freq-cutoff)         0.1000000E-01      :
          :   Hmax (freq-cutoff)         5.0000000          :
          :   S6 in model hess.         20.0000000          :
          ...................................................

generating ANC from exact Hessian ...
Using Lindh-Hessian (1995)
 Shifting diagonal of input Hessian by    9.7990235946312405E-003
 Lowest  eigenvalues of input Hessian
    0.000000    0.000000    0.000000    0.000000    0.000000    0.000000
    0.010000    0.010024    0.010276    0.010844    0.011495    0.012029
    0.012492    0.012912    0.013872    0.014903    0.015437    0.016059
 Highest eigenvalues
    1.987324    2.030650    2.038730    2.099306    2.230790    2.267858


........................................................................
.............................. CYCLE    1 ..............................
........................................................................

 iter      E             dE          RMSdq      gap      omega  full diag
   1    -71.1821927 -0.711822E+02  0.102E-04    2.97       0.0  T
   2    -71.1821927 -0.641336E-10  0.589E-05    2.97     259.1  T
   3    -71.1821927 -0.301839E-10  0.408E-05    2.97     373.9  T
     SCC iter.                  ...        0 min,  0.008 sec
     gradient                   ...        0 min,  0.033 sec
 * total energy  :   -70.2992110 Eh     change       -0.7319017E-09 Eh
   gradient norm :     0.1025988 Eh/α   predicted     0.0000000E+00 (-100.00%)
   displ. norm   :     0.2698444 α      lambda       -0.1285180E-01
   maximum displ.:     0.1065584 α      in ANC's #34, #48, #9, ...

........................................................................
.............................. CYCLE    2 ..............................
........................................................................

 iter      E             dE          RMSdq      gap      omega  full diag
   1    -71.2168166 -0.712168E+02  0.197E-01    2.96       0.0  T
   2    -71.2169218 -0.105226E-03  0.126E-01    3.00       1.0  T
   3    -71.2168789  0.428522E-04  0.605E-02    2.98       1.0  T
   4    -71.2169724 -0.934541E-04  0.154E-02    2.99       1.0  T
   5    -71.2169770 -0.457981E-05  0.649E-03    2.99       2.4  T
   6    -71.2169770 -0.731402E-07  0.270E-03    2.99       5.7  T
   7    -71.2169771 -0.971163E-07  0.137E-03    2.99      11.1  T
   8    -71.2169772 -0.121475E-07  0.710E-04    2.99      21.5  T
   9    -71.2169772 -0.438490E-08  0.240E-04    2.99      63.4  T
     SCC iter.                  ...        0 min,  0.021 sec
     gradient                   ...        0 min,  0.053 sec
 * total energy  :   -70.3081614 Eh     change       -0.8950409E-02 Eh
   gradient norm :     0.0486412 Eh/α   predicted    -0.6898871E-02 ( -22.92%)
   displ. norm   :     0.2446208 α      lambda       -0.4050009E-02
   maximum displ.:     0.0897895 α      in ANC's #9, #5, #6, ...

........................................................................
.............................. CYCLE    3 ..............................
........................................................................

 iter      E             dE          RMSdq      gap      omega  full diag
   1    -71.2368392 -0.712368E+02  0.135E-01    2.98       0.0  T
   2    -71.2369341 -0.949395E-04  0.910E-02    3.00       1.0  T
   3    -71.2369511 -0.169564E-04  0.473E-02    2.98       1.0  T
   4    -71.2369544 -0.337995E-05  0.147E-02    2.99       1.0  T
   5    -71.2369615 -0.709442E-05  0.392E-03    2.98       3.9  T
   6    -71.2369616 -0.456454E-07  0.250E-03    2.98       6.1  T
   7    -71.2369616 -0.237328E-07  0.755E-04    2.99      20.2  T
   8    -71.2369616 -0.830532E-08  0.434E-04    2.99      35.2  T
     SCC iter.                  ...        0 min,  0.018 sec
     gradient                   ...        0 min,  0.024 sec
 * total energy  :   -70.3104870 Eh     change       -0.2325595E-02 Eh
   gradient norm :     0.0137201 Eh/α   predicted    -0.2146726E-02 (  -7.69%)
   displ. norm   :     0.1728225 α      lambda       -0.5445891E-03
   maximum displ.:     0.0766142 α      in ANC's #5, #9, #6, ...

........................................................................
.............................. CYCLE    4 ..............................
........................................................................

 iter      E             dE          RMSdq      gap      omega  full diag
   1    -71.2385186 -0.712385E+02  0.551E-02    2.99       0.0  T
   2    -71.2385315 -0.128742E-04  0.347E-02    2.98       1.0  T
   3    -71.2385326 -0.107232E-05  0.170E-02    2.98       1.0  T
   4    -71.2385328 -0.174111E-06  0.516E-03    2.98       3.0  T
   5    -71.2385332 -0.477969E-06  0.229E-03    2.98       6.6  T
   6    -71.2385333 -0.618935E-07  0.103E-03    2.98      14.9  T
   7    -71.2385333 -0.176551E-07  0.291E-04    2.98      52.4  T
   8    -71.2385333 -0.139494E-09  0.156E-04    2.98      97.8  T
     SCC iter.                  ...        0 min,  0.045 sec
     gradient                   ...        0 min,  0.024 sec
 * total energy  :   -70.3109026 Eh     change       -0.4156686E-03 Eh
   gradient norm :     0.0071039 Eh/α   predicted    -0.2804625E-03 ( -32.53%)
   displ. norm   :     0.2821979 α      lambda       -0.5189645E-03
   maximum displ.:     0.1423353 α      in ANC's #5, #9, #6, ...

........................................................................
.............................. CYCLE    5 ..............................
........................................................................

 iter      E             dE          RMSdq      gap      omega  full diag
   1    -71.2382650 -0.712383E+02  0.745E-02    2.99       0.0  T
   2    -71.2382780 -0.129596E-04  0.437E-02    2.98       1.0  T
   3    -71.2382775  0.454578E-06  0.176E-02    2.98       1.0  T
   4    -71.2382794 -0.186424E-05  0.728E-03    2.97       2.1  T
   5    -71.2382804 -0.963589E-06  0.302E-03    2.97       5.0  T
   6    -71.2382805 -0.108400E-06  0.110E-03    2.97      13.9  T
   7    -71.2382805 -0.191174E-07  0.421E-04    2.97      36.2  T
   8    -71.2382805 -0.144112E-09  0.228E-04    2.97      66.9  T
     SCC iter.                  ...        0 min,  0.018 sec
     gradient                   ...        0 min,  0.057 sec
 * total energy  :   -70.3112473 Eh     change       -0.3446184E-03 Eh
   gradient norm :     0.0066467 Eh/α   predicted    -0.2801480E-03 ( -18.71%)
   displ. norm   :     0.2201517 α      lambda       -0.2141436E-03
   maximum displ.:     0.1235470 α      in ANC's #5, #6, #9, ...

........................................................................
.............................. CYCLE    6 ..............................
........................................................................

 iter      E             dE          RMSdq      gap      omega  full diag
   1    -71.2380643 -0.712381E+02  0.486E-02    2.98       0.0  T
   2    -71.2380662 -0.186409E-05  0.258E-02    2.97       1.0  T
   3    -71.2380653  0.846242E-06  0.784E-03    2.97       1.9  T
   4    -71.2380665 -0.120555E-05  0.429E-03    2.97       3.6  T
   5    -71.2380668 -0.260667E-06  0.114E-03    2.97      13.4  T
   6    -71.2380668 -0.217113E-07  0.480E-04    2.97      31.8  T
   7    -71.2380668 -0.214189E-08  0.228E-04    2.97      66.9  T
     SCC iter.                  ...        0 min,  0.016 sec
     gradient                   ...        0 min,  0.024 sec
 * total energy  :   -70.3114126 Eh     change       -0.1653548E-03 Eh
   gradient norm :     0.0071838 Eh/α   predicted    -0.1122931E-03 ( -32.09%)
   displ. norm   :     0.2718020 α      lambda       -0.2328903E-03
   maximum displ.:     0.1523912 α      in ANC's #5, #6, #8, ...

........................................................................
.............................. CYCLE    7 ..............................
........................................................................

 iter      E             dE          RMSdq      gap      omega  full diag
   1    -71.2380609 -0.712381E+02  0.566E-02    2.98       0.0  T
   2    -71.2380643 -0.333943E-05  0.286E-02    2.98       1.0  T
   3    -71.2380638  0.434359E-06  0.995E-03    2.98       1.5  T
   4    -71.2380646 -0.808970E-06  0.492E-03    2.98       3.1  T
   5    -71.2380650 -0.367719E-06  0.169E-03    2.98       9.0  T
   6    -71.2380651 -0.467529E-07  0.573E-04    2.98      26.6  T
   7    -71.2380651 -0.379407E-08  0.249E-04    2.98      61.2  T
     SCC iter.                  ...        0 min,  0.016 sec
     gradient                   ...        0 min,  0.025 sec
 * total energy  :   -70.3115917 Eh     change       -0.1790906E-03 Eh
   gradient norm :     0.0059301 Eh/α   predicted    -0.1251152E-03 ( -30.14%)
   displ. norm   :     0.2975936 α      lambda       -0.2153937E-03
   maximum displ.:     0.1665899 α      in ANC's #5, #6, #8, ...

........................................................................
.............................. CYCLE    8 ..............................
........................................................................

 iter      E             dE          RMSdq      gap      omega  full diag
   1    -71.2382290 -0.712382E+02  0.603E-02    2.99       0.0  T
   2    -71.2382341 -0.508361E-05  0.318E-02    2.98       1.0  T
   3    -71.2382337  0.368130E-06  0.123E-02    2.99       1.2  T
   4    -71.2382345 -0.805479E-06  0.516E-03    2.99       3.0  T
   5    -71.2382349 -0.433504E-06  0.187E-03    2.99       8.2  T
   6    -71.2382350 -0.576789E-07  0.669E-04    2.99      22.8  T
   7    -71.2382350 -0.516899E-08  0.257E-04    2.99      59.4  T
     SCC iter.                  ...        0 min,  0.049 sec
     gradient                   ...        0 min,  0.024 sec
 * total energy  :   -70.3117496 Eh     change       -0.1579282E-03 Eh
   gradient norm :     0.0055873 Eh/α   predicted    -0.1172354E-03 ( -25.77%)
   displ. norm   :     0.2568058 α      lambda       -0.1609536E-03
   maximum displ.:     0.1417294 α      in ANC's #5, #16, #8, ...

........................................................................
.............................. CYCLE    9 ..............................
........................................................................

 iter      E             dE          RMSdq      gap      omega  full diag
   1    -71.2386712 -0.712387E+02  0.522E-02    3.00       0.0  T
   2    -71.2386740 -0.281063E-05  0.296E-02    3.00       1.0  T
   3    -71.2386735  0.558507E-06  0.959E-03    3.00       1.6  T
   4    -71.2386743 -0.857764E-06  0.356E-03    3.00       4.3  T
   5    -71.2386745 -0.232369E-06  0.134E-03    3.00      11.4  T
   6    -71.2386746 -0.270075E-07  0.548E-04    3.00      27.8  T
   7    -71.2386746 -0.289431E-08  0.226E-04    3.00      67.5  T
     SCC iter.                  ...        0 min,  0.016 sec
     gradient                   ...        0 min,  0.057 sec
 * total energy  :   -70.3118666 Eh     change       -0.1169396E-03 Eh
   gradient norm :     0.0055137 Eh/α   predicted    -0.8578536E-04 ( -26.64%)
   displ. norm   :     0.2021259 α      lambda       -0.1179549E-03
   maximum displ.:     0.1068610 α      in ANC's #5, #16, #8, ...

........................................................................
.............................. CYCLE   10 ..............................
........................................................................

 iter      E             dE          RMSdq      gap      omega  full diag
   1    -71.2392712 -0.712393E+02  0.450E-02    3.01       0.0  T
   2    -71.2392720 -0.816560E-06  0.263E-02    3.01       1.0  T
   3    -71.2392717  0.348905E-06  0.514E-03    3.01       3.0  T
   4    -71.2392723 -0.587867E-06  0.181E-03    3.01       8.4  T
   5    -71.2392723 -0.174710E-07  0.788E-04    3.01      19.3  T
   6    -71.2392723 -0.784912E-08  0.295E-04    3.01      51.7  T
     SCC iter.                  ...        0 min,  0.014 sec
     gradient                   ...        0 min,  0.024 sec
 * total energy  :   -70.3119475 Eh     change       -0.8091771E-04 Eh
   gradient norm :     0.0040896 Eh/α   predicted    -0.6138715E-04 ( -24.14%)
   displ. norm   :     0.1211853 α      lambda       -0.5525881E-04
   maximum displ.:     0.0599919 α      in ANC's #5, #16, #8, ...

........................................................................
.............................. CYCLE   11 ..............................
........................................................................

 iter      E             dE          RMSdq      gap      omega  full diag
   1    -71.2395232 -0.712395E+02  0.299E-02    3.02       0.0  T
   2    -71.2395236 -0.474070E-06  0.172E-02    3.02       1.0  T
   3    -71.2395236  0.397987E-07  0.329E-03    3.02       4.6  T
   4    -71.2395237 -0.111371E-06  0.132E-03    3.02      11.5  T
   5    -71.2395238 -0.333447E-07  0.561E-04    3.02      27.2  T
   6    -71.2395238 -0.320837E-08  0.208E-04    3.02      73.2  T
     SCC iter.                  ...        0 min,  0.036 sec
     gradient                   ...        0 min,  0.024 sec
 * total energy  :   -70.3119854 Eh     change       -0.3792526E-04 Eh
   gradient norm :     0.0023833 Eh/α   predicted    -0.2803538E-04 ( -26.08%)
   displ. norm   :     0.0817426 α      lambda       -0.2835641E-04
   maximum displ.:     0.0361129 α      in ANC's #5, #16, #8, ...

........................................................................
.............................. CYCLE   12 ..............................
........................................................................

 iter      E             dE          RMSdq      gap      omega  full diag
   1    -71.2395524 -0.712396E+02  0.210E-02    3.02       0.0  T
   2    -71.2395530 -0.559958E-06  0.120E-02    3.02       1.3  T
   3    -71.2395529  0.340217E-07  0.386E-03    3.02       3.9  T
   4    -71.2395530 -0.820496E-07  0.132E-03    3.02      11.5  T
   5    -71.2395531 -0.305475E-07  0.603E-04    3.02      25.3  T
   6    -71.2395531 -0.621004E-08  0.237E-04    3.02      64.4  T
     SCC iter.                  ...        0 min,  0.014 sec
     gradient                   ...        0 min,  0.025 sec
 * total energy  :   -70.3120054 Eh     change       -0.1996553E-04 Eh
   gradient norm :     0.0015103 Eh/α   predicted    -0.1427388E-04 ( -28.51%)
   displ. norm   :     0.1023158 α      lambda       -0.1860853E-04
   maximum displ.:     0.0449972 α      in ANC's #8, #16, #5, ...

........................................................................
.............................. CYCLE   13 ..............................
........................................................................

 iter      E             dE          RMSdq      gap      omega  full diag
   1    -71.2394454 -0.712394E+02  0.260E-02    3.02       0.0  T
   2    -71.2394463 -0.943158E-06  0.149E-02    3.02       1.0  T
   3    -71.2394462  0.603614E-07  0.490E-03    3.02       3.1  T
   4    -71.2394464 -0.161404E-06  0.182E-03    3.02       8.4  T
   5    -71.2394464 -0.360366E-07  0.882E-04    3.02      17.3  T
   6    -71.2394464 -0.144240E-07  0.323E-04    3.02      47.1  T
     SCC iter.                  ...        0 min,  0.014 sec
     gradient                   ...        0 min,  0.024 sec
 * total energy  :   -70.3120212 Eh     change       -0.1576439E-04 Eh
   gradient norm :     0.0018095 Eh/α   predicted    -0.9349901E-05 ( -40.69%)
   displ. norm   :     0.0436630 α      lambda       -0.8136813E-05
   maximum displ.:     0.0216109 α      in ANC's #7, #6, #4, ...

........................................................................
.............................. CYCLE   14 ..............................
........................................................................

 iter      E             dE          RMSdq      gap      omega  full diag
   1    -71.2394881 -0.712395E+02  0.111E-02    3.02       0.0  T
   2    -71.2394881 -0.503009E-07  0.641E-03    3.02       2.4  T
   3    -71.2394881  0.298507E-07  0.129E-03    3.02      11.8  T
   4    -71.2394882 -0.451766E-07  0.489E-04    3.02      31.2  T
   5    -71.2394882 -0.125692E-08  0.190E-04    3.02      80.4  T
     SCC iter.                  ...        0 min,  0.012 sec
     gradient                   ...        0 min,  0.055 sec
 * total energy  :   -70.3120307 Eh     change       -0.9513628E-05 Eh
   gradient norm :     0.0012005 Eh/α   predicted    -0.4075143E-05 ( -57.17%)
   displ. norm   :     0.0845084 α      lambda       -0.1029799E-04
   maximum displ.:     0.0362907 α      in ANC's #6, #8, #7, ...

........................................................................
.............................. CYCLE   15 ..............................
........................................................................

 iter      E             dE          RMSdq      gap      omega  full diag
   1    -71.2392007 -0.712392E+02  0.200E-02    3.02       0.0  T
   2    -71.2392009 -0.144656E-06  0.117E-02    3.02       1.3  T
   3    -71.2392007  0.195068E-06  0.257E-03    3.02       5.9  T
   4    -71.2392009 -0.242317E-06  0.799E-04    3.02      19.1  T
   5    -71.2392009 -0.139473E-07  0.324E-04    3.02      47.0  T
     SCC iter.                  ...        0 min,  0.012 sec
     gradient                   ...        0 min,  0.024 sec
 * total energy  :   -70.3120410 Eh     change       -0.1028598E-04 Eh
   gradient norm :     0.0009421 Eh/α   predicted    -0.5166934E-05 ( -49.77%)
   displ. norm   :     0.0739793 α      lambda       -0.6461647E-05
   maximum displ.:     0.0417433 α      in ANC's #6, #7, #4, ...

........................................................................
.............................. CYCLE   16 ..............................
........................................................................

 iter      E             dE          RMSdq      gap      omega  full diag
   1    -71.2397739 -0.712398E+02  0.186E-02    3.01       0.0  T
   2    -71.2397740 -0.149936E-06  0.107E-02    3.01       1.4  T
   3    -71.2397738  0.194514E-06  0.273E-03    3.01       5.6  T
   4    -71.2397741 -0.240138E-06  0.106E-03    3.01      14.4  T
   5    -71.2397741 -0.168058E-07  0.273E-04    3.01      55.8  T
   6    -71.2397741 -0.117807E-08  0.110E-04    3.01     138.1  T
     SCC iter.                  ...        0 min,  0.014 sec
     gradient                   ...        0 min,  0.024 sec
 * total energy  :   -70.3120473 Eh     change       -0.6311470E-05 Eh
   gradient norm :     0.0010978 Eh/α   predicted    -0.3240099E-05 ( -48.66%)
   displ. norm   :     0.1089418 α      lambda       -0.7945164E-05
   maximum displ.:     0.0470132 α      in ANC's #8, #6, #16, ...

........................................................................
.............................. CYCLE   17 ..............................
........................................................................

 iter      E             dE          RMSdq      gap      omega  full diag
   1    -71.2391846 -0.712392E+02  0.246E-02    3.01       0.0  T
   2    -71.2391848 -0.210719E-06  0.146E-02    3.01       1.0  T
   3    -71.2391845  0.353305E-06  0.358E-03    3.01       4.3  T
   4    -71.2391849 -0.431535E-06  0.904E-04    3.01      16.9  T
   5    -71.2391849 -0.195161E-07  0.425E-04    3.01      35.9  T
     SCC iter.                  ...        0 min,  0.012 sec
     gradient                   ...        0 min,  0.046 sec
 * total energy  :   -70.3120543 Eh     change       -0.7063193E-05 Eh
   gradient norm :     0.0011263 Eh/α   predicted    -0.4000737E-05 ( -43.36%)
   displ. norm   :     0.0541158 α      lambda       -0.5056846E-05
   maximum displ.:     0.0254179 α      in ANC's #6, #2, #7, ...

........................................................................
.............................. CYCLE   18 ..............................
........................................................................

 iter      E             dE          RMSdq      gap      omega  full diag
   1    -71.2393719 -0.712394E+02  0.132E-02    3.02       0.0  T
   2    -71.2393719 -0.910255E-07  0.765E-03    3.02       2.0  T
   3    -71.2393719  0.675663E-07  0.194E-03    3.02       7.9  T
   4    -71.2393720 -0.906042E-07  0.722E-04    3.02      21.1  T
   5    -71.2393720 -0.547742E-08  0.301E-04    3.02      50.7  T
     SCC iter.                  ...        0 min,  0.012 sec
     gradient                   ...        0 min,  0.024 sec
 * total energy  :   -70.3120599 Eh     change       -0.5523468E-05 Eh
   gradient norm :     0.0006142 Eh/α   predicted    -0.2533030E-05 ( -54.14%)
   displ. norm   :     0.0477359 α      lambda       -0.3531837E-05
   maximum displ.:     0.0197174 α      in ANC's #2, #14, #3, ...

........................................................................
.............................. CYCLE   19 ..............................
........................................................................

 iter      E             dE          RMSdq      gap      omega  full diag
   1    -71.2394874 -0.712395E+02  0.109E-02    3.02       0.0  T
   2    -71.2394875 -0.495171E-07  0.628E-03    3.02       2.4  T
   3    -71.2394874  0.220247E-07  0.133E-03    3.02      11.5  T
   4    -71.2394875 -0.352016E-07  0.534E-04    3.02      28.5  T
   5    -71.2394875 -0.249250E-08  0.210E-04    3.02      72.5  T
     SCC iter.                  ...        0 min,  0.039 sec
     gradient                   ...        0 min,  0.025 sec
 * total energy  :   -70.3120634 Eh     change       -0.3520743E-05 Eh
   gradient norm :     0.0004388 Eh/α   predicted    -0.1772481E-05 ( -49.66%)
   displ. norm   :     0.0349957 α      lambda       -0.1662319E-05
   maximum displ.:     0.0159560 α      in ANC's #3, #2, #5, ...

   *** GEOMETRY OPTIMIZATION CONVERGED AFTER 19 ITERATIONS ***

------------------------------------------------------------------------
 total energy gain   :        -0.0128524 Eh       -8.0650 kcal/mol
 total RMSD          :         0.3219221 a0        0.1704 Å
 total power (kW/mol):        -1.7759980 (step)  -26.6566 (real)
------------------------------------------------------------------------

 ANCopt (total)                0 d,  0 h,  0 min,  1.266 sec
 optimizer setup                ...        0 min,  0.000 sec (  0.006%)
 model hessian                  ...        0 min,  0.009 sec (  0.749%)
 ANC generation                 ...        0 min,  0.002 sec (  0.121%)
 coordinate transformation      ...        0 min,  0.000 sec (  0.011%)
 single point calculation       ...        0 min,  1.248 sec ( 98.621%)
 optimization log               ...        0 min,  0.003 sec (  0.253%)
 hessian update                 ...        0 min,  0.000 sec (  0.020%)
 rational function              ...        0 min,  0.001 sec (  0.104%)

================
 final structure:
================
43
 xtb: 6.7.1 (edcfbbe)
C           -6.36627981495410       -0.52511574296994       -0.86120303986001
C           -4.87554287036230       -0.39305799635164       -0.84840742462980
C           -4.15067739306793       -0.32761630861236        0.34572605325593
O           -4.80516947477066       -0.38833841154227        1.56404875341065
C           -5.29187075842854        0.85776758411500        2.01582120027606
C           -2.75732829470871       -0.24586488843054        0.31462587921522
C           -1.95811560565205       -0.19866740302977        1.57980543100474
C           -4.14443300735211       -0.33776565291070       -2.02811042520643
N           -2.83219001778434       -0.23098817618962       -2.07741588835814
C           -2.14743418039476       -0.19446522571567       -0.94408628347734
C           -0.66781953518741       -0.12169260844281       -1.07470215449594
S            0.06651367568646       -1.78911887747658       -0.64143975362450
C            1.72566582104123       -1.11416574100620       -0.44265085145387
N            2.12280578007193       -0.24871985319892        0.44595204409272
C            3.46650505229101       -0.09196543188114        0.21188185441762
C            3.85853776525624       -0.91817006914672       -0.86838903839718
N            2.71319177598863       -1.56420486904621       -1.25713774111825
C            5.17105593976015       -0.94712070054495       -1.31571800751813
C            6.07392222873713       -0.14360714232487       -0.66108596088231
C            5.69797271869694        0.68042528612042        0.41869524726247
O            6.72008066999749        1.40771949442912        0.95396224487379
C            6.44044107555445        2.24741363356415        2.04689834616287
C            4.39000793584899        0.71854698332372        0.86693334442225
O            0.18357947814127       -2.55652783210204       -1.88323342509917
H           -6.68005975322944       -1.16065004841040       -1.68606100470650
H           -6.83533129006405        0.45085900883029       -0.99320168252947
H           -6.71415804445216       -0.95561520932561        0.07482881205807
H           -5.78568738503353        0.66267855985024        2.96617162896742
H           -4.47469913939868        1.57157715793785        2.16848881036408
H           -6.01103964876559        1.29070667717948        1.31344464996799
H           -1.17560712830284       -0.95394840506778        1.57552954583069
H           -1.48106628626764        0.77546465422868        1.69284112264575
H           -2.60922159853375       -0.37422580908865        2.43219884493622
H           -4.64527509376216       -0.38003464252512       -2.98644255140410
H           -0.38935483713591        0.08785616396347       -2.10466399487163
H           -0.21796112366097        0.58142890355712       -0.37840056112446
H            2.56764813236072       -2.22632133533939       -2.00332373783594
H            5.47296439011869       -1.57413106426317       -2.14003276131132
H            7.10981257934767       -0.12237851171301       -0.95906989521313
H            5.71417225804067        3.02285355457996        1.78254158496569
H            6.06731531132366        1.67845829426175        2.90468067097701
H            7.38795713605735        2.71541446843902        2.30899171122842
H            4.06567255694796        1.33510753227722        1.68740840278400

 Bond Distances (Angstroems)
 ---------------------------
C1-C2=1.4966         C1-H25=1.0875        C1-H26=1.0909        C1-H27=1.0874        C2-C1=1.4966         C2-C3=1.3985         
C2-C8=1.3890         C3-C2=1.3985         C3-O4=1.3843         C3-C6=1.3961         O4-C3=1.3843         O4-C5=1.4120         
C5-O4=1.4120         C5-H28=1.0886        C5-H29=1.0957        C5-H30=1.0945        C6-C3=1.3961         C6-C7=1.4972         
C6-C10=1.3996        C7-C6=1.4972         C7-H31=1.0876        C7-H32=1.0905        C7-H33=1.0869        C8-C2=1.3890         
C8-N9=1.3175         C8-H34=1.0821        N9-C8=1.3175         N9-C10=1.3246        C10-C6=1.3996        C10-N9=1.3246        
C10-C11=1.4872       C11-C10=1.4872       C11-S12=1.8728       C11-H35=1.0873       C11-H36=1.0870       S12-C11=1.8728       
S12-C13=1.8022       S12-O24=1.4645       C13-S12=1.8022       C13-N14=1.3024       C13-N17=1.3569       N14-C13=1.3024       
N14-C15=1.3729       C15-N14=1.3729       C15-C16=1.4154       C15-C23=1.3924       C16-C15=1.4154       C16-N17=1.3712       
C16-C18=1.3870       N17-C13=1.3569       N17-C16=1.3712       N17-H37=1.0082       C18-C16=1.3870       C18-C19=1.3745       
C18-H38=1.0788       C19-C18=1.3745       C19-C20=1.4094       C19-H39=1.0781       C20-C19=1.4094       C20-O21=1.3639       
C20-C23=1.3832       O21-C20=1.3639       O21-C22=1.4063       C22-O21=1.4063       C22-H40=1.0948       C22-H41=1.0949       
C22-H42=1.0888       C23-C15=1.3924       C23-C20=1.3832       C23-H43=1.0763       O24-S12=1.4645       H25-C1=1.0875        
H26-C1=1.0909        H27-C1=1.0874        H28-C5=1.0886        H29-C5=1.0957        H30-C5=1.0945        H31-C7=1.0876        
H32-C7=1.0905        H33-C7=1.0869        H34-C8=1.0821        H35-C11=1.0873       H36-C11=1.0870       H37-N17=1.0082       
H38-C18=1.0788       H39-C19=1.0781       H40-C22=1.0948       H41-C22=1.0949       H42-C22=1.0888       H43-C23=1.0763       
 C  H  Rav=1.0877 sigma=0.0056  Rmin=1.0763  Rmax=1.0957    18
 C  C  Rav=1.4174 sigma=0.0430  Rmin=1.3745  Rmax=1.4972    13
 N  H  Rav=1.0082 sigma=0.0000  Rmin=1.0082  Rmax=1.0082     1
 N  C  Rav=1.3409 sigma=0.0274  Rmin=1.3024  Rmax=1.3729     6
 O  C  Rav=1.3916 sigma=0.0191  Rmin=1.3639  Rmax=1.4120     4
 S  C  Rav=1.8375 sigma=0.0353  Rmin=1.8022  Rmax=1.8728     2
 S  O  Rav=1.4645 sigma=0.0000  Rmin=1.4645  Rmax=1.4645     1

 selected bond angles (degree)
 --------------------
H25-C1-C2=110.21               H26-C1-C2=110.51               H26-C1-H25=107.88              H27-C1-C2=110.26               
H27-C1-H25=109.22              H27-C1-H26=108.71              C3-C2-C1=121.85                C8-C2-C1=121.37                
C8-C2-C3=116.78                O4-C3-C2=120.29                C6-C3-C2=120.07                C6-C3-O4=119.61                
C5-O4-C3=113.94                H28-C5-O4=106.11               H29-C5-O4=111.25               H29-C5-H28=109.48              
H30-C5-O4=111.73               H30-C5-H28=109.45              H30-C5-H29=108.77              C7-C6-C3=121.05                
C10-C6-C3=117.20               C10-C6-C7=121.75               H31-C7-C6=111.03               H32-C7-C6=110.44               
H32-C7-H31=107.82              H33-C7-C6=109.75               H33-C7-H31=108.78              H33-C7-H32=108.97              
N9-C8-C2=124.01                H34-C8-C2=120.46               H34-C8-N9=115.53               C10-N9-C8=119.02               
N9-C10-C6=122.90               C11-C10-C6=120.95              C11-C10-N9=116.14              

 selected dihedral angles (degree)
 ---------------------------------
C3-C2-C1-H25=216.32           C3-C2-C1-H26= 97.18           C3-C2-C1-H27=336.97           C8-C2-C1-H25= 35.92           
C8-C2-C1-H26=276.78           C8-C2-C1-H27=156.57           O4-C3-C2-C1=  0.19            O4-C3-C2-C8=180.57            
C6-C3-C2-C1=178.03            C6-C3-C2-C8=358.41            C5-O4-C3-C2=275.01            C5-O4-C3-C6= 97.15            
H28-C5-O4-C3=179.45           H29-C5-O4-C3=298.44           H30-C5-O4-C3= 60.22           C7-C6-C3-C2=181.07            
C7-C6-C3-O4=358.93            C10-C6-C3-C2=  1.80           C10-C6-C3-O4=179.66           H31-C7-C6-C3=128.01           
H31-C7-C6-C10=307.24          H32-C7-C6-C3=247.56           H32-C7-C6-C10= 66.79          H33-C7-C6-C3=  7.71           
H33-C7-C6-C10=186.95          N9-C8-C2-C1=180.47            N9-C8-C2-C3=  0.09            H34-C8-C2-C1=  0.59           
H34-C8-C2-C3=180.22           C10-N9-C8-C2=  1.15           C10-N9-C8-H34=181.04          N9-C10-C6-C3=359.45           
N9-C10-C6-C7=180.18           C11-C10-C6-C3=180.68          C11-C10-C6-C7=  1.42          C6-C10-N9-C8=359.09           
C11-C10-N9-C8=177.91          
           -------------------------------------------------
          |                Final Singlepoint                |
           -------------------------------------------------

          ...................................................
          :                      SETUP                      :
          :.................................................:
          :  # basis functions                 121          :
          :  # atomic orbitals                 120          :
          :  # shells                           68          :
          :  # electrons                       126          :
          :  max. iterations                   250          :
          :  Hamiltonian                  GFN2-xTB          :
          :  restarted?                      false          :
          :  GBSA solvation                  false          :
          :  PC potential                    false          :
          :  electronic temp.          300.0000000     K    :
          :  accuracy                    1.0000000          :
          :  -> integral cutoff          0.2500000E+02      :
          :  -> integral neglect         0.1000000E-07      :
          :  -> SCF convergence          0.1000000E-05 Eh   :
          :  -> wf. convergence          0.1000000E-03 e    :
          :  Broyden damping             0.4000000          :
          :  net charge                          0          :
          :  unpaired electrons                  0          :
          ...................................................

 iter      E             dE          RMSdq      gap      omega  full diag
   1    -71.2394875 -0.712395E+02  0.791E-05    3.02       0.0  T
   2    -71.2394875 -0.305107E-10  0.536E-05    3.02     284.7  T
   3    -71.2394875 -0.171383E-10  0.368E-05    3.02     414.3  T

   *** convergence criteria satisfied after 3 iterations ***

         #    Occupation            Energy/Eh            Energy/eV
      -------------------------------------------------------------
         1        2.0000           -0.7606695             -20.6989
       ...           ...                  ...                  ...
        57        2.0000           -0.4083631             -11.1121
        58        2.0000           -0.4050224             -11.0212
        59        2.0000           -0.3979412             -10.8285
        60        2.0000           -0.3933044             -10.7024
        61        2.0000           -0.3861055             -10.5065
        62        2.0000           -0.3764546             -10.2439
        63        2.0000           -0.3705300             -10.0826 (HOMO)
        64                         -0.2596192              -7.0646 (LUMO)
        65                         -0.2442540              -6.6465
        66                         -0.2353968              -6.4055
        67                         -0.2092645              -5.6944
        68                         -0.2050233              -5.5790
       ...                                ...                  ...
       120                          0.9178872              24.9770
      -------------------------------------------------------------
                  HL-Gap            0.1109108 Eh            3.0180 eV
             Fermi-level           -0.3150746 Eh           -8.5736 eV

 SCC (total)                   0 d,  0 h,  0 min,  0.040 sec
 SCC setup                      ...        0 min,  0.000 sec (  0.786%)
 Dispersion                     ...        0 min,  0.000 sec (  0.781%)
 classical contributions        ...        0 min,  0.000 sec (  0.361%)
 integral evaluation            ...        0 min,  0.008 sec ( 19.582%)
 iterations                     ...        0 min,  0.007 sec ( 17.361%)
 molecular gradient             ...        0 min,  0.025 sec ( 60.743%)
 printout                       ...        0 min,  0.000 sec (  0.371%)

         :::::::::::::::::::::::::::::::::::::::::::::::::::::
         ::                     SUMMARY                     ::
         :::::::::::::::::::::::::::::::::::::::::::::::::::::
         :: total energy             -70.312063372498 Eh    ::
         :: gradient norm              0.000438301151 Eh/a0 ::
         :: HOMO-LUMO gap              3.018037570108 eV    ::
         ::.................................................::
         :: SCC energy               -71.239730960432 Eh    ::
         :: -> isotropic ES            0.091864504429 Eh    ::
         :: -> anisotropic ES          0.005725916650 Eh    ::
         :: -> anisotropic XC          0.029679375143 Eh    ::
         :: -> dispersion             -0.047346608200 Eh    ::
         :: repulsion energy           0.927667587934 Eh    ::
         :: add. restraining           0.000000000000 Eh    ::
         :: total charge              -0.000000000000 e     ::
         :::::::::::::::::::::::::::::::::::::::::::::::::::::

           -------------------------------------------------
          |                Property Printout                |
           -------------------------------------------------

    * Orbital Energies and Occupations

         #    Occupation            Energy/Eh            Energy/eV
      -------------------------------------------------------------
         1        2.0000           -0.7606695             -20.6989
       ...           ...                  ...                  ...
        51        2.0000           -0.4551116             -12.3842
        52        2.0000           -0.4500891             -12.2475
        53        2.0000           -0.4427596             -12.0481
        54        2.0000           -0.4380267             -11.9193
        55        2.0000           -0.4230166             -11.5109
        56        2.0000           -0.4179661             -11.3734
        57        2.0000           -0.4083631             -11.1121
        58        2.0000           -0.4050224             -11.0212
        59        2.0000           -0.3979412             -10.8285
        60        2.0000           -0.3933044             -10.7024
        61        2.0000           -0.3861055             -10.5065
        62        2.0000           -0.3764546             -10.2439
        63        2.0000           -0.3705300             -10.0826 (HOMO)
        64                         -0.2596192              -7.0646 (LUMO)
        65                         -0.2442540              -6.6465
        66                         -0.2353968              -6.4055
        67                         -0.2092645              -5.6944
        68                         -0.2050233              -5.5790
        69                         -0.1838162              -5.0019
        70                         -0.1696172              -4.6155
        71                         -0.1192835              -3.2459
        72                         -0.0851151              -2.3161
        73                         -0.0467870              -1.2731
        74                          0.0003328               0.0091
       ...                                ...                  ...
       120                          0.9178872              24.9770
      -------------------------------------------------------------
                  HL-Gap            0.1109108 Eh            3.0180 eV
             Fermi-level           -0.3150746 Eh           -8.5736 eV

     #   Z          covCN         q      C6AA      α(0)
     1   6 C        3.757    -0.104    22.543     6.770
     2   6 C        2.958    -0.016    28.403     8.741
     3   6 C        2.894     0.135    25.045     8.205
     4   8 O        1.703    -0.307    19.114     5.903
     5   6 C        3.655     0.045    20.101     6.436
     6   6 C        2.961    -0.023    28.573     8.768
     7   6 C        3.757    -0.115    22.754     6.801
     8   6 C        2.912     0.042    27.054     8.529
     9   7 N        1.842    -0.235    26.988     7.699
    10   6 C        3.001     0.078    26.239     8.403
    11   6 C        3.801    -0.090    22.220     6.711
    12  16 S        2.870     0.411   125.402    18.848
    13   6 C        3.206     0.105    25.126     8.163
    14   7 N        1.894    -0.295    28.484     7.912
    15   6 C        3.224     0.067    25.784     8.252
    16   6 C        3.102     0.033    27.124     8.534
    17   7 N        2.801    -0.108    23.354     7.177
    18   6 C        2.906    -0.049    29.227     8.865
    19   6 C        2.928    -0.056    29.399     8.892
    20   6 C        2.870     0.137    25.003     8.197
    21   8 O        1.706    -0.268    18.444     5.798
    22   6 C        3.645     0.036    20.307     6.477
    23   6 C        2.908    -0.081    30.031     8.986
    24   8 O        0.860    -0.485    23.455     6.493
    25   1 H        0.925     0.048     2.344     2.394
    26   1 H        0.924     0.047     2.362     2.403
    27   1 H        0.925     0.059     2.211     2.325
    28   1 H        0.925     0.058     2.221     2.331
    29   1 H        0.924     0.032     2.561     2.503
    30   1 H        0.924     0.034     2.533     2.489
    31   1 H        0.925     0.054     2.276     2.359
    32   1 H        0.924     0.053     2.286     2.365
    33   1 H        0.925     0.065     2.139     2.287
    34   1 H        0.925     0.046     2.370     2.408
    35   1 H        0.925     0.085     1.925     2.170
    36   1 H        0.925     0.074     2.041     2.234
    37   1 H        0.860     0.191     1.152     1.681
    38   1 H        0.926     0.042     2.423     2.434
    39   1 H        0.926     0.056     2.243     2.342
    40   1 H        0.924     0.041     2.432     2.439
    41   1 H        0.924     0.042     2.426     2.436
    42   1 H        0.925     0.063     2.168     2.302
    43   1 H        0.926     0.052     2.299     2.371

 Mol. C6AA /au·bohr⁶  :      23675.856237
 Mol. C8AA /au·bohr⁸  :     592209.370368
 Mol. α(0) /au        :        239.831927


Wiberg/Mayer (AO) data.
largest (>0.10) Wiberg bond orders for each atom

 ---------------------------------------------------------------------------
     #   Z sym  total        # sym  WBO       # sym  WBO       # sym  WBO
 ---------------------------------------------------------------------------
     1   6 C    3.995 --     2 C    1.027    27 H    0.980    25 H    0.978
                            26 H    0.966
     2   6 C    3.983 --     8 C    1.398     3 C    1.362     1 C    1.027
     3   6 C    3.944 --     6 C    1.383     2 C    1.362     4 O    1.001
     4   8 O    2.107 --     3 C    1.001     5 C    0.971
     5   6 C    3.948 --    28 H    0.980    29 H    0.980    30 H    0.978
                             4 O    0.971
     6   6 C    3.987 --     3 C    1.383    10 C    1.352     7 C    1.029
                             8 C    0.103
     7   6 C    3.993 --     6 C    1.029    33 H    0.980    31 H    0.969
                            32 H    0.965
     8   6 C    3.982 --     9 N    1.440     2 C    1.398    34 H    0.961
                             6 C    0.103
     9   7 N    3.062 --     8 C    1.440    10 C    1.405
    10   6 C    3.982 --     9 N    1.405     6 C    1.352    11 C    1.030
    11   6 C    3.978 --    10 C    1.030    35 H    0.966    36 H    0.960
                            12 S    0.873
    12  16 S    3.777 --    24 O    1.818    13 C    0.931    11 C    0.873
    13   6 C    3.946 --    14 N    1.538    17 N    1.236    12 S    0.931
    14   7 N    3.010 --    13 C    1.538    15 C    1.208    17 N    0.125
    15   6 C    3.977 --    23 C    1.322    16 C    1.253    14 N    1.208
    16   6 C    3.951 --    18 C    1.330    15 C    1.253    17 N    1.153
    17   7 N    3.567 --    13 C    1.236    16 C    1.153    37 H    0.930
                            14 N    0.125
    18   6 C    3.988 --    19 C    1.513    16 C    1.330    38 H    0.967
                            23 C    0.106
    19   6 C    3.981 --    18 C    1.513    20 C    1.296    39 H    0.968
    20   6 C    3.934 --    23 C    1.433    19 C    1.296    21 O    1.060
    21   8 O    2.225 --    20 C    1.060    22 C    0.986
    22   6 C    3.946 --    21 O    0.986    42 H    0.980    41 H    0.976
                            40 H    0.976
    23   6 C    3.982 --    20 C    1.433    15 C    1.322    43 H    0.963
                            18 C    0.106
    24   8 O    1.997 --    12 S    1.818
    25   1 H    0.997 --     1 C    0.978
    26   1 H    0.997 --     1 C    0.966
    27   1 H    0.996 --     1 C    0.980
    28   1 H    0.996 --     5 C    0.980
    29   1 H    0.999 --     5 C    0.980
    30   1 H    0.999 --     5 C    0.978
    31   1 H    0.997 --     7 C    0.969
    32   1 H    0.997 --     7 C    0.965
    33   1 H    0.996 --     7 C    0.980
    34   1 H    0.997 --     8 C    0.961
    35   1 H    0.992 --    11 C    0.966
    36   1 H    0.994 --    11 C    0.960
    37   1 H    0.963 --    17 N    0.930
    38   1 H    0.998 --    18 C    0.967
    39   1 H    0.996 --    19 C    0.968
    40   1 H    0.998 --    22 C    0.976
    41   1 H    0.998 --    22 C    0.976
    42   1 H    0.996 --    22 C    0.980
    43   1 H    0.997 --    23 C    0.963
 ---------------------------------------------------------------------------

Topologies differ in total number of bonds
Writing topology from bond orders to xtbtopo.mol

molecular dipole:
                 x           y           z       tot (Debye)
 q only:       -0.206       1.132       1.032
   full:       -0.263       1.223       0.843       3.832
molecular quadrupole (traceless):
                xx          xy          yy          xz          yz          zz
 q only:       12.226      -4.816      -7.329      -0.469       0.804      -4.898
  q+dip:       15.620      -7.684     -10.351      -3.176       3.502      -5.269
   full:       13.869      -8.628      -6.977      -2.361       2.332      -6.892

           -------------------------------------------------
          |                Geometry Summary                 |
           -------------------------------------------------

      molecular mass/u    :      345.4164963
   center of mass at/Å    :        0.3146776      -0.3381029      -0.1681899
  moments of inertia/u·Å² :        0.9166717E+03   0.5973881E+04   0.6584851E+04
rotational constants/cm⁻¹ :        0.1839004E-01   0.2821889E-02   0.2560063E-02

 * 42 selected distances

     #   Z          #   Z                                           value/Å
     2   6 C        3   6 C                                       1.3984519
     3   6 C        4   8 O                                       1.3843257
     4   8 O        5   6 C                                       1.4120046
     3   6 C        6   6 C                                       1.3960919
     2   6 C        8   6 C                                       1.3889847
     8   6 C        9   7 N                                       1.3175031
     6   6 C       10   6 C                                       1.3996319
     9   7 N       10   6 C                                       1.3246361
    10   6 C       11   6 C                                       1.4871504
    12  16 S       13   6 C                                       1.8021835 (max)
    13   6 C       14   7 N                                       1.3024332
    14   7 N       15   6 C                                       1.3729126
    15   6 C       16   6 C                                       1.4153760
    13   6 C       17   7 N                                       1.3568832
    16   6 C       17   7 N                                       1.3712419
    16   6 C       18   6 C                                       1.3869555
    18   6 C       19   6 C                                       1.3745345
    19   6 C       20   6 C                                       1.4093599
    20   6 C       21   8 O                                       1.3638815
    21   8 O       22   6 C                                       1.4063407
    15   6 C       23   6 C                                       1.3924370
    20   6 C       23   6 C                                       1.3831641
    12  16 S       24   8 O                                       1.4644702
     1   6 C       25   1 H                                       1.0875443
     1   6 C       26   1 H                                       1.0908528
     1   6 C       27   1 H                                       1.0874304
     5   6 C       28   1 H                                       1.0886141
     5   6 C       29   1 H                                       1.0957195
     5   6 C       30   1 H                                       1.0945196
     7   6 C       31   1 H                                       1.0875603
     7   6 C       32   1 H                                       1.0905442
     7   6 C       33   1 H                                       1.0868921
     8   6 C       34   1 H                                       1.0821415
    11   6 C       35   1 H                                       1.0873246
    11   6 C       36   1 H                                       1.0870090
    17   7 N       37   1 H                                       1.0081542 (min)
    18   6 C       38   1 H                                       1.0787890
    19   6 C       39   1 H                                       1.0781067
    22   6 C       40   1 H                                       1.0948325
    22   6 C       41   1 H                                       1.0948624
    22   6 C       42   1 H                                       1.0888088
    23   6 C       43   1 H                                       1.0763456

 * 7 distinct bonds (by element types)

   Z      Z             #   av. dist./Å        max./Å        min./Å
   1 H    6 C          18     1.0876610     1.0957195     1.0763456
   6 C    6 C          11     1.4029216     1.4871504     1.3745345
   1 H    7 N           1     1.0081542     1.0081542     1.0081542
   6 C    7 N           6     1.3409350     1.3729126     1.3024332
   6 C    8 O           4     1.3916381     1.4120046     1.3638815
   6 C   16 S           1     1.8021835     1.8021835     1.8021835
   8 O   16 S           1     1.4644702     1.4644702     1.4644702


optimized geometry written to: xtbopt.xyz


           -------------------------------------------------
          | TOTAL ENERGY              -70.312063372498 Eh   |
          | GRADIENT NORM               0.000438301151 Eh/α |
          | HOMO-LUMO GAP               3.018037570108 eV   |
           -------------------------------------------------

------------------------------------------------------------------------
 * finished run on 2025/05/15 at 16:36:46.486     
------------------------------------------------------------------------
 total:
 * wall-time:     0 d,  0 h,  0 min,  1.424 sec
 *  cpu-time:     0 d,  0 h,  0 min,  1.037 sec
 * ratio c/w:     0.728 speedup
 SCF:
 * wall-time:     0 d,  0 h,  0 min,  0.074 sec
 *  cpu-time:     0 d,  0 h,  0 min,  0.065 sec
 * ratio c/w:     0.886 speedup
 ANC optimizer:
 * wall-time:     0 d,  0 h,  0 min,  1.308 sec
 *  cpu-time:     0 d,  0 h,  0 min,  0.959 sec
 * ratio c/w:     0.733 speedup



----- Single-point -----
      -----------------------------------------------------------      
     |                   =====================                   |     
     |                           x T B                           |     
     |                   =====================                   |     
     |                         S. Grimme                         |     
     |          Mulliken Center for Theoretical Chemistry        |     
     |                    University of Bonn                     |     
      -----------------------------------------------------------      

   * xtb version 6.7.1 (edcfbbe) compiled by 'conda@3ef47c1a292c' on 2024-11-25

   xtb is free software: you can redistribute it and/or modify it under
   the terms of the GNU Lesser General Public License as published by
   the Free Software Foundation, either version 3 of the License, or
   (at your option) any later version.
   
   xtb is distributed in the hope that it will be useful,
   but WITHOUT ANY WARRANTY; without even the implied warranty of
   MERCHANTABILITY or FITNESS FOR A PARTICULAR PURPOSE.  See the
   GNU Lesser General Public License for more details.
   
   Cite this work as:
   * C. Bannwarth, E. Caldeweyher, S. Ehlert, A. Hansen, P. Pracht,
     J. Seibert, S. Spicher, S. Grimme, WIREs Comput. Mol. Sci., 2020, 11,
     e01493. DOI: 10.1002/wcms.1493
   
   for GFN2-xTB:
   * C. Bannwarth, S. Ehlert and S. Grimme., J. Chem. Theory Comput., 2019,
     15, 1652-1671. DOI: 10.1021/acs.jctc.8b01176
   for GFN1-xTB:
   * S. Grimme, C. Bannwarth, P. Shushkov, J. Chem. Theory Comput., 2017,
     13, 1989-2009. DOI: 10.1021/acs.jctc.7b00118
   for GFN0-xTB:
   * P. Pracht, E. Caldeweyher, S. Ehlert, S. Grimme, ChemRxiv, 2019, preprint.
     DOI: 10.26434/chemrxiv.8326202.v1
   for GFN-FF:
   * S. Spicher and S. Grimme, Angew. Chem. Int. Ed., 2020, 59, 15665-15673.
     DOI: 10.1002/anie.202004239
   
   for ALPB and GBSA implicit solvation:
   * S. Ehlert, M. Stahn, S. Spicher, S. Grimme, J. Chem. Theory Comput.,
     2021, 17, 4250-4261. DOI: 10.1021/acs.jctc.1c00471
   
   for ddCOSMO and CPCM-X implicit solvation:
   * M. Stahn, S. Ehlert, S. Grimme, J. Phys. Chem. A,
     2023, XX, XXXX-XXXX. DOI: 10.1021/acs.jpca.3c04382
   
   for DFT-D4:
   * E. Caldeweyher, C. Bannwarth and S. Grimme, J. Chem. Phys., 2017,
     147, 034112. DOI: 10.1063/1.4993215
   * E. Caldeweyher, S. Ehlert, A. Hansen, H. Neugebauer, S. Spicher,
     C. Bannwarth and S. Grimme, J. Chem. Phys., 2019, 150, 154122.
     DOI: 10.1063/1.5090222
   * E. Caldeweyher, J.-M. Mewes, S. Ehlert and S. Grimme, Phys. Chem. Chem. Phys.
     2020, 22, 8499-8512. DOI: 10.1039/D0CP00502A
   
   for sTDA-xTB:
   * S. Grimme and C. Bannwarth, J. Chem. Phys., 2016, 145, 054103.
     DOI: 10.1063/1.4959605
   
   in the mass-spec context:
   * V. Asgeirsson, C. Bauer and S. Grimme, Chem. Sci., 2017, 8, 4879.
     DOI: 10.1039/c7sc00601b
   * J. Koopman and S. Grimme, ACS Omega 2019, 4, 12, 15120-15133.
     DOI: 10.1021/acsomega.9b02011
   
   for metadynamics refer to:
   * S. Grimme, J. Chem. Theory Comput., 2019, 155, 2847-2862
     DOI: 10.1021/acs.jctc.9b00143
   
   for SPH calculations refer to:
   * S. Spicher and S. Grimme, J. Chem. Theory Comput., 2021, 17, 1701-1714
     DOI: 10.1021/acs.jctc.0c01306
   
   for ONIOM refer to:
   * C. Plett, A. Katbashev, S. Ehlert, S. Grimme, M. Bursch,
     Phys. Chem. Chem. Phys., 2023, 25, 17860-17868. DOI: 10.1039/D3CP02178E
   
   for DIPRO refer to:
   * J. Kohn, N. Gildemeister, S. Grimme, D. Fazzi, A. Hansen,
     J. Chem. Phys., 2023, just accepted.
   
   for PTB refer to:
   * S. Grimme, M. Mueller, A. Hansen, J. Chem. Phys., 2023, 158, 124111.
     DOI: 10.1063/5.0137838
   
   with help from (in alphabetical order)
   P. Atkinson, C. Bannwarth, F. Bohle, G. Brandenburg, E. Caldeweyher
   M. Checinski, S. Dohm, S. Ehlert, S. Ehrlich, I. Gerasimov, C. Hölzer
   A. Katbashev, J. Kohn, J. Koopman, C. Lavigne, S. Lehtola, F. März, M. Müller,
   F. Musil, H. Neugebauer, J. Pisarek, C. Plett, P. Pracht, F. Pultar,
   J. Seibert, P. Shushkov, S. Spicher, M. Stahn, M. Steiner, T. Strunk,
   J. Stückrath, T. Rose, and J. Unsleber
   
 * started run on 2025/05/15 at 16:36:46.498     
   ID    Z sym.   atoms
    1    6 C      1-3, 5-8, 10, 11, 13, 15, 16, 18-20, 22, 23
    2    8 O      4, 21, 24
    3    7 N      9, 14, 17
    4   16 S      12
    5    1 H      25-43

           -------------------------------------------------
          |                Calculation Setup                |
           -------------------------------------------------

          program call               : xtb /rds/general/user/hgt20/home/callum/QDESCP/Omeprazole_rdkit_conf_12/Omeprazole_rdkit_conf_12.xyz --acc 1 --gfn 2 --chrg 0 --uhf 0 --etemp 300 --input /rds/general/user/hgt20/home/callum/QDESCP/Omeprazole_rdkit_conf_12/Omeprazole_rdkit_conf_12_xtb.inp -P 1
          hostname                   : login-c
          coordinate file            : /rds/general/user/hgt20/home/callum/QDESCP/Omeprazole_rdkit_conf_12/Omeprazole_rdkit_conf_12.xyz
          omp threads                :                     1


           -------------------------------------------------
          |                 G F N 2 - x T B                 |
           -------------------------------------------------

        Reference                      10.1021/acs.jctc.8b01176
      * Hamiltonian:
        H0-scaling (s, p, d)           1.850000    2.230000    2.230000
        zeta-weighting                 0.500000
      * Dispersion:
        s8                             2.700000
        a1                             0.520000
        a2                             5.000000
        s9                             5.000000
      * Repulsion:
        kExp                           1.500000    1.000000
        rExp                           1.000000
      * Coulomb:
        alpha                          2.000000
        third order                    shell-resolved
        anisotropic                    true
        a3                             3.000000
        a5                             4.000000
        cn-shift                       1.200000
        cn-exp                         4.000000
        max-rad                        5.000000

q/qsh data taken from xtbrestart
CAMM data taken from xtbrestart

          ...................................................
          :                      SETUP                      :
          :.................................................:
          :  # basis functions                 121          :
          :  # atomic orbitals                 120          :
          :  # shells                           68          :
          :  # electrons                       126          :
          :  max. iterations                   250          :
          :  Hamiltonian                  GFN2-xTB          :
          :  restarted?                       true          :
          :  GBSA solvation                  false          :
          :  PC potential                    false          :
          :  electronic temp.          300.0000000     K    :
          :  accuracy                    1.0000000          :
          :  -> integral cutoff          0.2500000E+02      :
          :  -> integral neglect         0.1000000E-07      :
          :  -> SCF convergence          0.1000000E-05 Eh   :
          :  -> wf. convergence          0.1000000E-03 e    :
          :  Broyden damping             0.4000000          :
          :  net charge                          0          :
          :  unpaired electrons                  0          :
          ...................................................

 iter      E             dE          RMSdq      gap      omega  full diag
   1    -71.2394875 -0.712395E+02  0.839E-06    3.02       0.0  T
   2    -71.2394875 -0.112266E-11  0.545E-06    3.02    2796.5  T
   3    -71.2394875 -0.341061E-12  0.352E-06    3.02    4337.5  T

   *** convergence criteria satisfied after 3 iterations ***

         #    Occupation            Energy/Eh            Energy/eV
      -------------------------------------------------------------
         1        2.0000           -0.7606697             -20.6989
       ...           ...                  ...                  ...
        57        2.0000           -0.4083631             -11.1121
        58        2.0000           -0.4050226             -11.0212
        59        2.0000           -0.3979413             -10.8285
        60        2.0000           -0.3933046             -10.7024
        61        2.0000           -0.3861056             -10.5065
        62        2.0000           -0.3764546             -10.2439
        63        2.0000           -0.3705301             -10.0826 (HOMO)
        64                         -0.2596193              -7.0646 (LUMO)
        65                         -0.2442541              -6.6465
        66                         -0.2353969              -6.4055
        67                         -0.2092647              -5.6944
        68                         -0.2050233              -5.5790
       ...                                ...                  ...
       120                          0.9178867              24.9770
      -------------------------------------------------------------
                  HL-Gap            0.1109107 Eh            3.0180 eV
             Fermi-level           -0.3150747 Eh           -8.5736 eV

 SCC (total)                   0 d,  0 h,  0 min,  0.043 sec
 SCC setup                      ...        0 min,  0.000 sec (  0.881%)
 Dispersion                     ...        0 min,  0.000 sec (  1.110%)
 classical contributions        ...        0 min,  0.000 sec (  0.374%)
 integral evaluation            ...        0 min,  0.008 sec ( 19.497%)
 iterations                     ...        0 min,  0.008 sec ( 19.920%)
 molecular gradient             ...        0 min,  0.025 sec ( 57.644%)
 printout                       ...        0 min,  0.000 sec (  0.557%)

         :::::::::::::::::::::::::::::::::::::::::::::::::::::
         ::                     SUMMARY                     ::
         :::::::::::::::::::::::::::::::::::::::::::::::::::::
         :: total energy             -70.312063372509 Eh    ::
         :: gradient norm              0.000438209546 Eh/a0 ::
         :: HOMO-LUMO gap              3.018035114805 eV    ::
         ::.................................................::
         :: SCC energy               -71.239730960443 Eh    ::
         :: -> isotropic ES            0.091864159315 Eh    ::
         :: -> anisotropic ES          0.005725914817 Eh    ::
         :: -> anisotropic XC          0.029679360435 Eh    ::
         :: -> dispersion             -0.047346609146 Eh    ::
         :: repulsion energy           0.927667587934 Eh    ::
         :: add. restraining           0.000000000000 Eh    ::
         :: total charge              -0.000000000000 e     ::
         :::::::::::::::::::::::::::::::::::::::::::::::::::::

           -------------------------------------------------
          |                Property Printout                |
           -------------------------------------------------

    * Orbital Energies and Occupations

         #    Occupation            Energy/Eh            Energy/eV
      -------------------------------------------------------------
         1        2.0000           -0.7606697             -20.6989
       ...           ...                  ...                  ...
        51        2.0000           -0.4551117             -12.3842
        52        2.0000           -0.4500892             -12.2475
        53        2.0000           -0.4427597             -12.0481
        54        2.0000           -0.4380267             -11.9193
        55        2.0000           -0.4230168             -11.5109
        56        2.0000           -0.4179662             -11.3734
        57        2.0000           -0.4083631             -11.1121
        58        2.0000           -0.4050226             -11.0212
        59        2.0000           -0.3979413             -10.8285
        60        2.0000           -0.3933046             -10.7024
        61        2.0000           -0.3861056             -10.5065
        62        2.0000           -0.3764546             -10.2439
        63        2.0000           -0.3705301             -10.0826 (HOMO)
        64                         -0.2596193              -7.0646 (LUMO)
        65                         -0.2442541              -6.6465
        66                         -0.2353969              -6.4055
        67                         -0.2092647              -5.6944
        68                         -0.2050233              -5.5790
        69                         -0.1838165              -5.0019
        70                         -0.1696173              -4.6155
        71                         -0.1192836              -3.2459
        72                         -0.0851151              -2.3161
        73                         -0.0467873              -1.2731
        74                          0.0003326               0.0090
       ...                                ...                  ...
       120                          0.9178867              24.9770
      -------------------------------------------------------------
                  HL-Gap            0.1109107 Eh            3.0180 eV
             Fermi-level           -0.3150747 Eh           -8.5736 eV

     #   Z          covCN         q      C6AA      α(0)
     1   6 C        3.757    -0.104    22.543     6.770
     2   6 C        2.958    -0.016    28.403     8.741
     3   6 C        2.894     0.135    25.045     8.205
     4   8 O        1.703    -0.307    19.114     5.903
     5   6 C        3.655     0.045    20.101     6.436
     6   6 C        2.961    -0.023    28.573     8.768
     7   6 C        3.757    -0.115    22.754     6.801
     8   6 C        2.912     0.042    27.054     8.529
     9   7 N        1.842    -0.235    26.988     7.699
    10   6 C        3.001     0.078    26.239     8.403
    11   6 C        3.801    -0.090    22.220     6.711
    12  16 S        2.870     0.411   125.402    18.848
    13   6 C        3.206     0.105    25.126     8.163
    14   7 N        1.894    -0.295    28.484     7.912
    15   6 C        3.224     0.067    25.784     8.252
    16   6 C        3.102     0.033    27.124     8.534
    17   7 N        2.801    -0.108    23.354     7.177
    18   6 C        2.906    -0.049    29.227     8.865
    19   6 C        2.928    -0.056    29.399     8.892
    20   6 C        2.870     0.137    25.003     8.197
    21   8 O        1.706    -0.268    18.444     5.798
    22   6 C        3.645     0.036    20.307     6.477
    23   6 C        2.908    -0.081    30.031     8.986
    24   8 O        0.860    -0.485    23.455     6.493
    25   1 H        0.925     0.048     2.344     2.394
    26   1 H        0.924     0.047     2.362     2.403
    27   1 H        0.925     0.059     2.211     2.325
    28   1 H        0.925     0.058     2.221     2.331
    29   1 H        0.924     0.032     2.561     2.503
    30   1 H        0.924     0.034     2.533     2.489
    31   1 H        0.925     0.054     2.276     2.359
    32   1 H        0.924     0.053     2.286     2.365
    33   1 H        0.925     0.065     2.139     2.287
    34   1 H        0.925     0.046     2.370     2.408
    35   1 H        0.925     0.085     1.925     2.170
    36   1 H        0.925     0.074     2.041     2.234
    37   1 H        0.860     0.191     1.152     1.681
    38   1 H        0.926     0.042     2.423     2.434
    39   1 H        0.926     0.056     2.243     2.342
    40   1 H        0.924     0.041     2.432     2.439
    41   1 H        0.924     0.042     2.426     2.436
    42   1 H        0.925     0.063     2.168     2.302
    43   1 H        0.926     0.052     2.299     2.371

 Mol. C6AA /au·bohr⁶  :      23675.856548
 Mol. C8AA /au·bohr⁸  :     592209.373517
 Mol. α(0) /au        :        239.831929


Wiberg/Mayer (AO) data.
largest (>0.10) Wiberg bond orders for each atom

[...]
   
   for ddCOSMO and CPCM-X implicit solvation:
   * M. Stahn, S. Ehlert, S. Grimme, J. Phys. Chem. A,
     2023, XX, XXXX-XXXX. DOI: 10.1021/acs.jpca.3c04382
   
   for DFT-D4:
   * E. Caldeweyher, C. Bannwarth and S. Grimme, J. Chem. Phys., 2017,
     147, 034112. DOI: 10.1063/1.4993215
   * E. Caldeweyher, S. Ehlert, A. Hansen, H. Neugebauer, S. Spicher,
     C. Bannwarth and S. Grimme, J. Chem. Phys., 2019, 150, 154122.
     DOI: 10.1063/1.5090222
   * E. Caldeweyher, J.-M. Mewes, S. Ehlert and S. Grimme, Phys. Chem. Chem. Phys.
     2020, 22, 8499-8512. DOI: 10.1039/D0CP00502A
   
   for sTDA-xTB:
   * S. Grimme and C. Bannwarth, J. Chem. Phys., 2016, 145, 054103.
     DOI: 10.1063/1.4959605
   
   in the mass-spec context:
   * V. Asgeirsson, C. Bauer and S. Grimme, Chem. Sci., 2017, 8, 4879.
     DOI: 10.1039/c7sc00601b
   * J. Koopman and S. Grimme, ACS Omega 2019, 4, 12, 15120-15133.
     DOI: 10.1021/acsomega.9b02011
   
   for metadynamics refer to:
   * S. Grimme, J. Chem. Theory Comput., 2019, 155, 2847-2862
     DOI: 10.1021/acs.jctc.9b00143
   
   for SPH calculations refer to:
   * S. Spicher and S. Grimme, J. Chem. Theory Comput., 2021, 17, 1701-1714
     DOI: 10.1021/acs.jctc.0c01306
   
   for ONIOM refer to:
   * C. Plett, A. Katbashev, S. Ehlert, S. Grimme, M. Bursch,
     Phys. Chem. Chem. Phys., 2023, 25, 17860-17868. DOI: 10.1039/D3CP02178E
   
   for DIPRO refer to:
   * J. Kohn, N. Gildemeister, S. Grimme, D. Fazzi, A. Hansen,
     J. Chem. Phys., 2023, just accepted.
   
   for PTB refer to:
   * S. Grimme, M. Mueller, A. Hansen, J. Chem. Phys., 2023, 158, 124111.
     DOI: 10.1063/5.0137838
   
   with help from (in alphabetical order)
   P. Atkinson, C. Bannwarth, F. Bohle, G. Brandenburg, E. Caldeweyher
   M. Checinski, S. Dohm, S. Ehlert, S. Ehrlich, I. Gerasimov, C. Hölzer
   A. Katbashev, J. Kohn, J. Koopman, C. Lavigne, S. Lehtola, F. März, M. Müller,
   F. Musil, H. Neugebauer, J. Pisarek, C. Plett, P. Pracht, F. Pultar,
   J. Seibert, P. Shushkov, S. Spicher, M. Stahn, M. Steiner, T. Strunk,
   J. Stückrath, T. Rose, and J. Unsleber
   
 * started run on 2025/05/15 at 16:36:48.623     
   ID    Z sym.   atoms
    1    6 C      1-3, 5-8, 10, 11, 13, 15, 16, 18-20, 22, 23
    2    8 O      4, 21, 24
    3    7 N      9, 14, 17
    4   16 S      12
    5    1 H      25-43

           -------------------------------------------------
          |                Calculation Setup                |
           -------------------------------------------------

          program call               : xtb /rds/general/user/hgt20/home/callum/QDESCP/Omeprazole_rdkit_conf_12/Omeprazole_rdkit_conf_12.xyz --acc 1 --gfn 2 --chrg 0 --uhf 2 --etemp 300 --input /rds/general/user/hgt20/home/callum/QDESCP/Omeprazole_rdkit_conf_12/Omeprazole_rdkit_conf_12_xtb.inp -P 1
          hostname                   : login-c
          coordinate file            : /rds/general/user/hgt20/home/callum/QDESCP/Omeprazole_rdkit_conf_12/Omeprazole_rdkit_conf_12.xyz
          omp threads                :                     1


           -------------------------------------------------
          |                 G F N 2 - x T B                 |
           -------------------------------------------------

        Reference                      10.1021/acs.jctc.8b01176
      * Hamiltonian:
        H0-scaling (s, p, d)           1.850000    2.230000    2.230000
        zeta-weighting                 0.500000
      * Dispersion:
        s8                             2.700000
        a1                             0.520000
        a2                             5.000000
        s9                             5.000000
      * Repulsion:
        kExp                           1.500000    1.000000
        rExp                           1.000000
      * Coulomb:
        alpha                          2.000000
        third order                    shell-resolved
        anisotropic                    true
        a3                             3.000000
        a5                             4.000000
        cn-shift                       1.200000
        cn-exp                         4.000000
        max-rad                        5.000000


          ...................................................
          :                      SETUP                      :
          :.................................................:
          :  # basis functions                 121          :
          :  # atomic orbitals                 120          :
          :  # shells                           68          :
          :  # electrons                       126          :
          :  max. iterations                   250          :
          :  Hamiltonian                  GFN2-xTB          :
          :  restarted?                      false          :
          :  GBSA solvation                  false          :
          :  PC potential                    false          :
          :  electronic temp.          300.0000000     K    :
          :  accuracy                    1.0000000          :
          :  -> integral cutoff          0.2500000E+02      :
          :  -> integral neglect         0.1000000E-07      :
          :  -> SCF convergence          0.1000000E-05 Eh   :
          :  -> wf. convergence          0.1000000E-03 e    :
          :  Broyden damping             0.4000000          :
          :  net charge                          0          :
          :  unpaired electrons                  2          :
          ...................................................

 iter      E             dE          RMSdq      gap      omega  full diag
   1    -70.9468858 -0.709469E+02  0.437E+00    0.41       0.0  T
   2    -70.8377023  0.109184E+00  0.303E+00    0.42       1.0  T
   3    -70.7275960  0.110106E+00  0.253E+00    0.94       1.0  T
   4    -71.0462684 -0.318672E+00  0.125E+00    0.31       1.0  T
   5    -71.0102466  0.360218E-01  0.108E+00    0.51       1.0  T
   6    -71.0133712 -0.312467E-02  0.919E-01    0.20       1.0  T
   7    -70.9537920  0.595792E-01  0.117E+00    0.75       1.0  T
   8    -71.0660225 -0.112230E+00  0.883E-01    0.43       1.0  T
   9    -71.0757394 -0.971695E-02  0.594E-01    0.38       1.0  T
  10    -71.1133320 -0.375926E-01  0.255E-01    0.28       1.0  T
  11    -71.1066259  0.670613E-02  0.305E-01    0.30       1.0  T
  12    -71.1164782 -0.985225E-02  0.140E-01    0.25       1.0  T
  13    -71.1176814 -0.120329E-02  0.840E-02    0.26       1.0  T
  14    -71.1180627 -0.381312E-03  0.626E-02    0.25       1.0  T
  15    -71.1175457  0.517049E-03  0.742E-02    0.26       1.0  T
  16    -71.1182909 -0.745222E-03  0.134E-02    0.25       1.1  T
  17    -71.1181856  0.105305E-03  0.298E-02    0.25       1.0  T
  18    -71.1183005 -0.114859E-03  0.588E-03    0.25       2.6  T
  19    -71.1183038 -0.336090E-05  0.266E-03    0.25       5.7  T
  20    -71.1183045 -0.657144E-06  0.112E-03    0.25      13.6  T
  21    -71.1183046 -0.133422E-06  0.532E-04    0.25      28.7  T
  22    -71.1183047 -0.359949E-07  0.813E-05    0.25     187.6  T

   *** convergence criteria satisfied after 22 iterations ***

         #    Occupation            Energy/Eh            Energy/eV
      -------------------------------------------------------------
         1        2.0000           -0.7530650             -20.4919
       ...           ...                  ...                  ...
        58        2.0000           -0.4000087             -10.8848
        59        2.0000           -0.3927619             -10.6876
        60        1.9917           -0.3833946             -10.4327
        61        1.9684           -0.3821047             -10.3976
        62        1.7734           -0.3800203             -10.3409
        63        1.2666           -0.3778926             -10.2830
        64        0.9923           -0.2511317              -6.8336 (HOMO)
        65        0.0077           -0.2418972              -6.5824 (LUMO)
        66        0.0000           -0.2318970              -6.3102
        67                         -0.2082036              -5.6655
        68                         -0.2012429              -5.4761
        69                         -0.1727400              -4.7005
       ...                                ...                  ...
       120                          0.9230072              25.1163
      -------------------------------------------------------------
                  HL-Gap            0.0092345 Eh            0.2513 eV
             Fermi-level           -0.3126843 Eh           -8.5086 eV

 transition dipole moment (au) for excitation:          63          64
     X       Y       Z   
  -1.9048   0.0942   0.1760  total (au/Debye):    1.915   4.868
 dE (eV)             :    3.449
 oscillator strength :  0.43837E+00

 SCC (total)                   0 d,  0 h,  0 min,  0.117 sec
 SCC setup                      ...        0 min,  0.000 sec (  0.312%)
 Dispersion                     ...        0 min,  0.000 sec (  0.421%)
 classical contributions        ...        0 min,  0.000 sec (  0.129%)
 integral evaluation            ...        0 min,  0.008 sec (  7.079%)
 iterations                     ...        0 min,  0.076 sec ( 64.398%)
 molecular gradient             ...        0 min,  0.025 sec ( 20.975%)
 printout                       ...        0 min,  0.008 sec (  6.681%)

         :::::::::::::::::::::::::::::::::::::::::::::::::::::
         ::                     SUMMARY                     ::
         :::::::::::::::::::::::::::::::::::::::::::::::::::::
         :: total energy             -70.190880559686 Eh    ::
         :: gradient norm              0.100528645629 Eh/a0 ::
         :: HOMO-LUMO gap              0.251284442302 eV    ::
         ::.................................................::
         :: SCC energy               -71.118548147620 Eh    ::
         :: -> isotropic ES            0.087777648320 Eh    ::
         :: -> anisotropic ES          0.005195856717 Eh    ::
         :: -> anisotropic XC          0.025325614941 Eh    ::
         :: -> dispersion             -0.047349268972 Eh    ::
         :: repulsion energy           0.927667587934 Eh    ::
         :: add. restraining           0.000000000000 Eh    ::
         :: total charge               0.000000000000 e     ::
         :::::::::::::::::::::::::::::::::::::::::::::::::::::

           -------------------------------------------------
          |                Property Printout                |
           -------------------------------------------------

    * Orbital Energies and Occupations

         #    Occupation            Energy/Eh            Energy/eV
      -------------------------------------------------------------
         1        2.0000           -0.7530650             -20.4919
       ...           ...                  ...                  ...
        52        2.0000           -0.4449990             -12.1090
        53        2.0000           -0.4436827             -12.0732
        54        2.0000           -0.4370934             -11.8939
        55        2.0000           -0.4205974             -11.4450
        56        2.0000           -0.4145058             -11.2793
        57        2.0000           -0.4048666             -11.0170
        58        2.0000           -0.4000087             -10.8848
        59        2.0000           -0.3927619             -10.6876
        60        1.9917           -0.3833946             -10.4327
        61        1.9684           -0.3821047             -10.3976
        62        1.7734           -0.3800203             -10.3409
        63        1.2666           -0.3778926             -10.2830
        64        0.9923           -0.2511317              -6.8336 (HOMO)
        65        0.0077           -0.2418972              -6.5824 (LUMO)
        66        0.0000           -0.2318970              -6.3102
        67                         -0.2082036              -5.6655
        68                         -0.2012429              -5.4761
        69                         -0.1727400              -4.7005
        70                         -0.1642208              -4.4687
        71                         -0.1166729              -3.1748
        72                         -0.0840340              -2.2867
        73                         -0.0404136              -1.0997
        74                          0.0074765               0.2034
        75                          0.0167157               0.4549
       ...                                ...                  ...
       120                          0.9230072              25.1163
      -------------------------------------------------------------
                  HL-Gap            0.0092345 Eh            0.2513 eV
             Fermi-level           -0.3126843 Eh           -8.5086 eV

     #   Z          covCN         q      C6AA      α(0)
     1   6 C        3.757    -0.103    22.513     6.765
     2   6 C        2.958    -0.022    28.558     8.765
     3   6 C        2.894     0.124    25.282     8.244
     4   8 O        1.703    -0.307    19.118     5.903
     5   6 C        3.655     0.045    20.111     6.438
     6   6 C        2.961    -0.017    28.425     8.745
     7   6 C        3.757    -0.114    22.740     6.799
     8   6 C        2.912     0.041    27.089     8.535
     9   7 N        1.842    -0.200    26.170     7.581
    10   6 C        3.001     0.061    26.624     8.464
    11   6 C        3.801    -0.086    22.136     6.699
    12  16 S        2.870     0.383   126.394    18.922
    13   6 C        3.206     0.084    25.564     8.234
    14   7 N        1.894    -0.313    28.960     7.978
    15   6 C        3.224     0.076    25.582     8.219
    16   6 C        3.102     0.058    26.567     8.446
    17   7 N        2.801    -0.116    23.513     7.202
    18   6 C        2.906    -0.067    29.673     8.932
    19   6 C        2.928    -0.062    29.534     8.912
    20   6 C        2.870     0.148    24.779     8.160
    21   8 O        1.706    -0.239    17.955     5.721
    22   6 C        3.645     0.031    20.386     6.490
    23   6 C        2.908    -0.097    30.432     9.046
    24   8 O        0.860    -0.468    23.078     6.441
    25   1 H        0.925     0.047     2.360     2.402
    26   1 H        0.924     0.045     2.379     2.412
    27   1 H        0.925     0.060     2.196     2.317
    28   1 H        0.925     0.057     2.237     2.339
    29   1 H        0.924     0.031     2.574     2.509
    30   1 H        0.924     0.033     2.543     2.494
    31   1 H        0.925     0.057     2.236     2.338
    32   1 H        0.924     0.055     2.259     2.350
    33   1 H        0.925     0.068     2.107     2.270
    34   1 H        0.925     0.051     2.312     2.378
    35   1 H        0.925     0.081     1.965     2.192
    36   1 H        0.925     0.076     2.024     2.225
    37   1 H        0.860     0.187     1.175     1.698
    38   1 H        0.926     0.037     2.483     2.464
    39   1 H        0.926     0.052     2.298     2.371
    40   1 H        0.924     0.053     2.288     2.365
    41   1 H        0.924     0.053     2.280     2.361
    42   1 H        0.925     0.068     2.106     2.270
    43   1 H        0.926     0.047     2.356     2.401

 Mol. C6AA /au·bohr⁶  :      23662.265525
 Mol. C8AA /au·bohr⁸  :     592318.107048
 Mol. α(0) /au        :        239.797578


Wiberg/Mayer (AO) data.
largest (>0.10) Wiberg bond orders for each atom

 ---------------------------------------------------------------------------
     #   Z sym  total        # sym  WBO       # sym  WBO       # sym  WBO
 ---------------------------------------------------------------------------
     1   6 C    3.987 --     2 C    1.026    27 H    0.978    25 H    0.978
                            26 H    0.965
     2   6 C    3.866 --     8 C    1.387     3 C    1.290     1 C    1.026
     3   6 C    3.874 --     6 C    1.404     2 C    1.290     4 O    0.997
     4   8 O    2.097 --     3 C    0.997     5 C    0.972
     5   6 C    3.945 --    29 H    0.980    28 H    0.980    30 H    0.978
                             4 O    0.972
     6   6 C    3.939 --     3 C    1.404    10 C    1.298     7 C    1.029
     7   6 C    3.984 --     6 C    1.029    33 H    0.977    31 H    0.966
                            32 H    0.963
     8   6 C    3.942 --     9 N    1.427     2 C    1.387    34 H    0.955
     9   7 N    2.954 --     8 C    1.427    10 C    1.311
    10   6 C    3.887 --     9 N    1.311     6 C    1.298    11 C    1.067
    11   6 C    3.920 --    10 C    1.067    35 H    0.966    36 H    0.959
                            12 S    0.773
    12  16 S    3.792 --    24 O    1.781    13 C    1.002    11 C    0.773
    13   6 C    3.826 --    14 N    1.428    17 N    1.123    12 S    1.002
    14   7 N    2.954 --    13 C    1.428    15 C    1.245
    15   6 C    3.928 --    23 C    1.315    14 N    1.245    16 C    1.182
    16   6 C    3.878 --    18 C    1.301    17 N    1.207    15 C    1.182
    17   7 N    3.500 --    16 C    1.207    13 C    1.123    37 H    0.932
    18   6 C    3.896 --    19 C    1.446    16 C    1.301    38 H    0.967
    19   6 C    3.857 --    18 C    1.446    20 C    1.265    39 H    0.968
    20   6 C    3.828 --    23 C    1.340    19 C    1.265    21 O    1.095
    21   8 O    2.219 --    20 C    1.095    22 C    0.985
    22   6 C    3.938 --    21 O    0.985    42 H    0.979    40 H    0.971
                            41 H    0.971
    23   6 C    3.864 --    20 C    1.340    15 C    1.315    43 H    0.963
    24   8 O    1.966 --    12 S    1.781
    25   1 H    0.994 --     1 C    0.978
    26   1 H    0.991 --     1 C    0.965
    27   1 H    0.993 --     1 C    0.978
    28   1 H    0.995 --     5 C    0.980
    29   1 H    0.999 --     5 C    0.980
    30   1 H    0.999 --     5 C    0.978
    31   1 H    0.995 --     7 C    0.966
    32   1 H    0.995 --     7 C    0.963
    33   1 H    0.992 --     7 C    0.977
    34   1 H    0.988 --     8 C    0.955
    35   1 H    0.991 --    11 C    0.966
    36   1 H    0.992 --    11 C    0.959
    37   1 H    0.965 --    17 N    0.932
    38   1 H    0.997 --    18 C    0.967
    39   1 H    0.997 --    19 C    0.968
    40   1 H    0.991 --    22 C    0.971
    41   1 H    0.991 --    22 C    0.971
    42   1 H    0.995 --    22 C    0.979
    43   1 H    0.997 --    23 C    0.963
 ---------------------------------------------------------------------------

Topologies differ in total number of bonds
Writing topology from bond orders to xtbtopo.mol

molecular dipole:
                 x           y           z       tot (Debye)
 q only:        0.074       1.391       1.117
   full:        0.067       1.498       0.827       4.352
molecular quadrupole (traceless):
                xx          xy          yy          xz          yz          zz
 q only:       16.126      -0.668      -9.625       4.167       1.583      -6.501
  q+dip:       19.722      -2.866     -13.098       2.444       4.125      -6.624
   full:       17.828      -3.948      -9.941       3.115       3.068      -7.886


           -------------------------------------------------
          | TOTAL ENERGY              -70.190880559686 Eh   |
          | GRADIENT NORM               0.100528645629 Eh/α |
          | HOMO-LUMO GAP               0.251284442302 eV   |
           -------------------------------------------------

------------------------------------------------------------------------
 * finished run on 2025/05/15 at 16:36:48.787     
------------------------------------------------------------------------
 total:
 * wall-time:     0 d,  0 h,  0 min,  0.164 sec
 *  cpu-time:     0 d,  0 h,  0 min,  0.107 sec
 * ratio c/w:     0.651 speedup
 SCF:
 * wall-time:     0 d,  0 h,  0 min,  0.117 sec
 *  cpu-time:     0 d,  0 h,  0 min,  0.094 sec
 * ratio c/w:     0.801 speedup


