43
 energy: -70.312063372498 gnorm: 0.000438301151 xtb: 6.7.1 (edcfbbe)
C           -6.36627981495410       -0.52511574296994       -0.86120303986001
C           -4.87554287036230       -0.39305799635164       -0.84840742462980
C           -4.15067739306793       -0.32761630861236        0.34572605325593
O           -4.80516947477066       -0.38833841154227        1.56404875341065
C           -5.29187075842854        0.85776758411500        2.01582120027606
C           -2.75732829470871       -0.24586488843054        0.31462587921522
C           -1.95811560565205       -0.19866740302977        1.57980543100474
C           -4.14443300735211       -0.33776565291070       -2.02811042520643
N           -2.83219001778434       -0.23098817618962       -2.07741588835814
C           -2.14743418039476       -0.19446522571567       -0.94408628347734
C           -0.66781953518741       -0.12169260844281       -1.07470215449594
S            0.06651367568646       -1.78911887747658       -0.64143975362450
C            1.72566582104123       -1.11416574100620       -0.44265085145387
N            2.12280578007193       -0.24871985319892        0.44595204409272
C            3.46650505229101       -0.09196543188114        0.21188185441762
C            3.85853776525624       -0.91817006914672       -0.86838903839718
N            2.71319177598863       -1.56420486904621       -1.25713774111825
C            5.17105593976015       -0.94712070054495       -1.31571800751813
C            6.07392222873713       -0.14360714232487       -0.66108596088231
C            5.69797271869694        0.68042528612042        0.41869524726247
O            6.72008066999749        1.40771949442912        0.95396224487379
C            6.44044107555445        2.24741363356415        2.04689834616287
C            4.39000793584899        0.71854698332372        0.86693334442225
O            0.18357947814127       -2.55652783210204       -1.88323342509917
H           -6.68005975322944       -1.16065004841040       -1.68606100470650
H           -6.83533129006405        0.45085900883029       -0.99320168252947
H           -6.71415804445216       -0.95561520932561        0.07482881205807
H           -5.78568738503353        0.66267855985024        2.96617162896742
H           -4.47469913939868        1.57157715793785        2.16848881036408
H           -6.01103964876559        1.29070667717948        1.31344464996799
H           -1.17560712830284       -0.95394840506778        1.57552954583069
H           -1.48106628626764        0.77546465422868        1.69284112264575
H           -2.60922159853375       -0.37422580908865        2.43219884493622
H           -4.64527509376216       -0.38003464252512       -2.98644255140410
H           -0.38935483713591        0.08785616396347       -2.10466399487163
H           -0.21796112366097        0.58142890355712       -0.37840056112446
H            2.56764813236072       -2.22632133533939       -2.00332373783594
H            5.47296439011869       -1.57413106426317       -2.14003276131132
H            7.10981257934767       -0.12237851171301       -0.95906989521313
H            5.71417225804067        3.02285355457996        1.78254158496569
H            6.06731531132366        1.67845829426175        2.90468067097701
H            7.38795713605735        2.71541446843902        2.30899171122842
H            4.06567255694796        1.33510753227722        1.68740840278400
