49
 energy: -69.212932158972 gnorm: 0.000347136840 xtb: 6.7.1 (edcfbbe)
C            0.19627641600285        2.38299642642150        1.58542890388986
C            0.30654120546194        0.89880436256776        1.22115000605222
N            1.51656787385751        0.63414208902513        0.47577487778839
C            2.75900682365275        0.47209001668369        0.99769460238876
C            2.99860268824166        0.37022390054583        2.36188694687145
C            4.29658556127000        0.16074067499540        2.82200308372433
N            5.35134898016290        0.05372054485040        2.05726448970737
C            5.16756646637090        0.14611342704856        0.72660695843340
C            3.89309762294872        0.35220924321240        0.12693170009650
C            3.82422122465314        0.42293083245199       -1.27724044215512
C            4.94281068266008        0.30434967938286       -2.05667922231655
C            6.19052406363757        0.10639161040062       -1.45042967644074
Cl           7.58802845577717       -0.03996072357631       -2.45871286728230
C            6.31028831170430        0.02705894646667       -0.09215624007802
C           -0.89302508815936        0.44672465323954        0.38539867547987
C           -0.89442657151556       -1.06138195188657        0.14612039011877
C           -2.03036740316543       -1.49013418118997       -0.78582410738689
N           -3.33176100327837       -1.04728514480170       -0.31018717202315
C           -3.85523837544251       -1.84946603687659        0.78722512173737
C           -4.69648731906275       -0.99917802681164        1.73467806983640
C           -4.29124303535434       -0.86503293509858       -1.39113963324615
C           -4.13185510356956        0.54208238932184       -1.97707546819129
O           -4.22728158658557        1.50852295059440       -0.96510239380550
H           -0.68543117995571        2.56064610912794        2.19480070239554
H            0.12195776393397        2.98785771048663        0.68425337830568
H            1.07498950660551        2.69983571152640        2.14240843906179
H            0.33598693073107        0.30031706934606        2.13737320857602
H            1.46604664331614        0.88791913826414       -0.49783348583201
H            2.19868887228766        0.45691829564257        3.07839973203293
H            4.48084255239660        0.08363118515812        3.88652905643184
H            2.87522148852480        0.56721893484706       -1.77416109490185
H            4.87642595817040        0.36021944926121       -3.13175166538995
H            7.26174518048832       -0.12778064494069        0.38947815175628
H           -0.88492736671941        0.97275658159105       -0.57218798781047
H           -1.80845189640230        0.72322334107261        0.90770187362547
H           -0.97872466831138       -1.57369395958969        1.10594084522595
H            0.05224498237682       -1.36680040364206       -0.30385834913163
H           -1.86122862644983       -1.03444460491621       -1.76389204786073
H           -1.99982076312823       -2.58492999691902       -0.91952236763217
H           -3.01320536975320       -2.26271468181252        1.34441885437074
H           -4.45206928243572       -2.69762315892633        0.41494056287013
H           -4.08968977704355       -0.20679960904754        2.16590608533567
H           -5.08596908491851       -1.61566502828053        2.54068077807764
H           -5.53460911143978       -0.54238931471767        1.21509047161477
H           -5.29839742190751       -0.94732332597387       -0.97952616524348
H           -4.18189309662646       -1.62118731874683       -2.18343497626061
H           -4.92341036106862        0.74729195967675       -2.70141920630254
H           -3.16258698332435        0.63045283934545       -2.49202053120358
H           -3.77361577961693        1.12630097520328       -0.19923086531165
