43
 energy: -70.318780962031 gnorm: 0.000179566645 xtb: 6.7.1 (edcfbbe)
C            0.84224794759056        2.07287662152948        1.54869283485848
C            1.13038222798901        0.70156243408810        1.02389988670281
C            1.83732258741206        0.49923592973486       -0.16429625278704
O            2.32215311535828        1.58347256693250       -0.87442039454203
C            3.60513548298780        2.00026838006551       -0.45640724600175
C            2.01512401310372       -0.79235466173443       -0.66247705529589
C            2.67715575137136       -1.02923087178466       -1.98282361548236
C            0.68195339556214       -0.43261399202928        1.68690686108352
N            0.87842328168908       -1.66209154234162        1.25663336532097
C            1.51272838792212       -1.84751973115219        0.10414227193017
C            1.57185930371991       -3.25407089796401       -0.36381044147116
S            0.20250900494003       -3.62665653877158       -1.62008228969912
C           -0.88108010754325       -2.33465981710758       -1.00282876861082
N           -0.88240907730514       -1.09094963676075       -1.38539069816295
C           -1.76002250994575       -0.46295138571375       -0.53929646200891
C           -2.30211620397856       -1.40670770777615        0.36505249071125
N           -1.72204893695399       -2.60103507878573        0.02707190002810
C           -3.19958894308901       -1.02661085895561        1.35141251780782
C           -3.52794552332697        0.30664921642349        1.41893611907402
C           -2.98796586670284        1.25698517374860        0.52957714804199
O           -3.40684538625689        2.53764599737321        0.75154351490356
C           -2.93441623622265        3.54889596642076       -0.10436736664002
C           -2.10293171642462        0.88394462418908       -0.46518527501483
O           -0.41830198988826       -4.86058888307061       -1.12805347932480
H            0.97628501282229        2.81080125000193        0.76126804959085
H           -0.18034367593562        2.12164669604602        1.91765737900377
H            1.51040272287745        2.31663521227815        2.37553252964289
H            3.86722209825619        2.85160296531254       -1.08226600787376
H            4.34684888659837        1.20511876953666       -0.59249262482465
H            3.60700709062117        2.30579018194121        0.59535123996879
H            2.92196535614157       -0.07851750282896       -2.44786374907323
H            3.58967210809710       -1.61383973802326       -1.86336090470797
H            2.00174846765671       -1.57151699661157       -2.64166153688502
H            0.12659852260321       -0.34516410739408        2.61174925634847
H            1.37967169343878       -3.94133592147378        0.45750192315304
H            2.50356158385722       -3.50244826204786       -0.86554651298567
H           -1.83678973482740       -3.50765924292656        0.45096017333310
H           -3.61588930940125       -1.74206654915379        2.04314781867178
H           -4.21395581071515        0.66731174352488        2.16876796603646
H           -3.39583570895794        4.47082384894876        0.24633756202531
H           -3.23064719176470        3.36629789646346       -1.14210588791736
H           -1.84514765178642        3.64423240466159       -0.05088348628845
H           -1.66389646157517        1.57859204526726       -1.15992275265237
