----- Optimization -----
      -----------------------------------------------------------      
     |                   =====================                   |     
     |                           x T B                           |     
     |                   =====================                   |     
     |                         S. Grimme                         |     
     |          Mulliken Center for Theoretical Chemistry        |     
     |                    University of Bonn                     |     
      -----------------------------------------------------------      

   * xtb version 6.7.1 (edcfbbe) compiled by 'conda@3ef47c1a292c' on 2024-11-25

   xtb is free software: you can redistribute it and/or modify it under
   the terms of the GNU Lesser General Public License as published by
   the Free Software Foundation, either version 3 of the License, or
   (at your option) any later version.
   
   xtb is distributed in the hope that it will be useful,
   but WITHOUT ANY WARRANTY; without even the implied warranty of
   MERCHANTABILITY or FITNESS FOR A PARTICULAR PURPOSE.  See the
   GNU Lesser General Public License for more details.
   
   Cite this work as:
   * C. Bannwarth, E. Caldeweyher, S. Ehlert, A. Hansen, P. Pracht,
     J. Seibert, S. Spicher, S. Grimme, WIREs Comput. Mol. Sci., 2020, 11,
     e01493. DOI: 10.1002/wcms.1493
   
   for GFN2-xTB:
   * C. Bannwarth, S. Ehlert and S. Grimme., J. Chem. Theory Comput., 2019,
     15, 1652-1671. DOI: 10.1021/acs.jctc.8b01176
   for GFN1-xTB:
   * S. Grimme, C. Bannwarth, P. Shushkov, J. Chem. Theory Comput., 2017,
     13, 1989-2009. DOI: 10.1021/acs.jctc.7b00118
   for GFN0-xTB:
   * P. Pracht, E. Caldeweyher, S. Ehlert, S. Grimme, ChemRxiv, 2019, preprint.
     DOI: 10.26434/chemrxiv.8326202.v1
   for GFN-FF:
   * S. Spicher and S. Grimme, Angew. Chem. Int. Ed., 2020, 59, 15665-15673.
     DOI: 10.1002/anie.202004239
   
   for ALPB and GBSA implicit solvation:
   * S. Ehlert, M. Stahn, S. Spicher, S. Grimme, J. Chem. Theory Comput.,
     2021, 17, 4250-4261. DOI: 10.1021/acs.jctc.1c00471
   
   for ddCOSMO and CPCM-X implicit solvation:
   * M. Stahn, S. Ehlert, S. Grimme, J. Phys. Chem. A,
     2023, XX, XXXX-XXXX. DOI: 10.1021/acs.jpca.3c04382
   
   for DFT-D4:
   * E. Caldeweyher, C. Bannwarth and S. Grimme, J. Chem. Phys., 2017,
     147, 034112. DOI: 10.1063/1.4993215
   * E. Caldeweyher, S. Ehlert, A. Hansen, H. Neugebauer, S. Spicher,
     C. Bannwarth and S. Grimme, J. Chem. Phys., 2019, 150, 154122.
     DOI: 10.1063/1.5090222
   * E. Caldeweyher, J.-M. Mewes, S. Ehlert and S. Grimme, Phys. Chem. Chem. Phys.
     2020, 22, 8499-8512. DOI: 10.1039/D0CP00502A
   
   for sTDA-xTB:
   * S. Grimme and C. Bannwarth, J. Chem. Phys., 2016, 145, 054103.
     DOI: 10.1063/1.4959605
   
   in the mass-spec context:
   * V. Asgeirsson, C. Bauer and S. Grimme, Chem. Sci., 2017, 8, 4879.
     DOI: 10.1039/c7sc00601b
   * J. Koopman and S. Grimme, ACS Omega 2019, 4, 12, 15120-15133.
     DOI: 10.1021/acsomega.9b02011
   
   for metadynamics refer to:
   * S. Grimme, J. Chem. Theory Comput., 2019, 155, 2847-2862
     DOI: 10.1021/acs.jctc.9b00143
   
   for SPH calculations refer to:
   * S. Spicher and S. Grimme, J. Chem. Theory Comput., 2021, 17, 1701-1714
     DOI: 10.1021/acs.jctc.0c01306
   
   for ONIOM refer to:
   * C. Plett, A. Katbashev, S. Ehlert, S. Grimme, M. Bursch,
     Phys. Chem. Chem. Phys., 2023, 25, 17860-17868. DOI: 10.1039/D3CP02178E
   
   for DIPRO refer to:
   * J. Kohn, N. Gildemeister, S. Grimme, D. Fazzi, A. Hansen,
     J. Chem. Phys., 2023, just accepted.
   
   for PTB refer to:
   * S. Grimme, M. Mueller, A. Hansen, J. Chem. Phys., 2023, 158, 124111.
     DOI: 10.1063/5.0137838
   
   with help from (in alphabetical order)
   P. Atkinson, C. Bannwarth, F. Bohle, G. Brandenburg, E. Caldeweyher
   M. Checinski, S. Dohm, S. Ehlert, S. Ehrlich, I. Gerasimov, C. Hölzer
   A. Katbashev, J. Kohn, J. Koopman, C. Lavigne, S. Lehtola, F. März, M. Müller,
   F. Musil, H. Neugebauer, J. Pisarek, C. Plett, P. Pracht, F. Pultar,
   J. Seibert, P. Shushkov, S. Spicher, M. Stahn, M. Steiner, T. Strunk,
   J. Stückrath, T. Rose, and J. Unsleber
   
 * started run on 2025/05/15 at 16:08:13.274     
   ID    Z sym.   atoms
    1    8 O      1, 3, 21
    2    6 C      2, 4, 5, 7-9, 11, 12, 14-16, 18-20, 22-24
    3    7 N      6, 10, 13
    4    9 F      17
    5    1 H      25-42

           -------------------------------------------------
          |                Calculation Setup                |
           -------------------------------------------------

          program call               : xtb /rds/general/user/hgt20/home/callum/QDESCP/Ciprofloxacin_rdkit_conf_1/Ciprofloxacin_rdkit_conf_1.xyz --opt normal --acc 1 --gfn 2 --chrg 0 --uhf 0 -P 1
          hostname                   : login-c
          coordinate file            : /rds/general/user/hgt20/home/callum/QDESCP/Ciprofloxacin_rdkit_conf_1/Ciprofloxacin_rdkit_conf_1.xyz
          omp threads                :                     1


           -------------------------------------------------
          |                 G F N 2 - x T B                 |
           -------------------------------------------------

        Reference                      10.1021/acs.jctc.8b01176
      * Hamiltonian:
        H0-scaling (s, p, d)           1.850000    2.230000    2.230000
        zeta-weighting                 0.500000
      * Dispersion:
        s8                             2.700000
        a1                             0.520000
        a2                             5.000000
        s9                             5.000000
      * Repulsion:
        kExp                           1.500000    1.000000
        rExp                           1.000000
      * Coulomb:
        alpha                          2.000000
        third order                    shell-resolved
        anisotropic                    true
        a3                             3.000000
        a5                             4.000000
        cn-shift                       1.200000
        cn-exp                         4.000000
        max-rad                        5.000000


          ...................................................
          :                      SETUP                      :
          :.................................................:
          :  # basis functions                 114          :
          :  # atomic orbitals                 114          :
          :  # shells                           66          :
          :  # electrons                       126          :
          :  max. iterations                   250          :
          :  Hamiltonian                  GFN2-xTB          :
          :  restarted?                      false          :
          :  GBSA solvation                  false          :
          :  PC potential                    false          :
          :  electronic temp.          300.0000000     K    :
          :  accuracy                    1.0000000          :
          :  -> integral cutoff          0.2500000E+02      :
          :  -> integral neglect         0.1000000E-07      :
          :  -> SCF convergence          0.1000000E-05 Eh   :
          :  -> wf. convergence          0.1000000E-03 e    :
          :  Broyden damping             0.4000000          :
          :  net charge                          0          :
          :  unpaired electrons                  0          :
          ...................................................

 iter      E             dE          RMSdq      gap      omega  full diag
   1    -71.9752813 -0.719753E+02  0.424E+00    2.53       0.0  T
   2    -72.0925151 -0.117234E+00  0.256E+00    2.33       1.0  T
   3    -72.1003764 -0.786131E-02  0.147E+00    2.52       1.0  T
   4    -72.1186369 -0.182605E-01  0.460E-01    2.40       1.0  T
   5    -72.1252809 -0.664391E-02  0.113E-01    2.39       1.0  T
   6    -72.1255146 -0.233716E-03  0.521E-02    2.39       1.0  T
   7    -72.1255437 -0.291140E-04  0.222E-02    2.40       1.0  T
   8    -72.1255460 -0.229756E-05  0.921E-03    2.40       1.7  T
   9    -72.1255475 -0.156099E-05  0.418E-03    2.41       3.7  T
  10    -72.1255477 -0.118221E-06  0.152E-03    2.40      10.2  T
  11    -72.1255477 -0.431542E-07  0.678E-04    2.40      22.8  T
  12    -72.1255477 -0.411052E-08  0.246E-04    2.40      62.6  T

   *** convergence criteria satisfied after 12 iterations ***

         #    Occupation            Energy/Eh            Energy/eV
      -------------------------------------------------------------
         1        2.0000           -0.8232976             -22.4031
       ...           ...                  ...                  ...
        57        2.0000           -0.4315496             -11.7431
        58        2.0000           -0.4258725             -11.5886
        59        2.0000           -0.4186836             -11.3930
        60        2.0000           -0.3895345             -10.5998
        61        2.0000           -0.3800941             -10.3429
        62        2.0000           -0.3745938             -10.1932
        63        2.0000           -0.3672627              -9.9937 (HOMO)
        64                         -0.2789412              -7.5904 (LUMO)
        65                         -0.2662328              -7.2446
        66                         -0.2341301              -6.3710
        67                         -0.2142551              -5.8302
        68                         -0.1506594              -4.0997
       ...                                ...                  ...
       114                          0.6925161              18.8443
      -------------------------------------------------------------
                  HL-Gap            0.0883215 Eh            2.4034 eV
             Fermi-level           -0.3231020 Eh           -8.7921 eV

 SCC (total)                   0 d,  0 h,  0 min,  0.062 sec
 SCC setup                      ...        0 min,  0.000 sec (  0.605%)
 Dispersion                     ...        0 min,  0.001 sec (  0.859%)
 classical contributions        ...        0 min,  0.000 sec (  0.241%)
 integral evaluation            ...        0 min,  0.008 sec ( 12.856%)
 iterations                     ...        0 min,  0.027 sec ( 43.615%)
 molecular gradient             ...        0 min,  0.026 sec ( 41.498%)
 printout                       ...        0 min,  0.000 sec (  0.315%)

         :::::::::::::::::::::::::::::::::::::::::::::::::::::
         ::                     SUMMARY                     ::
         :::::::::::::::::::::::::::::::::::::::::::::::::::::
         :: total energy             -71.285273957125 Eh    ::
         :: gradient norm              0.081294414434 Eh/a0 ::
         :: HOMO-LUMO gap              2.403350661620 eV    ::
         ::.................................................::
         :: SCC energy               -72.125502805354 Eh    ::
         :: -> isotropic ES            0.107098507854 Eh    ::
         :: -> anisotropic ES          0.007871177998 Eh    ::
         :: -> anisotropic XC          0.021838808908 Eh    ::
         :: -> dispersion             -0.045109516545 Eh    ::
         :: repulsion energy           0.840228848229 Eh    ::
         :: add. restraining           0.000000000000 Eh    ::
         :: total charge              -0.000000000000 e     ::
         :::::::::::::::::::::::::::::::::::::::::::::::::::::

      ----------------------------------------------------------- 
     |                   =====================                   |
     |                        A N C O P T                        |
     |                   =====================                   |
     |               Approximate Normal Coordinate               |
     |                Rational Function Optimizer                |
      ----------------------------------------------------------- 
      ----------------------------------------------------------- 
     |                   =====================                   |
     |                        A N C O P T                        |
     |                   =====================                   |
     |               Approximate Normal Coordinate               |
     |                Rational Function Optimizer                |
      ----------------------------------------------------------- 

          ...................................................
          :                      SETUP                      :
          :.................................................:
          :   optimization level            normal          :
          :   max. optcycles                   200          :
          :   ANC micro-cycles                  20          :
          :   degrees of freedom               120          :
          :.................................................:
          :   RF solver                   davidson          :
          :   write xtbopt.log                true          :
          :   linear?                        false          :
          :   energy convergence         0.5000000E-05 Eh   :
          :   grad. convergence          0.1000000E-02 Eh/α :
          :   maxmium RF displ.          1.0000000          :
          :   Hlow (freq-cutoff)         0.1000000E-01      :
          :   Hmax (freq-cutoff)         5.0000000          :
          :   S6 in model hess.         20.0000000          :
          ...................................................

generating ANC from exact Hessian ...
Using Lindh-Hessian (1995)
 Shifting diagonal of input Hessian by    9.6162831172924550E-003
 Lowest  eigenvalues of input Hessian
    0.000000    0.000000    0.000000    0.000000    0.000000    0.000000
    0.010000    0.010323    0.010698    0.011528    0.012056    0.012390
    0.012989    0.014195    0.016002    0.017211    0.018894    0.020878
 Highest eigenvalues
    1.869713    1.987515    2.023810    2.086517    2.211933    2.340747


........................................................................
.............................. CYCLE    1 ..............................
........................................................................

 iter      E             dE          RMSdq      gap      omega  full diag
   1    -72.1255477 -0.721255E+02  0.112E-04    2.40       0.0  T
   2    -72.1255477 -0.120409E-09  0.721E-05    2.40     213.9  T
   3    -72.1255477 -0.105899E-09  0.423E-05    2.40     364.5  T
     SCC iter.                  ...        0 min,  0.019 sec
     gradient                   ...        0 min,  0.026 sec
 * total energy  :   -71.2852740 Eh     change       -0.7865708E-09 Eh
   gradient norm :     0.0812952 Eh/α   predicted     0.0000000E+00 (-100.00%)
   displ. norm   :     0.3877240 α      lambda       -0.1675997E-01
   maximum displ.:     0.1193902 α      in ANC's #15, #47, #12, ...

........................................................................
.............................. CYCLE    2 ..............................
........................................................................

 iter      E             dE          RMSdq      gap      omega  full diag
   1    -72.1623534 -0.721624E+02  0.236E-01    2.46       0.0  T
   2    -72.1626886 -0.335222E-03  0.160E-01    2.49       1.0  T
   3    -72.1628013 -0.112685E-03  0.901E-02    2.49       1.0  T
   4    -72.1628895 -0.881434E-04  0.260E-02    2.48       1.0  T
   5    -72.1629093 -0.198212E-04  0.535E-03    2.49       2.9  T
   6    -72.1629097 -0.401381E-06  0.267E-03    2.49       5.8  T
   7    -72.1629097 -0.574290E-07  0.102E-03    2.49      15.1  T
   8    -72.1629098 -0.586378E-08  0.393E-04    2.49      39.3  T
   9    -72.1629098 -0.216922E-08  0.138E-04    2.49     112.0  T
     SCC iter.                  ...        0 min,  0.020 sec
     gradient                   ...        0 min,  0.025 sec
 * total energy  :   -71.2968765 Eh     change       -0.1160258E-01 Eh
   gradient norm :     0.0350279 Eh/α   predicted    -0.9644304E-02 ( -16.88%)
   displ. norm   :     0.3861348 α      lambda       -0.6125829E-02
   maximum displ.:     0.1817690 α      in ANC's #12, #15, #18, ...

........................................................................
.............................. CYCLE    3 ..............................
........................................................................

 iter      E             dE          RMSdq      gap      omega  full diag
   1    -72.1867100 -0.721867E+02  0.166E-01    2.49       0.0  T
   2    -72.1869423 -0.232341E-03  0.116E-01    2.52       1.0  T
   3    -72.1870458 -0.103471E-03  0.643E-02    2.52       1.0  T
   4    -72.1870688 -0.230259E-04  0.214E-02    2.52       1.0  T
   5    -72.1870814 -0.125433E-04  0.421E-03    2.52       3.7  T
   6    -72.1870817 -0.345314E-06  0.190E-03    2.52       8.1  T
   7    -72.1870817 -0.281099E-07  0.711E-04    2.52      21.7  T
   8    -72.1870817 -0.300467E-08  0.297E-04    2.52      51.9  T
     SCC iter.                  ...        0 min,  0.017 sec
     gradient                   ...        0 min,  0.026 sec
 * total energy  :   -71.3006688 Eh     change       -0.3792283E-02 Eh
   gradient norm :     0.0120316 Eh/α   predicted    -0.3524468E-02 (  -7.06%)
   displ. norm   :     0.2852708 α      lambda       -0.1417515E-02
   maximum displ.:     0.1064969 α      in ANC's #12, #3, #4, ...

........................................................................
.............................. CYCLE    4 ..............................
........................................................................

 iter      E             dE          RMSdq      gap      omega  full diag
   1    -72.1927753 -0.721928E+02  0.706E-02    2.50       0.0  T
   2    -72.1928024 -0.270745E-04  0.434E-02    2.53       1.0  T
   3    -72.1928035 -0.112116E-05  0.250E-02    2.52       1.0  T
   4    -72.1928123 -0.881779E-05  0.615E-03    2.52       2.5  T
   5    -72.1928135 -0.118137E-05  0.172E-03    2.53       9.0  T
   6    -72.1928135 -0.564139E-07  0.843E-04    2.53      18.3  T
   7    -72.1928135 -0.496453E-08  0.261E-04    2.53      59.2  T
     SCC iter.                  ...        0 min,  0.015 sec
     gradient                   ...        0 min,  0.047 sec
 * total energy  :   -71.3017185 Eh     change       -0.1049671E-02 Eh
   gradient norm :     0.0100160 Eh/α   predicted    -0.7664957E-03 ( -26.98%)
   displ. norm   :     0.3765403 α      lambda       -0.1145240E-02
   maximum displ.:     0.1803075 α      in ANC's #4, #3, #6, ...

........................................................................
.............................. CYCLE    5 ..............................
........................................................................

 iter      E             dE          RMSdq      gap      omega  full diag
   1    -72.1946344 -0.721946E+02  0.867E-02    2.49       0.0  T
   2    -72.1946562 -0.218217E-04  0.507E-02    2.52       1.0  T
   3    -72.1946470  0.920513E-05  0.264E-02    2.52       1.0  T
   4    -72.1946629 -0.159607E-04  0.443E-03    2.52       3.5  T
   5    -72.1946635 -0.581609E-06  0.159E-03    2.52       9.7  T
   6    -72.1946635 -0.229523E-07  0.844E-04    2.52      18.3  T
   7    -72.1946636 -0.113278E-07  0.295E-04    2.52      52.3  T
     SCC iter.                  ...        0 min,  0.015 sec
     gradient                   ...        0 min,  0.026 sec
 * total energy  :   -71.3025104 Eh     change       -0.7918626E-03 Eh
   gradient norm :     0.0068737 Eh/α   predicted    -0.6538121E-03 ( -17.43%)
   displ. norm   :     0.3295510 α      lambda       -0.5717873E-03
   maximum displ.:     0.1870850 α      in ANC's #4, #3, #6, ...

........................................................................
.............................. CYCLE    6 ..............................
........................................................................

 iter      E             dE          RMSdq      gap      omega  full diag
   1    -72.1945438 -0.721945E+02  0.697E-02    2.50       0.0  T
   2    -72.1945521 -0.824215E-05  0.406E-02    2.52       1.0  T
   3    -72.1945439  0.820499E-05  0.186E-02    2.51       1.0  T
   4    -72.1945550 -0.111237E-04  0.285E-03    2.52       5.4  T
   5    -72.1945552 -0.196924E-06  0.120E-03    2.52      12.9  T
   6    -72.1945552 -0.801485E-08  0.603E-04    2.52      25.6  T
   7    -72.1945552 -0.569752E-08  0.216E-04    2.52      71.5  T
     SCC iter.                  ...        0 min,  0.036 sec
     gradient                   ...        0 min,  0.026 sec
 * total energy  :   -71.3029248 Eh     change       -0.4144800E-03 Eh
   gradient norm :     0.0063451 Eh/α   predicted    -0.3169509E-03 ( -23.53%)
   displ. norm   :     0.3095427 α      lambda       -0.4190957E-03
   maximum displ.:     0.1841334 α      in ANC's #4, #3, #2, ...

........................................................................
.............................. CYCLE    7 ..............................
........................................................................

 iter      E             dE          RMSdq      gap      omega  full diag
   1    -72.1946899 -0.721947E+02  0.658E-02    2.50       0.0  T
   2    -72.1946943 -0.446644E-05  0.382E-02    2.51       1.0  T
   3    -72.1946880  0.630164E-05  0.145E-02    2.51       1.1  T
   4    -72.1946960 -0.801144E-05  0.235E-03    2.51       6.6  T
   5    -72.1946961 -0.101393E-06  0.113E-03    2.51      13.7  T
   6    -72.1946962 -0.698681E-08  0.466E-04    2.51      33.1  T
   7    -72.1946962 -0.356225E-08  0.188E-04    2.51      82.1  T
     SCC iter.                  ...        0 min,  0.015 sec
     gradient                   ...        0 min,  0.047 sec
 * total energy  :   -71.3032536 Eh     change       -0.3287555E-03 Eh
   gradient norm :     0.0064880 Eh/α   predicted    -0.2296316E-03 ( -30.15%)
   displ. norm   :     0.3633211 α      lambda       -0.4348342E-03
   maximum displ.:     0.2162889 α      in ANC's #4, #3, #2, ...

........................................................................
.............................. CYCLE    8 ..............................
........................................................................

 iter      E             dE          RMSdq      gap      omega  full diag
   1    -72.1949052 -0.721949E+02  0.754E-02    2.49       0.0  T
   2    -72.1949102 -0.496416E-05  0.439E-02    2.50       1.0  T
   3    -72.1949016  0.860086E-05  0.165E-02    2.50       1.0  T
   4    -72.1949125 -0.108817E-04  0.284E-03    2.50       5.4  T
   5    -72.1949126 -0.121885E-06  0.145E-03    2.50      10.7  T
   6    -72.1949126 -0.784885E-08  0.665E-04    2.50      23.2  T
   7    -72.1949126 -0.947706E-08  0.223E-04    2.50      69.2  T
     SCC iter.                  ...        0 min,  0.015 sec
     gradient                   ...        0 min,  0.026 sec
 * total energy  :   -71.3035990 Eh     change       -0.3454008E-03 Eh
   gradient norm :     0.0069676 Eh/α   predicted    -0.2461195E-03 ( -28.74%)
   displ. norm   :     0.4416486 α      lambda       -0.4492709E-03
   maximum displ.:     0.2612815 α      in ANC's #4, #3, #2, ...

........................................................................
.............................. CYCLE    9 ..............................
........................................................................

 iter      E             dE          RMSdq      gap      omega  full diag
   1    -72.1944847 -0.721945E+02  0.929E-02    2.48       0.0  T
   2    -72.1944961 -0.114354E-04  0.541E-02    2.50       1.0  T
   3    -72.1944817  0.144012E-04  0.233E-02    2.50       1.0  T
   4    -72.1945004 -0.187289E-04  0.428E-03    2.50       3.6  T
   5    -72.1945008 -0.415057E-06  0.193E-03    2.50       8.0  T
   6    -72.1945009 -0.178859E-07  0.105E-03    2.50      14.6  T
   7    -72.1945009 -0.170015E-07  0.304E-04    2.50      50.8  T
   8    -72.1945009 -0.113005E-08  0.148E-04    2.50     104.3  T
     SCC iter.                  ...        0 min,  0.017 sec
     gradient                   ...        0 min,  0.041 sec
 * total energy  :   -71.3039534 Eh     change       -0.3544343E-03 Eh
   gradient norm :     0.0060318 Eh/α   predicted    -0.2684536E-03 ( -24.26%)
   displ. norm   :     0.4907379 α      lambda       -0.4239782E-03
   maximum displ.:     0.2833259 α      in ANC's #4, #3, #2, ...

........................................................................
.............................. CYCLE   10 ..............................
........................................................................

 iter      E             dE          RMSdq      gap      omega  full diag
   1    -72.1940319 -0.721940E+02  0.103E-01    2.48       0.0  T
   2    -72.1940490 -0.171445E-04  0.600E-02    2.50       1.0  T
   3    -72.1940307  0.183730E-04  0.276E-02    2.50       1.0  T
   4    -72.1940555 -0.248600E-04  0.520E-03    2.50       3.0  T
   5    -72.1940562 -0.649947E-06  0.228E-03    2.50       6.8  T
   6    -72.1940562 -0.274291E-07  0.125E-03    2.50      12.3  T
   7    -72.1940562 -0.213408E-07  0.358E-04    2.50      43.1  T
   8    -72.1940562 -0.160659E-08  0.176E-04    2.50      87.8  T
     SCC iter.                  ...        0 min,  0.017 sec
     gradient                   ...        0 min,  0.026 sec
 * total energy  :   -71.3042689 Eh     change       -0.3155171E-03 Eh
   gradient norm :     0.0054658 Eh/α   predicted    -0.2630466E-03 ( -16.63%)
   displ. norm   :     0.3877808 α      lambda       -0.2917298E-03
   maximum displ.:     0.2095372 α      in ANC's #4, #3, #2, ...

........................................................................
.............................. CYCLE   11 ..............................
........................................................................

 iter      E             dE          RMSdq      gap      omega  full diag
   1    -72.1954133 -0.721954E+02  0.837E-02    2.49       0.0  T
   2    -72.1954302 -0.168864E-04  0.485E-02    2.51       1.0  T
   3    -72.1954213  0.894822E-05  0.225E-02    2.51       1.0  T
   4    -72.1954344 -0.131336E-04  0.507E-03    2.51       3.0  T
   5    -72.1954352 -0.809303E-06  0.188E-03    2.51       8.2  T
   6    -72.1954352 -0.263072E-07  0.106E-03    2.51      14.6  T
   7    -72.1954353 -0.134714E-07  0.315E-04    2.51      49.0  T
   8    -72.1954353 -0.145702E-08  0.144E-04    2.51     107.0  T
     SCC iter.                  ...        0 min,  0.017 sec
     gradient                   ...        0 min,  0.026 sec
 * total energy  :   -71.3044746 Eh     change       -0.2056419E-03 Eh
   gradient norm :     0.0054948 Eh/α   predicted    -0.1678087E-03 ( -18.40%)
   displ. norm   :     0.3007859 α      lambda       -0.1736037E-03
   maximum displ.:     0.1562849 α      in ANC's #4, #2, #3, ...

........................................................................
.............................. CYCLE   12 ..............................
........................................................................

 iter      E             dE          RMSdq      gap      omega  full diag
   1    -72.1963871 -0.721964E+02  0.652E-02    2.50       0.0  T
   2    -72.1963952 -0.807676E-05  0.379E-02    2.52       1.0  T
   3    -72.1963882  0.690196E-05  0.182E-02    2.51       1.0  T
   4    -72.1963982 -0.995594E-05  0.318E-03    2.52       4.8  T
   5    -72.1963985 -0.271045E-06  0.138E-03    2.52      11.1  T
   6    -72.1963985 -0.130466E-07  0.767E-04    2.52      20.1  T
   7    -72.1963985 -0.793456E-08  0.216E-04    2.52      71.4  T
     SCC iter.                  ...        0 min,  0.015 sec
     gradient                   ...        0 min,  0.045 sec
 * total energy  :   -71.3045995 Eh     change       -0.1249271E-03 Eh
   gradient norm :     0.0052302 Eh/α   predicted    -0.9465605E-04 ( -24.23%)
   displ. norm   :     0.2217865 α      lambda       -0.1304141E-03
   maximum displ.:     0.1010743 α      in ANC's #4, #2, #1, ...

........................................................................
.............................. CYCLE   13 ..............................
........................................................................

 iter      E             dE          RMSdq      gap      omega  full diag
   1    -72.1996001 -0.721996E+02  0.513E-02    2.51       0.0  T
   2    -72.1996059 -0.579654E-05  0.294E-02    2.52       1.0  T
   3    -72.1996030  0.293131E-05  0.132E-02    2.52       1.2  T
   4    -72.1996076 -0.455156E-05  0.262E-03    2.52       5.9  T
   5    -72.1996078 -0.209644E-06  0.106E-03    2.52      14.5  T
   6    -72.1996078 -0.872663E-08  0.517E-04    2.52      29.9  T
   7    -72.1996078 -0.307725E-08  0.189E-04    2.52      81.5  T
     SCC iter.                  ...        0 min,  0.015 sec
     gradient                   ...        0 min,  0.026 sec
 * total energy  :   -71.3046805 Eh     change       -0.8096804E-04 Eh
   gradient norm :     0.0030008 Eh/α   predicted    -0.6841527E-04 ( -15.50%)
   displ. norm   :     0.3920228 α      lambda       -0.1202160E-03
   maximum displ.:     0.2058467 α      in ANC's #4, #2, #3, ...

........................................................................
.............................. CYCLE   14 ..............................
........................................................................

 iter      E             dE          RMSdq      gap      omega  full diag
   1    -72.1958198 -0.721958E+02  0.870E-02    2.50       0.0  T
   2    -72.1958303 -0.105696E-04  0.505E-02    2.52       1.0  T
   3    -72.1958185  0.118742E-04  0.221E-02    2.52       1.0  T
   4    -72.1958347 -0.162618E-04  0.387E-03    2.52       4.0  T
   5    -72.1958350 -0.321243E-06  0.183E-03    2.52       8.4  T
   6    -72.1958351 -0.155509E-07  0.906E-04    2.52      17.0  T
   7    -72.1958351 -0.129398E-07  0.303E-04    2.52      51.0  T
     SCC iter.                  ...        0 min,  0.040 sec
     gradient                   ...        0 min,  0.026 sec
 * total energy  :   -71.3047232 Eh     change       -0.4267006E-04 Eh
   gradient norm :     0.0069360 Eh/α   predicted    -0.6935220E-04 (  62.53%)
   displ. norm   :     0.0528902 α      lambda       -0.9117948E-04
   maximum displ.:     0.0298177 α      in ANC's #1, #5, #3, ...

........................................................................
.............................. CYCLE   15 ..............................
........................................................................

 iter      E             dE          RMSdq      gap      omega  full diag
   1    -72.1983693 -0.721984E+02  0.152E-02    2.52       0.0  T
   2    -72.1983704 -0.111305E-05  0.920E-03    2.52       1.7  T
   3    -72.1983702  0.245654E-06  0.490E-03    2.52       3.2  T
   4    -72.1983707 -0.506531E-06  0.143E-03    2.52      10.8  T
   5    -72.1983707 -0.561506E-07  0.397E-04    2.52      38.9  T
   6    -72.1983707 -0.135699E-08  0.211E-04    2.52      73.0  T
     SCC iter.                  ...        0 min,  0.013 sec
     gradient                   ...        0 min,  0.049 sec
 * total energy  :   -71.3047884 Eh     change       -0.6524251E-04 Eh
   gradient norm :     0.0031580 Eh/α   predicted    -0.4572236E-04 ( -29.92%)
   displ. norm   :     0.2343268 α      lambda       -0.9720225E-04
   maximum displ.:     0.1257678 α      in ANC's #1, #2, #4, ...

........................................................................
.............................. CYCLE   16 ..............................
........................................................................

 iter      E             dE          RMSdq      gap      omega  full diag
   1    -72.1992334 -0.721992E+02  0.545E-02    2.51       0.0  T
   2    -72.1992384 -0.501533E-05  0.311E-02    2.52       1.0  T
   3    -72.1992344  0.404448E-05  0.141E-02    2.52       1.1  T
   4    -72.1992403 -0.595135E-05  0.253E-03    2.52       6.1  T
   5    -72.1992405 -0.143781E-06  0.117E-03    2.52      13.2  T
   6    -72.1992405 -0.603407E-08  0.545E-04    2.52      28.3  T
   7    -72.1992405 -0.464721E-08  0.185E-04    2.52      83.5  T
     SCC iter.                  ...        0 min,  0.015 sec
     gradient                   ...        0 min,  0.026 sec
 * total energy  :   -71.3048599 Eh     change       -0.7153158E-04 Eh
   gradient norm :     0.0025938 Eh/α   predicted    -0.5127222E-04 ( -28.32%)
   displ. norm   :     0.3792747 α      lambda       -0.1023708E-03
   maximum displ.:     0.2070275 α      in ANC's #1, #4, #2, ...

........................................................................
.............................. CYCLE   17 ..............................
........................................................................

 iter      E             dE          RMSdq      gap      omega  full diag
   1    -72.1983750 -0.721984E+02  0.869E-02    2.50       0.0  T
   2    -72.1983875 -0.125759E-04  0.497E-02    2.52       1.0  T
   3    -72.1983772  0.103740E-04  0.230E-02    2.52       1.0  T
   4    -72.1983928 -0.155904E-04  0.392E-03    2.52       3.9  T
   5    -72.1983931 -0.326578E-06  0.193E-03    2.52       8.0  T
   6    -72.1983931 -0.124323E-07  0.893E-04    2.52      17.3  T
   7    -72.1983931 -0.166607E-07  0.293E-04    2.52      52.7  T
     SCC iter.                  ...        0 min,  0.016 sec
     gradient                   ...        0 min,  0.045 sec
 * total energy  :   -71.3049317 Eh     change       -0.7177391E-04 Eh
   gradient norm :     0.0035144 Eh/α   predicted    -0.5854930E-04 ( -18.43%)
   displ. norm   :     0.3536176 α      lambda       -0.8426346E-04
   maximum displ.:     0.2190733 α      in ANC's #1, #2, #4, ...

........................................................................
.............................. CYCLE   18 ..............................
........................................................................

 iter      E             dE          RMSdq      gap      omega  full diag
   1    -72.1968314 -0.721968E+02  0.768E-02    2.51       0.0  T
   2    -72.1968433 -0.119486E-04  0.438E-02    2.53       1.0  T
   3    -72.1968352  0.814553E-05  0.219E-02    2.52       1.0  T
   4    -72.1968483 -0.131262E-04  0.352E-03    2.53       4.4  T
   5    -72.1968486 -0.297403E-06  0.164E-03    2.53       9.4  T
   6    -72.1968486 -0.831075E-08  0.800E-04    2.53      19.3  T
   7    -72.1968486 -0.137997E-07  0.228E-04    2.53      67.5  T
     SCC iter.                  ...        0 min,  0.015 sec
     gradient                   ...        0 min,  0.026 sec
 * total energy  :   -71.3049792 Eh     change       -0.4749390E-04 Eh
   gradient norm :     0.0040662 Eh/α   predicted    -0.4740760E-04 (  -0.18%)
   displ. norm   :     0.2050586 α      lambda       -0.9843953E-04
   maximum displ.:     0.1640880 α      in ANC's #1, #8, #5, ...

........................................................................
.............................. CYCLE   19 ..............................
........................................................................

 iter      E             dE          RMSdq      gap      omega  full diag
   1    -72.1998208 -0.721998E+02  0.462E-02    2.51       0.0  T
   2    -72.1998276 -0.675064E-05  0.264E-02    2.53       1.0  T
   3    -72.1998258  0.179962E-05  0.138E-02    2.52       1.1  T
   4    -72.1998295 -0.374819E-05  0.268E-03    2.53       5.8  T
   5    -72.1998298 -0.204728E-06  0.105E-03    2.53      14.7  T
   6    -72.1998298 -0.658684E-08  0.555E-04    2.53      27.8  T
   7    -72.1998298 -0.506411E-08  0.170E-04    2.53      91.0  T
     SCC iter.                  ...        0 min,  0.030 sec
     gradient                   ...        0 min,  0.026 sec
 * total energy  :   -71.3050220 Eh     change       -0.4284068E-04 Eh
   gradient norm :     0.0047545 Eh/α   predicted    -0.5129019E-04 (  19.72%)
   displ. norm   :     0.2003923 α      lambda       -0.5900765E-04
   maximum displ.:     0.1294042 α      in ANC's #1, #2, #4, ...

........................................................................
.............................. CYCLE   20 ..............................
........................................................................

 iter      E             dE          RMSdq      gap      omega  full diag
   1    -72.1992599 -0.721993E+02  0.411E-02    2.52       0.0  T
   2    -72.1992634 -0.353224E-05  0.235E-02    2.53       1.0  T
   3    -72.1992614  0.202764E-05  0.111E-02    2.53       1.4  T
   4    -72.1992646 -0.321118E-05  0.205E-03    2.53       7.5  T
   5    -72.1992647 -0.108888E-06  0.905E-04    2.53      17.1  T
   6    -72.1992647 -0.424269E-08  0.449E-04    2.53      34.4  T
     SCC iter.                  ...        0 min,  0.013 sec
     gradient                   ...        0 min,  0.041 sec
 * total energy  :   -71.3050622 Eh     change       -0.4017716E-04 Eh
   gradient norm :     0.0036430 Eh/α   predicted    -0.3068903E-04 ( -23.62%)
   displ. norm   :     0.1830181 α      lambda       -0.5704731E-04
   maximum displ.:     0.1365986 α      in ANC's #1, #6, #2, ...
 * RMSD in coord.:     0.7827004 α      energy gain  -0.1978825E-01 Eh

generating ANC from exact Hessian ...
Using Lindh-Hessian (1995)
 Shifting diagonal of input Hessian by    9.5874917297326979E-003
 Lowest  eigenvalues of input Hessian
    0.000000    0.000000    0.000000    0.000000    0.000000    0.000000
    0.010000    0.010294    0.010807    0.011720    0.012179    0.012644
    0.013611    0.015056    0.016142    0.017085    0.019968    0.020879
 Highest eigenvalues
    1.973181    2.082876    2.117820    2.202802    2.299742    2.400595


........................................................................
.............................. CYCLE   21 ..............................
........................................................................

 iter      E             dE          RMSdq      gap      omega  full diag
   1    -72.1992538 -0.721993E+02  0.362E-02    2.52       0.0  T
   2    -72.1992561 -0.229504E-05  0.208E-02    2.53       1.0  T
   3    -72.1992547  0.147530E-05  0.883E-03    2.53       1.7  T
   4    -72.1992568 -0.216562E-05  0.163E-03    2.53       9.5  T
   5    -72.1992569 -0.580433E-07  0.771E-04    2.53      20.0  T
   6    -72.1992569 -0.363165E-08  0.344E-04    2.53      44.8  T
     SCC iter.                  ...        0 min,  0.013 sec
     gradient                   ...        0 min,  0.026 sec
 * total energy  :   -71.3050974 Eh     change       -0.3517456E-04 Eh
   gradient norm :     0.0031040 Eh/α   predicted     0.0000000E+00 (-100.00%)
   displ. norm   :     0.0338392 α      lambda       -0.3111459E-04
   maximum displ.:     0.0160973 α      in ANC's #1, #5, #3, ...

........................................................................
.............................. CYCLE   22 ..............................
........................................................................

 iter      E             dE          RMSdq      gap      omega  full diag
   1    -72.1997052 -0.721997E+02  0.100E-02    2.53       0.0  T
   2    -72.1997054 -0.155869E-06  0.592E-03    2.53       2.6  T
   3    -72.1997053  0.103920E-06  0.246E-03    2.53       6.3  T
   4    -72.1997054 -0.147905E-06  0.433E-04    2.53      35.6  T
   5    -72.1997054 -0.423221E-08  0.186E-04    2.53      82.9  T
     SCC iter.                  ...        0 min,  0.032 sec
     gradient                   ...        0 min,  0.026 sec
 * total energy  :   -71.3051196 Eh     change       -0.2221277E-04 Eh
   gradient norm :     0.0012791 Eh/α   predicted    -0.1561040E-04 ( -29.72%)
   displ. norm   :     0.1030647 α      lambda       -0.2973509E-04
   maximum displ.:     0.0515816 α      in ANC's #1, #5, #3, ...

........................................................................
.............................. CYCLE   23 ..............................
........................................................................

 iter      E             dE          RMSdq      gap      omega  full diag
   1    -72.2003769 -0.722004E+02  0.234E-02    2.53       0.0  T
   2    -72.2003774 -0.577750E-06  0.137E-02    2.52       1.1  T
   3    -72.2003769  0.543127E-06  0.527E-03    2.53       2.9  T
   4    -72.2003776 -0.737806E-06  0.821E-04    2.52      18.8  T
   5    -72.2003776 -0.130029E-07  0.392E-04    2.52      39.4  T
     SCC iter.                  ...        0 min,  0.011 sec
     gradient                   ...        0 min,  0.053 sec
 * total energy  :   -71.3051441 Eh     change       -0.2453216E-04 Eh
   gradient norm :     0.0026053 Eh/α   predicted    -0.1494204E-04 ( -39.09%)
   displ. norm   :     0.0649629 α      lambda       -0.2101519E-04
   maximum displ.:     0.0343060 α      in ANC's #1, #5, #3, ...

........................................................................
.............................. CYCLE   24 ..............................
........................................................................

 iter      E             dE          RMSdq      gap      omega  full diag
   1    -72.2002926 -0.722003E+02  0.136E-02    2.52       0.0  T
   2    -72.2002927 -0.557185E-07  0.798E-03    2.52       1.9  T
   3    -72.2002926  0.486344E-07  0.153E-03    2.52      10.1  T
   4    -72.2002927 -0.688846E-07  0.315E-04    2.52      48.9  T
   5    -72.2002927 -0.809266E-09  0.167E-04    2.52      92.2  T
     SCC iter.                  ...        0 min,  0.011 sec
     gradient                   ...        0 min,  0.026 sec
 * total energy  :   -71.3051628 Eh     change       -0.1866248E-04 Eh
   gradient norm :     0.0024844 Eh/α   predicted    -0.1055229E-04 ( -43.46%)
   displ. norm   :     0.1989072 α      lambda       -0.6011303E-04
   maximum displ.:     0.1045974 α      in ANC's #1, #5, #3, ...

........................................................................
.............................. CYCLE   25 ..............................
........................................................................

 iter      E             dE          RMSdq      gap      omega  full diag
   1    -72.1997201 -0.721997E+02  0.414E-02    2.52       0.0  T
   2    -72.1997205 -0.394443E-06  0.243E-02    2.52       1.0  T
   3    -72.1997204  0.847103E-07  0.283E-03    2.52       5.4  T
   4    -72.1997206 -0.220950E-06  0.903E-04    2.52      17.1  T
   5    -72.1997206 -0.547229E-08  0.477E-04    2.52      32.4  T
     SCC iter.                  ...        0 min,  0.011 sec
     gradient                   ...        0 min,  0.041 sec
 * total energy  :   -71.3052081 Eh     change       -0.4533538E-04 Eh
   gradient norm :     0.0017372 Eh/α   predicted    -0.3131048E-04 ( -30.94%)
   displ. norm   :     0.2942604 α      lambda       -0.3634941E-04
   maximum displ.:     0.1646936 α      in ANC's #1, #2, #3, ...

........................................................................
.............................. CYCLE   26 ..............................
........................................................................

 iter      E             dE          RMSdq      gap      omega  full diag
   1    -72.1990325 -0.721990E+02  0.606E-02    2.51       0.0  T
   2    -72.1990332 -0.714429E-06  0.355E-02    2.51       1.0  T
   3    -72.1990332 -0.215640E-07  0.303E-03    2.51       5.1  T
   4    -72.1990335 -0.245832E-06  0.124E-03    2.51      12.5  T
   5    -72.1990335 -0.557836E-08  0.683E-04    2.51      22.6  T
   6    -72.1990335 -0.619693E-08  0.184E-04    2.51      83.7  T
     SCC iter.                  ...        0 min,  0.013 sec
     gradient                   ...        0 min,  0.026 sec
 * total energy  :   -71.3052395 Eh     change       -0.3137251E-04 Eh
   gradient norm :     0.0021023 Eh/α   predicted    -0.1887674E-04 ( -39.83%)
   displ. norm   :     0.0561148 α      lambda       -0.1511695E-04
   maximum displ.:     0.0390241 α      in ANC's #1, #2, #3, ...

........................................................................
.............................. CYCLE   27 ..............................
........................................................................

 iter      E             dE          RMSdq      gap      omega  full diag
   1    -72.1996896 -0.721997E+02  0.112E-02    2.51       0.0  T
   2    -72.1996897 -0.747131E-07  0.655E-03    2.51       2.4  T
   3    -72.1996895  0.145800E-06  0.210E-03    2.51       7.3  T
   4    -72.1996897 -0.178492E-06  0.375E-04    2.51      41.1  T
   5    -72.1996897 -0.236311E-08  0.184E-04    2.51      83.8  T
     SCC iter.                  ...        0 min,  0.011 sec
     gradient                   ...        0 min,  0.041 sec
 * total energy  :   -71.3052531 Eh     change       -0.1362848E-04 Eh
   gradient norm :     0.0014399 Eh/α   predicted    -0.7586924E-05 ( -44.33%)
   displ. norm   :     0.1588252 α      lambda       -0.3529280E-04
   maximum displ.:     0.1141093 α      in ANC's #1, #2, #3, ...

........................................................................
.............................. CYCLE   28 ..............................
........................................................................

 iter      E             dE          RMSdq      gap      omega  full diag
   1    -72.2014953 -0.722015E+02  0.318E-02    2.50       0.0  T
   2    -72.2014963 -0.103598E-05  0.183E-02    2.51       1.0  T
   3    -72.2014949  0.143386E-05  0.764E-03    2.51       2.0  T
   4    -72.2014968 -0.188587E-05  0.127E-03    2.51      12.2  T
   5    -72.2014968 -0.293949E-07  0.623E-04    2.51      24.8  T
   6    -72.2014968 -0.220406E-08  0.283E-04    2.51      54.5  T
     SCC iter.                  ...        0 min,  0.013 sec
     gradient                   ...        0 min,  0.026 sec
 * total energy  :   -71.3052883 Eh     change       -0.3518419E-04 Eh
   gradient norm :     0.0017725 Eh/α   predicted    -0.1784475E-04 ( -49.28%)
   displ. norm   :     0.1604860 α      lambda       -0.2020617E-04
   maximum displ.:     0.1147043 α      in ANC's #1, #2, #3, ...

........................................................................
.............................. CYCLE   29 ..............................
........................................................................

 iter      E             dE          RMSdq      gap      omega  full diag
   1    -72.2012017 -0.722012E+02  0.313E-02    2.50       0.0  T
   2    -72.2012024 -0.728265E-06  0.181E-02    2.51       1.0  T
   3    -72.2012013  0.104844E-05  0.610E-03    2.50       2.5  T
   4    -72.2012027 -0.135668E-05  0.109E-03    2.51      14.2  T
   5    -72.2012027 -0.181633E-07  0.558E-04    2.51      27.7  T
   6    -72.2012027 -0.131851E-08  0.223E-04    2.51      69.3  T
     SCC iter.                  ...        0 min,  0.013 sec
     gradient                   ...        0 min,  0.026 sec
 * total energy  :   -71.3053155 Eh     change       -0.2722567E-04 Eh
   gradient norm :     0.0020807 Eh/α   predicted    -0.1022255E-04 ( -62.45%)
   displ. norm   :     0.1457975 α      lambda       -0.3099377E-04
   maximum displ.:     0.1028206 α      in ANC's #1, #2, #3, ...

........................................................................
.............................. CYCLE   30 ..............................
........................................................................

 iter      E             dE          RMSdq      gap      omega  full diag
   1    -72.2007016 -0.722007E+02  0.283E-02    2.50       0.0  T
   2    -72.2007023 -0.715888E-06  0.163E-02    2.50       1.0  T
   3    -72.2007014  0.878149E-06  0.562E-03    2.50       2.7  T
   4    -72.2007026 -0.115552E-05  0.105E-03    2.50      14.7  T
   5    -72.2007026 -0.178471E-07  0.523E-04    2.50      29.5  T
   6    -72.2007026 -0.107623E-08  0.201E-04    2.50      76.9  T
     SCC iter.                  ...        0 min,  0.013 sec
     gradient                   ...        0 min,  0.047 sec
 * total energy  :   -71.3053447 Eh     change       -0.2920866E-04 Eh
   gradient norm :     0.0015840 Eh/α   predicted    -0.1582710E-04 ( -45.81%)
   displ. norm   :     0.3949160 α      lambda       -0.5588659E-04
   maximum displ.:     0.2761990 α      in ANC's #1, #2, #3, ...

........................................................................
.............................. CYCLE   31 ..............................
........................................................................

 iter      E             dE          RMSdq      gap      omega  full diag
   1    -72.1987422 -0.721987E+02  0.763E-02    2.49       0.0  T
   2    -72.1987471 -0.486057E-05  0.440E-02    2.50       1.0  T
   3    -72.1987410  0.609314E-05  0.144E-02    2.50       1.1  T
   4    -72.1987490 -0.800297E-05  0.282E-03    2.50       5.5  T
   5    -72.1987491 -0.121532E-06  0.140E-03    2.50      11.0  T
   6    -72.1987491 -0.823223E-08  0.518E-04    2.50      29.8  T
   7    -72.1987491 -0.742457E-08  0.136E-04    2.50     113.2  T
     SCC iter.                  ...        0 min,  0.015 sec
     gradient                   ...        0 min,  0.026 sec
 * total energy  :   -71.3054128 Eh     change       -0.6808418E-04 Eh
   gradient norm :     0.0022634 Eh/α   predicted    -0.2988253E-04 ( -56.11%)
   displ. norm   :     0.2673591 α      lambda       -0.4965252E-04
   maximum displ.:     0.1894275 α      in ANC's #1, #3, #2, ...

........................................................................
.............................. CYCLE   32 ..............................
........................................................................

 iter      E             dE          RMSdq      gap      omega  full diag
   1    -72.1978538 -0.721979E+02  0.501E-02    2.50       0.0  T
   2    -72.1978559 -0.211820E-05  0.289E-02    2.50       1.0  T
   3    -72.1978535  0.240162E-05  0.908E-03    2.50       1.7  T
   4    -72.1978567 -0.319940E-05  0.191E-03    2.50       8.1  T
   5    -72.1978567 -0.553042E-07  0.933E-04    2.50      16.5  T
   6    -72.1978567 -0.358399E-08  0.337E-04    2.50      45.8  T
     SCC iter.                  ...        0 min,  0.035 sec
     gradient                   ...        0 min,  0.026 sec
 * total energy  :   -71.3054557 Eh     change       -0.4290549E-04 Eh
   gradient norm :     0.0034807 Eh/α   predicted    -0.2660365E-04 ( -37.99%)
   displ. norm   :     0.4214286 α      lambda       -0.8618429E-04
   maximum displ.:     0.3024204 α      in ANC's #1, #3, #2, ...

........................................................................
.............................. CYCLE   33 ..............................
........................................................................

 iter      E             dE          RMSdq      gap      omega  full diag
   1    -72.1966171 -0.721966E+02  0.770E-02    2.50       0.0  T
   2    -72.1966216 -0.449774E-05  0.443E-02    2.51       1.0  T
   3    -72.1966171  0.442613E-05  0.124E-02    2.50       1.2  T
   4    -72.1966232 -0.604506E-05  0.292E-03    2.51       5.3  T
   5    -72.1966233 -0.124422E-06  0.140E-03    2.51      11.0  T
   6    -72.1966233 -0.879888E-08  0.477E-04    2.51      32.4  T
   7    -72.1966233 -0.647708E-08  0.120E-04    2.51     128.4  T
     SCC iter.                  ...        0 min,  0.015 sec
     gradient                   ...        0 min,  0.026 sec
 * total energy  :   -71.3055229 Eh     change       -0.6713987E-04 Eh
   gradient norm :     0.0054771 Eh/α   predicted    -0.5074915E-04 ( -24.41%)
   displ. norm   :     0.3983580 α      lambda       -0.1109760E-03
   maximum displ.:     0.2901202 α      in ANC's #1, #3, #5, ...

........................................................................
.............................. CYCLE   34 ..............................
........................................................................

 iter      E             dE          RMSdq      gap      omega  full diag
   1    -72.1965032 -0.721965E+02  0.700E-02    2.50       0.0  T
   2    -72.1965069 -0.376062E-05  0.402E-02    2.51       1.0  T
   3    -72.1965043  0.264173E-05  0.997E-03    2.51       1.5  T
   4    -72.1965081 -0.384956E-05  0.276E-03    2.51       5.6  T
   5    -72.1965082 -0.120867E-06  0.127E-03    2.51      12.1  T
   6    -72.1965083 -0.716199E-08  0.413E-04    2.51      37.4  T
   7    -72.1965083 -0.498201E-08  0.103E-04    2.51     149.7  T
     SCC iter.                  ...        0 min,  0.015 sec
     gradient                   ...        0 min,  0.026 sec
 * total energy  :   -71.3056126 Eh     change       -0.8976184E-04 Eh
   gradient norm :     0.0066708 Eh/α   predicted    -0.6429629E-04 ( -28.37%)
   displ. norm   :     0.3852360 α      lambda       -0.2197702E-03
   maximum displ.:     0.2728363 α      in ANC's #1, #5, #3, ...

........................................................................
.............................. CYCLE   35 ..............................
........................................................................

 iter      E             dE          RMSdq      gap      omega  full diag
   1    -72.2000196 -0.722000E+02  0.673E-02    2.51       0.0  T
   2    -72.2000242 -0.458141E-05  0.385E-02    2.52       1.0  T
   3    -72.2000223  0.190026E-05  0.949E-03    2.51       1.6  T
   4    -72.2000253 -0.300889E-05  0.299E-03    2.52       5.2  T
   5    -72.2000255 -0.198065E-06  0.134E-03    2.52      11.5  T
   6    -72.2000255 -0.626329E-08  0.467E-04    2.52      33.0  T
   7    -72.2000255 -0.647927E-08  0.128E-04    2.52     120.1  T
     SCC iter.                  ...        0 min,  0.015 sec
     gradient                   ...        0 min,  0.047 sec
 * total energy  :   -71.3057744 Eh     change       -0.1617870E-03 Eh
   gradient norm :     0.0058523 Eh/α   predicted    -0.1261979E-03 ( -22.00%)
   displ. norm   :     0.6576570 α      lambda       -0.2484227E-03
   maximum displ.:     0.4616385 α      in ANC's #1, #3, #5, ...

........................................................................
.............................. CYCLE   36 ..............................
........................................................................

 iter      E             dE          RMSdq      gap      omega  full diag
   1    -72.1979592 -0.721980E+02  0.115E-01    2.52       0.0  T
   2    -72.1979654 -0.618518E-05  0.665E-02    2.52       1.0  T
   3    -72.1979656 -0.174005E-06  0.815E-03    2.52       1.9  T
   4    -72.1979672 -0.165686E-05  0.374E-03    2.52       4.1  T
   5    -72.1979674 -0.167872E-06  0.160E-03    2.52       9.6  T
   6    -72.1979674 -0.285694E-07  0.454E-04    2.52      34.0  T
   7    -72.1979674 -0.622421E-08  0.151E-04    2.52     102.0  T
     SCC iter.                  ...        0 min,  0.015 sec
     gradient                   ...        0 min,  0.026 sec
 * total energy  :   -71.3059658 Eh     change       -0.1913466E-03 Eh
   gradient norm :     0.0075463 Eh/α   predicted    -0.1779371E-03 (  -7.01%)
   displ. norm   :     0.4433925 α      lambda       -0.3881738E-03
   maximum displ.:     0.2457378 α      in ANC's #1, #4, #3, ...

........................................................................
.............................. CYCLE   37 ..............................
........................................................................

 iter      E             dE          RMSdq      gap      omega  full diag
   1    -72.2005678 -0.722006E+02  0.910E-02    2.52       0.0  T
   2    -72.2005737 -0.598100E-05  0.528E-02    2.52       1.0  T
   3    -72.2005730  0.767698E-06  0.846E-03    2.52       1.8  T
   4    -72.2005747 -0.171422E-05  0.282E-03    2.52       5.5  T
   5    -72.2005749 -0.157912E-06  0.127E-03    2.52      12.1  T
   6    -72.2005749 -0.190762E-08  0.429E-04    2.52      36.0  T
   7    -72.2005749 -0.581198E-08  0.154E-04    2.52     100.0  T
     SCC iter.                  ...        0 min,  0.015 sec
     gradient                   ...        0 min,  0.034 sec
 * total energy  :   -71.3062301 Eh     change       -0.2643758E-03 Eh
   gradient norm :     0.0061101 Eh/α   predicted    -0.2322495E-03 ( -12.15%)
   displ. norm   :     0.5704046 α      lambda       -0.2688716E-03
   maximum displ.:     0.3601138 α      in ANC's #1, #3, #4, ...

........................................................................
.............................. CYCLE   38 ..............................
........................................................................

 iter      E             dE          RMSdq      gap      omega  full diag
   1    -72.1970092 -0.721970E+02  0.100E-01    2.53       0.0  T
   2    -72.1970136 -0.434005E-05  0.582E-02    2.53       1.0  T
   3    -72.1970128  0.805760E-06  0.860E-03    2.53       1.8  T
   4    -72.1970150 -0.218478E-05  0.308E-03    2.53       5.0  T
   5    -72.1970150 -0.804131E-07  0.150E-03    2.53      10.3  T
   6    -72.1970151 -0.297533E-07  0.477E-04    2.53      32.4  T
   7    -72.1970151 -0.625246E-08  0.162E-04    2.53      95.0  T
     SCC iter.                  ...        0 min,  0.015 sec
     gradient                   ...        0 min,  0.026 sec
 * total energy  :   -71.3064224 Eh     change       -0.1922976E-03 Eh
   gradient norm :     0.0083070 Eh/α   predicted    -0.1781809E-03 (  -7.34%)
   displ. norm   :     0.4069408 α      lambda       -0.5027287E-03
   maximum displ.:     0.2599614 α      in ANC's #4, #3, #1, ...

........................................................................
.............................. CYCLE   39 ..............................
........................................................................

 iter      E             dE          RMSdq      gap      omega  full diag
   1    -72.2007170 -0.722007E+02  0.992E-02    2.52       0.0  T
   2    -72.2007210 -0.399912E-05  0.579E-02    2.52       1.0  T
   3    -72.2007194  0.153064E-05  0.929E-03    2.52       1.7  T
   4    -72.2007222 -0.271816E-05  0.341E-03    2.52       4.5  T
   5    -72.2007224 -0.213744E-06  0.155E-03    2.52       9.9  T
   6    -72.2007224 -0.142093E-07  0.453E-04    2.52      34.0  T
   7    -72.2007224 -0.346591E-08  0.203E-04    2.52      76.2  T
     SCC iter.                  ...        0 min,  0.024 sec
     gradient                   ...        0 min,  0.026 sec
 * total energy  :   -71.3065477 Eh     change       -0.1252157E-03 Eh
   gradient norm :     0.0092234 Eh/α   predicted    -0.2929958E-03 ( 133.99%)
   displ. norm   :     0.4007591 α      lambda       -0.3565703E-03
   maximum displ.:     0.2543902 α      in ANC's #1, #3, #5, ...

........................................................................
.............................. CYCLE   40 ..............................
........................................................................

 iter      E             dE          RMSdq      gap      omega  full diag
   1    -72.1965425 -0.721965E+02  0.717E-02    2.54       0.0  T
   2    -72.1965458 -0.325838E-05  0.416E-02    2.53       1.0  T
   3    -72.1965450  0.817933E-06  0.787E-03    2.53       2.0  T
   4    -72.1965466 -0.160633E-05  0.253E-03    2.53       6.1  T
   5    -72.1965467 -0.758259E-07  0.117E-03    2.53      13.2  T
   6    -72.1965467 -0.565539E-08  0.308E-04    2.53      50.1  T
   7    -72.1965467 -0.208566E-08  0.133E-04    2.53     116.4  T
     SCC iter.                  ...        0 min,  0.015 sec
     gradient                   ...        0 min,  0.026 sec
 * total energy  :   -71.3067489 Eh     change       -0.2011991E-03 Eh
   gradient norm :     0.0066858 Eh/α   predicted    -0.2069217E-03 (   2.84%)
   displ. norm   :     0.0915149 α      lambda       -0.1172061E-03
   maximum displ.:     0.0432369 α      in ANC's #6, #1, #5, ...

........................................................................
.............................. CYCLE   41 ..............................
........................................................................

 iter      E             dE          RMSdq      gap      omega  full diag
   1    -72.1993690 -0.721994E+02  0.214E-02    2.54       0.0  T
   2    -72.1993698 -0.717461E-06  0.124E-02    2.53       1.2  T
   3    -72.1993695  0.294474E-06  0.415E-03    2.53       3.7  T
   4    -72.1993699 -0.422453E-06  0.107E-03    2.53      14.4  T
   5    -72.1993699 -0.271801E-07  0.456E-04    2.53      33.9  T
   6    -72.1993699 -0.202098E-08  0.210E-04    2.53      73.5  T
     SCC iter.                  ...        0 min,  0.013 sec
     gradient                   ...        0 min,  0.026 sec
 * total energy  :   -71.3068337 Eh     change       -0.8481867E-04 Eh
   gradient norm :     0.0050088 Eh/α   predicted    -0.5909534E-04 ( -30.33%)
   displ. norm   :     0.3316364 α      lambda       -0.1652751E-03
   maximum displ.:     0.1572711 α      in ANC's #1, #4, #6, ...

........................................................................
.............................. CYCLE   42 ..............................
........................................................................

 iter      E             dE          RMSdq      gap      omega  full diag
   1    -72.2011403 -0.722011E+02  0.597E-02    2.54       0.0  T
   2    -72.2011425 -0.220671E-05  0.346E-02    2.54       1.0  T
   3    -72.2011412  0.133935E-05  0.819E-03    2.54       1.9  T
   4    -72.2011432 -0.199845E-05  0.213E-03    2.54       7.2  T
   5    -72.2011432 -0.562713E-07  0.105E-03    2.54      14.7  T
   6    -72.2011432 -0.812564E-08  0.425E-04    2.54      36.3  T
   7    -72.2011432 -0.449793E-08  0.128E-04    2.54     121.0  T
     SCC iter.                  ...        0 min,  0.015 sec
     gradient                   ...        0 min,  0.047 sec
 * total energy  :   -71.3069492 Eh     change       -0.1154954E-03 Eh
   gradient norm :     0.0048618 Eh/α   predicted    -0.9173098E-04 ( -20.58%)
   displ. norm   :     0.2243390 α      lambda       -0.1091011E-03
   maximum displ.:     0.1035117 α      in ANC's #4, #6, #1, ...
 * RMSD in coord.:     0.8500050 α      energy gain  -0.1886964E-02 Eh

generating ANC from exact Hessian ...
Using Lindh-Hessian (1995)
 Shifting diagonal of input Hessian by    9.6290934587377666E-003
 Lowest  eigenvalues of input Hessian
    0.000000    0.000000    0.000000    0.000000    0.000000    0.000000
    0.010000    0.010304    0.011027    0.011773    0.012131    0.012531
    0.013690    0.015069    0.016325    0.017186    0.020122    0.021071
 Highest eigenvalues
    1.972958    2.073900    2.118302    2.205550    2.301134    2.401000


........................................................................
.............................. CYCLE   43 ..............................
........................................................................

 iter      E             dE          RMSdq      gap      omega  full diag
   1    -72.2026997 -0.722027E+02  0.419E-02    2.54       0.0  T
   2    -72.2027010 -0.128088E-05  0.242E-02    2.54       1.0  T
   3    -72.2027003  0.687483E-06  0.603E-03    2.54       2.6  T
   4    -72.2027013 -0.104491E-05  0.145E-03    2.54      10.6  T
   5    -72.2027014 -0.245478E-07  0.699E-04    2.54      22.1  T
   6    -72.2027014 -0.286822E-08  0.280E-04    2.54      55.1  T
     SCC iter.                  ...        0 min,  0.013 sec
     gradient                   ...        0 min,  0.026 sec
 * total energy  :   -71.3070214 Eh     change       -0.7225616E-04 Eh
   gradient norm :     0.0040232 Eh/α   predicted     0.0000000E+00 (-100.00%)
   displ. norm   :     0.0369186 α      lambda       -0.4176130E-04
   maximum displ.:     0.0162311 α      in ANC's #7, #8, #2, ...

........................................................................
.............................. CYCLE   44 ..............................
........................................................................

 iter      E             dE          RMSdq      gap      omega  full diag
   1    -72.2020073 -0.722020E+02  0.140E-02    2.54       0.0  T
   2    -72.2020075 -0.170885E-06  0.826E-03    2.54       1.9  T
   3    -72.2020073  0.203258E-06  0.264E-03    2.54       5.9  T
   4    -72.2020076 -0.248948E-06  0.632E-04    2.54      24.4  T
   5    -72.2020076 -0.119083E-07  0.254E-04    2.54      60.7  T
     SCC iter.                  ...        0 min,  0.011 sec
     gradient                   ...        0 min,  0.026 sec
 * total energy  :   -71.3070539 Eh     change       -0.3249840E-04 Eh
   gradient norm :     0.0016511 Eh/α   predicted    -0.2213252E-04 ( -31.90%)
   displ. norm   :     0.1123324 α      lambda       -0.4176464E-04
   maximum displ.:     0.0505707 α      in ANC's #7, #2, #5, ...

........................................................................
.............................. CYCLE   45 ..............................
........................................................................

 iter      E             dE          RMSdq      gap      omega  full diag
   1    -72.2008872 -0.722009E+02  0.302E-02    2.53       0.0  T
   2    -72.2008879 -0.705370E-06  0.178E-02    2.53       1.0  T
   3    -72.2008871  0.736032E-06  0.500E-03    2.53       3.1  T
   4    -72.2008881 -0.915509E-06  0.133E-03    2.53      11.6  T
   5    -72.2008881 -0.494150E-07  0.563E-04    2.53      27.4  T
   6    -72.2008881 -0.117328E-08  0.253E-04    2.53      60.9  T
     SCC iter.                  ...        0 min,  0.013 sec
     gradient                   ...        0 min,  0.047 sec
 * total energy  :   -71.3070845 Eh     change       -0.3054107E-04 Eh
   gradient norm :     0.0031095 Eh/α   predicted    -0.2100057E-04 ( -31.24%)
   displ. norm   :     0.0479005 α      lambda       -0.1979719E-04
   maximum displ.:     0.0216129 α      in ANC's #2, #8, #5, ...

........................................................................
.............................. CYCLE   46 ..............................
........................................................................

 iter      E             dE          RMSdq      gap      omega  full diag
   1    -72.2011330 -0.722011E+02  0.105E-02    2.53       0.0  T
   2    -72.2011330 -0.445141E-07  0.615E-03    2.53       2.5  T
   3    -72.2011331 -0.144881E-08  0.680E-04    2.53      22.7  T
   4    -72.2011331 -0.117959E-07  0.305E-04    2.53      50.6  T
     SCC iter.                  ...        0 min,  0.009 sec
     gradient                   ...        0 min,  0.026 sec
 * total energy  :   -71.3071015 Eh     change       -0.1704832E-04 Eh
   gradient norm :     0.0026387 Eh/α   predicted    -0.9922239E-05 ( -41.80%)
   displ. norm   :     0.1900636 α      lambda       -0.6595257E-04
   maximum displ.:     0.0862121 α      in ANC's #2, #8, #5, ...

........................................................................
.............................. CYCLE   47 ..............................
........................................................................

 iter      E             dE          RMSdq      gap      omega  full diag
   1    -72.2017293 -0.722017E+02  0.412E-02    2.54       0.0  T
   2    -72.2017299 -0.631661E-06  0.241E-02    2.54       1.0  T
   3    -72.2017299  0.646033E-07  0.296E-03    2.54       5.2  T
   4    -72.2017301 -0.269242E-06  0.122E-03    2.54      12.7  T
   5    -72.2017302 -0.153621E-07  0.660E-04    2.54      23.4  T
   6    -72.2017302 -0.584645E-08  0.208E-04    2.54      74.2  T
     SCC iter.                  ...        0 min,  0.013 sec
     gradient                   ...        0 min,  0.047 sec
 * total energy  :   -71.3071441 Eh     change       -0.4253807E-04 Eh
   gradient norm :     0.0015612 Eh/α   predicted    -0.3416830E-04 ( -19.68%)
   displ. norm   :     0.1688249 α      lambda       -0.1900053E-04
   maximum displ.:     0.0818390 α      in ANC's #2, #3, #8, ...

........................................................................
.............................. CYCLE   48 ..............................
........................................................................

 iter      E             dE          RMSdq      gap      omega  full diag
   1    -72.2016528 -0.722017E+02  0.353E-02    2.54       0.0  T
   2    -72.2016534 -0.535530E-06  0.206E-02    2.54       1.0  T
   3    -72.2016531  0.307732E-06  0.370E-03    2.54       4.2  T
   4    -72.2016536 -0.496525E-06  0.110E-03    2.54      14.0  T
   5    -72.2016536 -0.145476E-07  0.576E-04    2.54      26.8  T
   6    -72.2016536 -0.212061E-08  0.208E-04    2.54      74.0  T
     SCC iter.                  ...        0 min,  0.013 sec
     gradient                   ...        0 min,  0.026 sec
 * total energy  :   -71.3071610 Eh     change       -0.1694732E-04 Eh
   gradient norm :     0.0014778 Eh/α   predicted    -0.9621961E-05 ( -43.22%)
   displ. norm   :     0.0577196 α      lambda       -0.9603872E-05
   maximum displ.:     0.0325708 α      in ANC's #3, #2, #6, ...

........................................................................
.............................. CYCLE   49 ..............................
........................................................................

 iter      E             dE          RMSdq      gap      omega  full diag
   1    -72.2018943 -0.722019E+02  0.113E-02    2.54       0.0  T
   2    -72.2018945 -0.136792E-06  0.662E-03    2.54       2.3  T
   3    -72.2018944  0.103969E-06  0.243E-03    2.54       6.4  T
   4    -72.2018945 -0.149106E-06  0.396E-04    2.54      39.0  T
   5    -72.2018945 -0.175454E-08  0.201E-04    2.54      76.7  T
     SCC iter.                  ...        0 min,  0.011 sec
     gradient                   ...        0 min,  0.026 sec
 * total energy  :   -71.3071716 Eh     change       -0.1062724E-04 Eh
   gradient norm :     0.0006920 Eh/α   predicted    -0.4813679E-05 ( -54.70%)
   displ. norm   :     0.0765366 α      lambda       -0.8707832E-05
   maximum displ.:     0.0417464 α      in ANC's #2, #3, #1, ...

........................................................................
.............................. CYCLE   50 ..............................
........................................................................

 iter      E             dE          RMSdq      gap      omega  full diag
   1    -72.2016730 -0.722017E+02  0.141E-02    2.54       0.0  T
   2    -72.2016731 -0.178000E-06  0.826E-03    2.54       1.9  T
   3    -72.2016730  0.181554E-06  0.308E-03    2.54       5.0  T
   4    -72.2016732 -0.250162E-06  0.451E-04    2.54      34.2  T
   5    -72.2016732 -0.259760E-08  0.240E-04    2.54      64.2  T
     SCC iter.                  ...        0 min,  0.011 sec
     gradient                   ...        0 min,  0.047 sec
 * total energy  :   -71.3071814 Eh     change       -0.9753127E-05 Eh
   gradient norm :     0.0007853 Eh/α   predicted    -0.4368276E-05 ( -55.21%)
   displ. norm   :     0.0938636 α      lambda       -0.7983449E-05
   maximum displ.:     0.0510532 α      in ANC's #2, #3, #1, ...

........................................................................
.............................. CYCLE   51 ..............................
........................................................................

 iter      E             dE          RMSdq      gap      omega  full diag
   1    -72.2015191 -0.722015E+02  0.170E-02    2.54       0.0  T
   2    -72.2015193 -0.195887E-06  0.994E-03    2.54       1.6  T
   3    -72.2015191  0.218349E-06  0.308E-03    2.54       5.0  T
   4    -72.2015193 -0.289184E-06  0.551E-04    2.54      28.0  T
   5    -72.2015194 -0.445232E-08  0.298E-04    2.54      51.7  T
     SCC iter.                  ...        0 min,  0.011 sec
     gradient                   ...        0 min,  0.026 sec
 * total energy  :   -71.3071901 Eh     change       -0.8708459E-05 Eh
   gradient norm :     0.0009473 Eh/α   predicted    -0.4009796E-05 ( -53.96%)
   displ. norm   :     0.0984980 α      lambda       -0.6472932E-05
   maximum displ.:     0.0526996 α      in ANC's #2, #1, #3, ...

........................................................................
.............................. CYCLE   52 ..............................
........................................................................

 iter      E             dE          RMSdq      gap      omega  full diag
   1    -72.2016038 -0.722016E+02  0.180E-02    2.54       0.0  T
   2    -72.2016039 -0.150103E-06  0.105E-02    2.54       1.5  T
   3    -72.2016037  0.227757E-06  0.283E-03    2.54       5.5  T
   4    -72.2016040 -0.297386E-06  0.550E-04    2.54      28.0  T
   5    -72.2016040 -0.325862E-08  0.312E-04    2.54      49.5  T
     SCC iter.                  ...        0 min,  0.011 sec
     gradient                   ...        0 min,  0.047 sec
 * total energy  :   -71.3071964 Eh     change       -0.6306676E-05 Eh
   gradient norm :     0.0005478 Eh/α   predicted    -0.3251898E-05 ( -48.44%)
   displ. norm   :     0.0585325 α      lambda       -0.2938989E-05
   maximum displ.:     0.0328996 α      in ANC's #2, #1, #3, ...

........................................................................
.............................. CYCLE   53 ..............................
........................................................................

 iter      E             dE          RMSdq      gap      omega  full diag
   1    -72.2015276 -0.722015E+02  0.113E-02    2.54       0.0  T
   2    -72.2015277 -0.878371E-07  0.662E-03    2.53       2.3  T
   3    -72.2015276  0.833473E-07  0.172E-03    2.54       9.0  T
   4    -72.2015277 -0.112986E-06  0.399E-04    2.53      38.7  T
   5    -72.2015277 -0.254748E-08  0.213E-04    2.53      72.5  T
     SCC iter.                  ...        0 min,  0.011 sec
     gradient                   ...        0 min,  0.026 sec
 * total energy  :   -71.3071994 Eh     change       -0.3005815E-05 Eh
   gradient norm :     0.0005026 Eh/α   predicted    -0.1475594E-05 ( -50.91%)
   displ. norm   :     0.0294580 α      lambda       -0.1612612E-05
   maximum displ.:     0.0203764 α      in ANC's #1, #2, #4, ...

   *** GEOMETRY OPTIMIZATION CONVERGED AFTER 53 ITERATIONS ***

------------------------------------------------------------------------
 total energy gain   :        -0.0219254 Eh      -13.7584 kcal/mol
 total RMSD          :         1.6050723 a0        0.8494 Å
 total power (kW/mol):        -1.0861369 (step)  -17.9910 (real)
------------------------------------------------------------------------

 ANCopt (total)                0 d,  0 h,  0 min,  3.200 sec
 optimizer setup                ...        0 min,  0.000 sec (  0.002%)
 model hessian                  ...        0 min,  0.044 sec (  1.384%)
 ANC generation                 ...        0 min,  0.004 sec (  0.137%)
 coordinate transformation      ...        0 min,  0.000 sec (  0.011%)
 single point calculation       ...        0 min,  3.126 sec ( 97.688%)
 optimization log               ...        0 min,  0.007 sec (  0.218%)
 hessian update                 ...        0 min,  0.001 sec (  0.021%)
 rational function              ...        0 min,  0.004 sec (  0.122%)

================
 final structure:
================
42
 xtb: 6.7.1 (edcfbbe)
O           -5.92339536087917        0.11736568207283       -1.00930076078212
C           -5.21342655705991       -0.85580344497298       -0.86154760117673
O           -5.68177746268199       -2.09561160430548       -0.96392852077601
C           -3.77263062995687       -0.76624543016722       -0.56278098906166
C           -3.23521796447694        0.48554232034801       -0.58125480914766
N           -1.94768504307696        0.77408911539294       -0.32703374584270
C           -1.05440523579532       -0.25738577555345       -0.07568973711320
C            0.30246016820734        0.00056072756943        0.10709787265742
C            1.23225300463712       -1.00676159022493        0.37915924904924
N            2.55182498397617       -0.73859754983800        0.64468643168006
C            3.62308098910746       -1.55118402090007        0.10172429033939
C            4.13040322581974       -0.93508733912867       -1.20819116152813
N            4.59687148645216        0.41335918331585       -0.94145872424020
C            3.51867514482347        1.24590462520950       -0.44308805182860
C            3.01597398699419        0.61393431909013        0.85987065347985
C            0.70663892240103       -2.31718260025878        0.45634279105575
F            1.51805816050384       -3.35613086744159        0.77902846204905
C           -0.61559077962307       -2.59308967167197        0.24727901011551
C           -1.53234465309304       -1.57485567077428       -0.02684450576375
C           -2.94612887091459       -1.93053239155323       -0.24391808049256
O           -3.34266821200517       -3.07859384688103       -0.15797597197476
C           -1.50999147269351        2.13869804497753       -0.35813631277045
C           -1.02951537569191        2.78592968374286        0.91022500990771
C           -2.34110994469242        3.18970568510501        0.31346160410853
H           -6.63426225180599       -2.07801664697468       -1.14578426253881
H           -3.88022702783627        1.32073290569188       -0.82028621102619
H            0.64512360984172        1.01607225047329        0.02205082397575
H            3.29632558575049       -2.57046243919022       -0.07885965170965
H            4.44048973847669       -1.56478452827406        0.82837249562842
H            4.96503569308381       -1.52481151316069       -1.59078348346196
H            3.31180463982741       -0.95785329719736       -1.95163871397603
H            5.01172251173520        0.81995312508312       -1.77331117936514
H            3.90774403904304        2.24721048963925       -0.24710285097042
H            2.68265194505549        1.32518131757766       -1.16213712917001
H            3.86265314264644        0.55330700501231        1.55109410153524
H            2.23509353179305        1.21478711855690        1.32475987419290
H           -0.97908657337265       -3.60697369001068        0.31294341515931
H           -1.00882502111446        2.40646302628728       -1.28445794188282
H           -1.05048312531702        2.19136221048247        1.81072595109749
H           -0.19485731080927        3.46827986395975        0.85355240834929
H           -3.23930314571447        2.87879564544898        0.82342734804726
H           -2.42195249157562        4.15262957343623       -0.16609139582863

 Bond Distances (Angstroems)
 ---------------------------
O1-C2=1.2136         C2-O1=1.2136         C2-O3=1.3293         C2-C4=1.4742         O3-C2=1.3293         O3-H25=0.9698        
C4-C2=1.4742         C4-C5=1.3624         C4-C20=1.4630        C5-C4=1.3624         C5-N6=1.3437         C5-H26=1.0820        
N6-C5=1.3437         N6-C7=1.3875         N6-C22=1.4334        C7-N6=1.3875         C7-C8=1.3932         C7-C19=1.4023        
C8-C7=1.3932         C8-C9=1.3976         C8-H27=1.0751        C9-C8=1.3976         C9-N10=1.3725        C9-C16=1.4140        
N10-C9=1.3725        N10-C11=1.4501       N10-C15=1.4461       C11-N10=1.4501       C11-C12=1.5339       C11-H28=1.0855       
C11-H29=1.0938       C12-C11=1.5339       C12-N13=1.4516       C12-H30=1.0912       C12-H31=1.1060       N13-C12=1.4516       
N13-C14=1.4505       N13-H32=1.0146       C14-N13=1.4505       C14-C15=1.5329       C14-H33=1.0920       C14-H34=1.1056       
C15-N10=1.4461       C15-C14=1.5329       C15-H35=1.0947       C15-H36=1.0895       C16-C9=1.4140        C16-F17=1.3572       
C16-C18=1.3668       F17-C16=1.3572       C18-C16=1.3668       C18-C19=1.3973       C18-H37=1.0791       C19-C7=1.4023        
[...]
     DOI: 10.1002/anie.202004239
   
   for ALPB and GBSA implicit solvation:
   * S. Ehlert, M. Stahn, S. Spicher, S. Grimme, J. Chem. Theory Comput.,
     2021, 17, 4250-4261. DOI: 10.1021/acs.jctc.1c00471
   
   for ddCOSMO and CPCM-X implicit solvation:
   * M. Stahn, S. Ehlert, S. Grimme, J. Phys. Chem. A,
     2023, XX, XXXX-XXXX. DOI: 10.1021/acs.jpca.3c04382
   
   for DFT-D4:
   * E. Caldeweyher, C. Bannwarth and S. Grimme, J. Chem. Phys., 2017,
     147, 034112. DOI: 10.1063/1.4993215
   * E. Caldeweyher, S. Ehlert, A. Hansen, H. Neugebauer, S. Spicher,
     C. Bannwarth and S. Grimme, J. Chem. Phys., 2019, 150, 154122.
     DOI: 10.1063/1.5090222
   * E. Caldeweyher, J.-M. Mewes, S. Ehlert and S. Grimme, Phys. Chem. Chem. Phys.
     2020, 22, 8499-8512. DOI: 10.1039/D0CP00502A
   
   for sTDA-xTB:
   * S. Grimme and C. Bannwarth, J. Chem. Phys., 2016, 145, 054103.
     DOI: 10.1063/1.4959605
   
   in the mass-spec context:
   * V. Asgeirsson, C. Bauer and S. Grimme, Chem. Sci., 2017, 8, 4879.
     DOI: 10.1039/c7sc00601b
   * J. Koopman and S. Grimme, ACS Omega 2019, 4, 12, 15120-15133.
     DOI: 10.1021/acsomega.9b02011
   
   for metadynamics refer to:
   * S. Grimme, J. Chem. Theory Comput., 2019, 155, 2847-2862
     DOI: 10.1021/acs.jctc.9b00143
   
   for SPH calculations refer to:
   * S. Spicher and S. Grimme, J. Chem. Theory Comput., 2021, 17, 1701-1714
     DOI: 10.1021/acs.jctc.0c01306
   
   for ONIOM refer to:
   * C. Plett, A. Katbashev, S. Ehlert, S. Grimme, M. Bursch,
     Phys. Chem. Chem. Phys., 2023, 25, 17860-17868. DOI: 10.1039/D3CP02178E
   
   for DIPRO refer to:
   * J. Kohn, N. Gildemeister, S. Grimme, D. Fazzi, A. Hansen,
     J. Chem. Phys., 2023, just accepted.
   
   for PTB refer to:
   * S. Grimme, M. Mueller, A. Hansen, J. Chem. Phys., 2023, 158, 124111.
     DOI: 10.1063/5.0137838
   
   with help from (in alphabetical order)
   P. Atkinson, C. Bannwarth, F. Bohle, G. Brandenburg, E. Caldeweyher
   M. Checinski, S. Dohm, S. Ehlert, S. Ehrlich, I. Gerasimov, C. Hölzer
   A. Katbashev, J. Kohn, J. Koopman, C. Lavigne, S. Lehtola, F. März, M. Müller,
   F. Musil, H. Neugebauer, J. Pisarek, C. Plett, P. Pracht, F. Pultar,
   J. Seibert, P. Shushkov, S. Spicher, M. Stahn, M. Steiner, T. Strunk,
   J. Stückrath, T. Rose, and J. Unsleber
   
 * started run on 2025/05/15 at 16:08:18.355     
   ID    Z sym.   atoms
    1    8 O      1, 3, 21
    2    6 C      2, 4, 5, 7-9, 11, 12, 14-16, 18-20, 22-24
    3    7 N      6, 10, 13
    4    9 F      17
    5    1 H      25-42

           -------------------------------------------------
          |                Calculation Setup                |
           -------------------------------------------------

          program call               : xtb /rds/general/user/hgt20/home/callum/QDESCP/Ciprofloxacin_rdkit_conf_1/Ciprofloxacin_rdkit_conf_1.xyz --acc 1 --gfn 2 --chrg 0 --uhf 2 --etemp 300 --input /rds/general/user/hgt20/home/callum/QDESCP/Ciprofloxacin_rdkit_conf_1/Ciprofloxacin_rdkit_conf_1_xtb.inp -P 1
          hostname                   : login-c
          coordinate file            : /rds/general/user/hgt20/home/callum/QDESCP/Ciprofloxacin_rdkit_conf_1/Ciprofloxacin_rdkit_conf_1.xyz
          omp threads                :                     1


           -------------------------------------------------
          |                 G F N 2 - x T B                 |
           -------------------------------------------------

        Reference                      10.1021/acs.jctc.8b01176
      * Hamiltonian:
        H0-scaling (s, p, d)           1.850000    2.230000    2.230000
        zeta-weighting                 0.500000
      * Dispersion:
        s8                             2.700000
        a1                             0.520000
        a2                             5.000000
        s9                             5.000000
      * Repulsion:
        kExp                           1.500000    1.000000
        rExp                           1.000000
      * Coulomb:
        alpha                          2.000000
        third order                    shell-resolved
        anisotropic                    true
        a3                             3.000000
        a5                             4.000000
        cn-shift                       1.200000
        cn-exp                         4.000000
        max-rad                        5.000000


          ...................................................
          :                      SETUP                      :
          :.................................................:
          :  # basis functions                 114          :
          :  # atomic orbitals                 114          :
          :  # shells                           66          :
          :  # electrons                       126          :
          :  max. iterations                   250          :
          :  Hamiltonian                  GFN2-xTB          :
          :  restarted?                      false          :
          :  GBSA solvation                  false          :
          :  PC potential                    false          :
          :  electronic temp.          300.0000000     K    :
          :  accuracy                    1.0000000          :
          :  -> integral cutoff          0.2500000E+02      :
          :  -> integral neglect         0.1000000E-07      :
          :  -> SCF convergence          0.1000000E-05 Eh   :
          :  -> wf. convergence          0.1000000E-03 e    :
          :  Broyden damping             0.4000000          :
          :  net charge                          0          :
          :  unpaired electrons                  2          :
          ...................................................

 iter      E             dE          RMSdq      gap      omega  full diag
   1    -71.8165503 -0.718166E+02  0.400E+00    0.19       0.0  T
   2    -71.8187317 -0.218140E-02  0.310E+00    0.10       1.0  T
   3    -71.9326586 -0.113927E+00  0.227E+00    0.56       1.0  T
   4    -71.9720523 -0.393937E-01  0.144E+00    0.27       1.0  T
   5    -71.9649932  0.705915E-02  0.136E+00    0.29       1.0  T
   6    -72.0625429 -0.975497E-01  0.624E-01    0.24       1.0  T
   7    -72.0484847  0.140582E-01  0.746E-01    0.16       1.0  T
   8    -72.0860708 -0.375861E-01  0.408E-01    0.12       1.0  T
   9    -72.0805856  0.548517E-02  0.424E-01    0.13       1.0  T
  10    -72.0940106 -0.134250E-01  0.969E-02    0.14       1.0  T
  11    -72.0941788 -0.168196E-03  0.606E-02    0.12       1.0  T
  12    -72.0942885 -0.109738E-03  0.417E-02    0.13       1.0  T
  13    -72.0943583 -0.697246E-04  0.286E-02    0.13       1.0  T
  14    -72.0944173 -0.590236E-04  0.109E-02    0.13       1.4  T
  15    -72.0944197 -0.236376E-05  0.905E-03    0.13       1.7  T
  16    -72.0944260 -0.635833E-05  0.114E-03    0.13      13.6  T
  17    -72.0944260 -0.889679E-08  0.843E-04    0.13      18.3  T
  18    -72.0944260 -0.986569E-08  0.721E-04    0.13      21.4  T

   *** convergence criteria satisfied after 18 iterations ***

         #    Occupation            Energy/Eh            Energy/eV
      -------------------------------------------------------------
         1        2.0000           -0.8153800             -22.1876
       ...           ...                  ...                  ...
        58        2.0000           -0.4135260             -11.2526
        59        2.0000           -0.4041882             -10.9985
        60        2.0000           -0.3974445             -10.8150
        61        1.9663           -0.3770345             -10.2596
        62        1.6012           -0.3742357             -10.1835
        63        1.4325           -0.3735877             -10.1658
        64        0.9201           -0.2574218              -7.0048 (HOMO)
        65        0.0799           -0.2527783              -6.8784 (LUMO)
        66                         -0.2115352              -5.7562
        67                         -0.1956837              -5.3248
        68                         -0.1259853              -3.4282
        69                         -0.0863951              -2.3509
       ...                                ...                  ...
       114                          0.7220044              19.6467
      -------------------------------------------------------------
                  HL-Gap            0.0046434 Eh            0.1264 eV
             Fermi-level           -0.3144729 Eh           -8.5572 eV

 transition dipole moment (au) for excitation:          63          64
     X       Y       Z   
   1.0933  -0.0361   0.1864  total (au/Debye):    1.110   2.820
 dE (eV)             :    3.161
 oscillator strength :  0.13486E+00

 SCC (total)                   0 d,  0 h,  0 min,  0.086 sec
 SCC setup                      ...        0 min,  0.000 sec (  0.428%)
 Dispersion                     ...        0 min,  0.000 sec (  0.533%)
 classical contributions        ...        0 min,  0.000 sec (  0.169%)
 integral evaluation            ...        0 min,  0.008 sec (  9.534%)
 iterations                     ...        0 min,  0.043 sec ( 50.592%)
 molecular gradient             ...        0 min,  0.026 sec ( 30.135%)
 printout                       ...        0 min,  0.007 sec (  8.601%)

         :::::::::::::::::::::::::::::::::::::::::::::::::::::
         ::                     SUMMARY                     ::
         :::::::::::::::::::::::::::::::::::::::::::::::::::::
         :: total energy             -71.200097726798 Eh    ::
         :: gradient norm              0.085450330782 Eh/a0 ::
         :: HOMO-LUMO gap              0.126354281107 eV    ::
         ::.................................................::
         :: SCC energy               -72.094112218534 Eh    ::
         :: -> isotropic ES            0.101688007240 Eh    ::
         :: -> anisotropic ES          0.006079705598 Eh    ::
         :: -> anisotropic XC          0.017072323981 Eh    ::
         :: -> dispersion             -0.046932458636 Eh    ::
         :: repulsion energy           0.894014491736 Eh    ::
         :: add. restraining           0.000000000000 Eh    ::
         :: total charge               0.000000000665 e     ::
         :::::::::::::::::::::::::::::::::::::::::::::::::::::

           -------------------------------------------------
          |                Property Printout                |
           -------------------------------------------------

    * Orbital Energies and Occupations

         #    Occupation            Energy/Eh            Energy/eV
      -------------------------------------------------------------
         1        2.0000           -0.8153800             -22.1876
       ...           ...                  ...                  ...
        52        2.0000           -0.4579539             -12.4616
        53        2.0000           -0.4535927             -12.3429
        54        2.0000           -0.4503318             -12.2542
        55        2.0000           -0.4473855             -12.1740
        56        2.0000           -0.4380889             -11.9210
        57        2.0000           -0.4332729             -11.7900
        58        2.0000           -0.4135260             -11.2526
        59        2.0000           -0.4041882             -10.9985
        60        2.0000           -0.3974445             -10.8150
        61        1.9663           -0.3770345             -10.2596
        62        1.6012           -0.3742357             -10.1835
        63        1.4325           -0.3735877             -10.1658
        64        0.9201           -0.2574218              -7.0048 (HOMO)
        65        0.0799           -0.2527783              -6.8784 (LUMO)
        66                         -0.2115352              -5.7562
        67                         -0.1956837              -5.3248
        68                         -0.1259853              -3.4282
        69                         -0.0863951              -2.3509
        70                         -0.0669353              -1.8214
        71                         -0.0253953              -0.6910
        72                         -0.0123061              -0.3349
        73                          0.0155488               0.4231
        74                          0.0419154               1.1406
        75                          0.0463782               1.2620
       ...                                ...                  ...
       114                          0.7220044              19.6467
      -------------------------------------------------------------
                  HL-Gap            0.0046434 Eh            0.1264 eV
             Fermi-level           -0.3144729 Eh           -8.5572 eV

     #   Z          covCN         q      C6AA      α(0)
     1   8 O        0.857    -0.451    22.735     6.393
     2   6 C        2.704     0.356    20.958     7.493
     3   8 O        1.660    -0.359    20.069     6.048
     4   6 C        2.956    -0.071    29.768     8.949
     5   6 C        2.884    -0.008    28.225     8.710
     6   7 N        2.745    -0.022    21.668     6.913
     7   6 C        2.933     0.053    26.806     8.491
     8   6 C        2.929    -0.105    30.658     9.080
     9   6 C        2.903     0.033    27.262     8.561
    10   7 N        2.738    -0.051    22.218     7.001
    11   6 C        3.765    -0.013    20.848     6.508
    12   6 C        3.750     0.012    20.437     6.447
    13   7 N        2.684    -0.240    26.268     7.612
    14   6 C        3.749     0.013    20.420     6.445
    15   6 C        3.767    -0.012    20.822     6.503
    16   6 C        2.784     0.141    24.904     8.174
    17   9 F        0.787    -0.232    11.570     4.018
    18   6 C        2.922    -0.072    29.799     8.952
    19   6 C        2.982    -0.015    28.378     8.738
    20   6 C        2.829     0.196    23.822     7.998
    21   8 O        0.857    -0.349    20.695     6.099
    22   6 C        3.811     0.032    20.036     6.371
    23   6 C        3.806    -0.069    21.812     6.649
    24   6 C        3.806    -0.069    21.821     6.650
    25   1 H        0.804     0.326     0.648     1.265
    26   1 H        0.925     0.071     2.078     2.254
    27   1 H        0.926     0.037     2.483     2.464
    28   1 H        0.925     0.081     1.972     2.196
    29   1 H        0.924     0.065     2.147     2.291
    30   1 H        0.924     0.048     2.346     2.395
    31   1 H        0.922     0.021     2.719     2.579
    32   1 H        0.860     0.144     1.441     1.881
    33   1 H        0.924     0.044     2.393     2.419
    34   1 H        0.922     0.021     2.716     2.577
    35   1 H        0.924     0.067     2.115     2.274
    36   1 H        0.925     0.058     2.217     2.329
    37   1 H        0.926     0.076     2.022     2.223
    38   1 H        0.925     0.040     2.451     2.448
    39   1 H        0.926     0.051     2.302     2.373
    40   1 H        0.926     0.041     2.437     2.441
    41   1 H        0.926     0.060     2.196     2.317
    42   1 H        0.926     0.050     2.318     2.381

 Mol. C6AA /au·bohr⁶  :      20024.979655
 Mol. C8AA /au·bohr⁸  :     469354.954721
 Mol. α(0) /au        :        215.911289


Wiberg/Mayer (AO) data.
largest (>0.10) Wiberg bond orders for each atom

 ---------------------------------------------------------------------------
     #   Z sym  total        # sym  WBO       # sym  WBO       # sym  WBO
 ---------------------------------------------------------------------------
     1   8 O    1.955 --     2 C    1.658     3 O    0.158
     2   6 C    3.889 --     1 O    1.658     3 O    1.136     4 C    1.036
     3   8 O    2.204 --     2 C    1.136    25 H    0.868     1 O    0.158
     4   6 C    3.851 --     5 C    1.451    20 C    1.076     2 C    1.036
     5   6 C    3.857 --     4 C    1.451     6 N    1.188    26 H    0.949
     6   7 N    3.548 --     5 C    1.188     7 C    1.116    22 C    0.988
     7   6 C    3.936 --     8 C    1.376    19 C    1.265     6 N    1.116
     8   6 C    3.881 --     7 C    1.376     9 C    1.254    27 H    0.957
     9   6 C    3.900 --    16 C    1.276     8 C    1.254    10 N    1.150
    10   7 N    3.307 --     9 C    1.150    15 C    1.006    11 C    0.996
    11   6 C    3.960 --    10 N    0.996    12 C    0.976    28 H    0.966
                            29 H    0.964
    12   6 C    3.967 --    13 N    1.020    11 C    0.976    30 H    0.972
                            31 H    0.963
    13   7 N    3.075 --    14 C    1.021    12 C    1.020    32 H    0.951
    14   6 C    3.971 --    13 N    1.021    15 C    0.978    33 H    0.973
                            34 H    0.961
    15   6 C    3.971 --    10 N    1.006    14 C    0.978    36 H    0.967
                            35 H    0.961
    16   6 C    3.785 --    18 C    1.394     9 C    1.276    17 F    0.945
    17   9 F    1.066 --    16 C    0.945
    18   6 C    3.919 --    16 C    1.394    19 C    1.291    37 H    0.960
    19   6 C    3.817 --    18 C    1.291     7 C    1.265    20 C    1.039
    20   6 C    3.873 --    21 O    1.564     4 C    1.076    19 C    1.039
    21   8 O    1.849 --    20 C    1.564
    22   6 C    3.923 --     6 N    0.988    24 C    0.974    23 C    0.961
                            38 H    0.959
    23   6 C    3.939 --    24 C    0.984    40 H    0.980    39 H    0.979
                            22 C    0.961
    24   6 C    3.943 --    23 C    0.984    42 H    0.980    41 H    0.976
                            22 C    0.974
    25   1 H    0.892 --     3 O    0.868
    26   1 H    0.987 --     5 C    0.949
    27   1 H    0.997 --     8 C    0.957
    28   1 H    0.993 --    11 C    0.966
    29   1 H    0.989 --    11 C    0.964
    30   1 H    0.997 --    12 C    0.972
    31   1 H    0.996 --    12 C    0.963
    32   1 H    0.974 --    13 N    0.951
    33   1 H    0.997 --    14 C    0.973
    34   1 H    0.995 --    14 C    0.961
    35   1 H    0.988 --    15 C    0.961
    36   1 H    0.996 --    15 C    0.967
    37   1 H    0.992 --    18 C    0.960
    38   1 H    0.995 --    22 C    0.959
    39   1 H    0.997 --    23 C    0.979
    40   1 H    0.998 --    23 C    0.980
    41   1 H    0.996 --    24 C    0.976
    42   1 H    0.997 --    24 C    0.980
 ---------------------------------------------------------------------------

Topologies differ in total number of bonds
Writing topology from bond orders to xtbtopo.mol

molecular dipole:
                 x           y           z       tot (Debye)
 q only:        3.431       2.296       0.031
   full:        3.228       2.552      -0.416      10.512
molecular quadrupole (traceless):
                xx          xy          yy          xz          yz          zz
 q only:       -4.289      -5.425      -3.544      -6.123       3.916       7.833
  q+dip:       -3.898      -2.842      -6.029      -8.497       2.670       9.927
   full:       -5.488      -3.477      -7.045      -9.688       3.509      12.533


           -------------------------------------------------
          | TOTAL ENERGY              -71.200097726798 Eh   |
          | GRADIENT NORM               0.085450330782 Eh/α |
          | HOMO-LUMO GAP               0.126354281107 eV   |
           -------------------------------------------------

------------------------------------------------------------------------
 * finished run on 2025/05/15 at 16:08:18.455     
------------------------------------------------------------------------
 total:
 * wall-time:     0 d,  0 h,  0 min,  0.100 sec
 *  cpu-time:     0 d,  0 h,  0 min,  0.094 sec
 * ratio c/w:     0.945 speedup
 SCF:
 * wall-time:     0 d,  0 h,  0 min,  0.086 sec
 *  cpu-time:     0 d,  0 h,  0 min,  0.082 sec
 * ratio c/w:     0.959 speedup


