42
 energy: -71.307199406049 gnorm: 0.000502968133 xtb: 6.7.1 (edcfbbe)
O           -5.92339536087917        0.11736568207283       -1.00930076078212
C           -5.21342655705991       -0.85580344497298       -0.86154760117673
O           -5.68177746268199       -2.09561160430548       -0.96392852077601
C           -3.77263062995687       -0.76624543016722       -0.56278098906166
C           -3.23521796447694        0.48554232034801       -0.58125480914766
N           -1.94768504307696        0.77408911539294       -0.32703374584270
C           -1.05440523579532       -0.25738577555345       -0.07568973711320
C            0.30246016820734        0.00056072756943        0.10709787265742
C            1.23225300463712       -1.00676159022493        0.37915924904924
N            2.55182498397617       -0.73859754983800        0.64468643168006
C            3.62308098910746       -1.55118402090007        0.10172429033939
C            4.13040322581974       -0.93508733912867       -1.20819116152813
N            4.59687148645216        0.41335918331585       -0.94145872424020
C            3.51867514482347        1.24590462520950       -0.44308805182860
C            3.01597398699419        0.61393431909013        0.85987065347985
C            0.70663892240103       -2.31718260025878        0.45634279105575
F            1.51805816050384       -3.35613086744159        0.77902846204905
C           -0.61559077962307       -2.59308967167197        0.24727901011551
C           -1.53234465309304       -1.57485567077428       -0.02684450576375
C           -2.94612887091459       -1.93053239155323       -0.24391808049256
O           -3.34266821200517       -3.07859384688103       -0.15797597197476
C           -1.50999147269351        2.13869804497753       -0.35813631277045
C           -1.02951537569191        2.78592968374286        0.91022500990771
C           -2.34110994469242        3.18970568510501        0.31346160410853
H           -6.63426225180599       -2.07801664697468       -1.14578426253881
H           -3.88022702783627        1.32073290569188       -0.82028621102619
H            0.64512360984172        1.01607225047329        0.02205082397575
H            3.29632558575049       -2.57046243919022       -0.07885965170965
H            4.44048973847669       -1.56478452827406        0.82837249562842
H            4.96503569308381       -1.52481151316069       -1.59078348346196
H            3.31180463982741       -0.95785329719736       -1.95163871397603
H            5.01172251173520        0.81995312508312       -1.77331117936514
H            3.90774403904304        2.24721048963925       -0.24710285097042
H            2.68265194505549        1.32518131757766       -1.16213712917001
H            3.86265314264644        0.55330700501231        1.55109410153524
H            2.23509353179305        1.21478711855690        1.32475987419290
H           -0.97908657337265       -3.60697369001068        0.31294341515931
H           -1.00882502111446        2.40646302628728       -1.28445794188282
H           -1.05048312531702        2.19136221048247        1.81072595109749
H           -0.19485731080927        3.46827986395975        0.85355240834929
H           -3.23930314571447        2.87879564544898        0.82342734804726
H           -2.42195249157562        4.15262957343623       -0.16609139582863
