38
 energy: -65.475619597737 gnorm: 0.000902042187 xtb: 6.7.1 (edcfbbe)
O           -2.98146599480899       -0.28620836678085        2.90047627181981
C           -2.70125067577653        1.02200123836399        2.49143280139766
C           -2.10452964265697        1.05264090849516        1.07774127195205
O           -0.98021004329006        0.18927732367255        1.11000698048784
C           -0.32438799195277        0.05412864149620       -0.12372701788502
C           -1.26425519151398       -0.50566105995335       -1.20507975432523
C           -2.47607126248458        0.41770471166376       -1.32905689765201
C           -3.14025767972017        0.60082891089756        0.04015003409603
O           -4.14023642422202        1.58298389686406       -0.02233268132512
O           -3.43434248319561       -0.10310621636381       -2.21620291394375
O           -0.63052935587488       -0.56650832264711       -2.45374101469536
O            0.71435251560661       -0.85927926562368        0.01355872598517
C            1.97788457208692       -0.35918946621603        0.27667823046913
C            2.17184897597220        0.61089015484463        1.25305053346956
C            3.44136885922450        1.08025030468787        1.52719405031844
C            4.52552559859244        0.57864208531370        0.82647943067456
C            4.32854401533357       -0.37805335344402       -0.15048501799334
C            3.05791882255196       -0.85834627480569       -0.45307997442341
C            2.94211559084610       -1.88022432612059       -1.56449764875272
O            1.64569191017212       -2.29114665283850       -1.92554338594598
H           -2.18817840642428       -0.81091751897825        2.73150611429306
H           -1.99486445017578        1.50171348559991        3.18390880868436
H           -3.64298268489170        1.57183023318752        2.49080305069780
H           -1.78991767290714        2.07710069069823        0.82630419861303
H            0.05984960317493        1.03894555266644       -0.45579166578420
H           -1.59806442974461       -1.50445322418600       -0.88059222355257
H           -2.12543479168571        1.39904269602855       -1.69164385826753
H           -3.56544382397510       -0.36503074143444        0.35484688565766
H           -4.72027007422845        1.34519301953362       -0.75701872492356
H           -2.96285624399742       -0.38070117391746       -3.01140930558075
H            0.17907761055445       -1.10665150819529       -2.37943034420749
H            1.31385046663170        0.97575847829499        1.79659217657788
H            3.58346466876904        1.83041007258550        2.28979265627359
H            5.52188227127800        0.93445688256815        1.03885680546476
H            5.17137373440854       -0.76159717179613       -0.70689497659913
H            3.37233643220690       -1.45324307429175       -2.47740234613822
H            3.54938363083566       -2.75828969231043       -1.28925520359556
H            1.20918004527685       -2.63499187756233       -1.13639407134260
