33
 energy: -50.357970096179 gnorm: 0.000449544607 xtb: 6.7.1 (edcfbbe)
C           -5.32580355015880        0.66965505587409        0.10558343358277
N           -3.90120112680214        0.86808185828906        0.22956654295490
C           -2.95144937145104        0.30124995923261       -0.56530539835380
N           -1.70880764623444        0.85999931449272       -0.46926100167690
C           -0.54495156813548        0.14757517840479       -0.94458988378281
C            0.04376462642000       -0.75856649307479        0.13157881849041
S            0.47405798541917        0.15646817302278        1.64822743468338
C            1.81843631824624        1.25678249441678        1.03063346485989
C            2.78303654537103        0.53756090947460        0.17340655888852
C            3.74481957441837       -0.37923809761634        0.52214300443872
C            4.14155405732230       -0.95147811985072        1.83206202454857
N            4.33821834334290       -0.74211535218714       -0.65972789958775
C            3.72096377951134       -0.05024194303587       -1.64922040557660
N            2.78198942082287        0.71845799220037       -1.18229775471194
N           -3.10548542944310       -0.67585877747386       -1.38811457466993
C           -4.14612456372806       -1.36268356546888       -1.72606238501981
N           -4.96615267211050       -2.07202319509317       -2.12287375231040
H           -5.78834936475158        1.44937755966910       -0.50803089237640
H           -5.52382801484225       -0.29585252960599       -0.35455152675638
H           -5.77524153164709        0.68590828930522        1.09858567705381
H           -3.62504006800550        1.69629493971726        0.73640305862230
H           -1.53323668788487        1.41490469510650        0.35856120368814
H            0.20603797778512        0.86955889685568       -1.27557874459125
H           -0.85579498711768       -0.46079410520056       -1.79593060318937
H            0.94124423850512       -1.25857534269853       -0.22941947244029
H           -0.68519957663718       -1.50250424634215        0.45198335616253
H            1.36418044512345        2.07408079419581        0.47303605906506
H            2.28252408872401        1.64099463482106        1.93818008805368
H            5.21856419492960       -0.87156687132388        1.97900576563449
H            3.63455504121927       -0.42221256887459        2.63384734103373
H            3.86573935438690       -2.00524864162685        1.89109118057883
H            5.09493974716819       -1.39929236491230       -0.75691498469170
H            3.98214042023417       -0.13859853069386       -2.68401573260706
