50
 energy: -70.102064823859 gnorm: 0.000242463522 xtb: 6.7.1 (edcfbbe)
O           -0.12599851036028        2.11938397374650       -2.49540239590240
C            0.14901620704368        1.14974658992941       -1.50972581421923
C           -0.89729580240256        0.01732819287872       -1.61581392158758
N           -2.24214873295096        0.59784977410601       -1.61472420126482
C           -3.16897142311669       -0.39307895616877       -2.14505952313047
C           -3.02791809422121       -1.72999009993662       -1.38629552253704
C           -2.65941034644371        0.96234359246867       -0.26566112678334
C           -2.86706719738135       -0.28368649485346        0.62248020896309
C           -2.33824482893305       -0.09206218206925        2.04472160995470
C           -3.15115595272210        0.93739894249725        2.82192372908286
C           -2.20655288225102       -1.45683230776434       -0.12004529004984
C           -0.78253959315361       -1.07378088715309       -0.53902433852886
C            1.52597591520289        0.57881290897394       -1.73234885620389
C            1.94275081698518        0.34275078408983       -3.01937953332530
C            3.19426600481094       -0.24723899620500       -3.24977821753303
N            4.00607033115806       -0.61346652891514       -2.29924659552565
C            3.63932127146608       -0.38280367424986       -1.02394364664926
C            2.40268882189469        0.23315839217018       -0.66757554849013
C            2.14435417113008        0.45566573757384        0.69482610456131
C            3.03487476201781        0.06783227374155        1.67301072625084
O            2.66080151729120        0.33570102924124        2.95662490609582
C            3.52985432884586       -0.01758572963558        4.00532864429960
C            4.24141431055776       -0.56219897344659        1.31292838426328
C            4.53122164822145       -0.77168698972846       -0.00545575143066
H           -1.09071584295444        2.17325382427146       -2.56175539368122
H            0.09264125565397        1.62233061455683       -0.51940829467615
H           -0.75961297223333       -0.42451529665598       -2.61005022666244
H           -4.17809892929511        0.01198912679584       -2.04470745873745
H           -2.96300933581558       -0.52047211397247       -3.21083112828242
H           -2.51573467249992       -2.47305893636761       -1.99972146071001
H           -4.00800117354195       -2.12988755125827       -1.12339532460610
H           -3.58161556466944        1.54286157476236       -0.35322015908898
H           -1.89808515896561        1.61466197777469        0.16380875324408
H           -3.93849823157624       -0.50211438897374        0.69880434854735
H           -2.38214937304276       -1.05047385804818        2.56873382566040
H           -1.29247179195529        0.22081878396852        2.02130531650946
H           -3.10624259861137        1.91146627679194        2.34081776952426
H           -2.76582869719855        1.03797189738347        3.83390850798240
H           -4.19425958888753        0.63357360244098        2.88147272546618
H           -2.18463561477822       -2.34458717233745        0.51816767556533
H           -0.22291520674635       -0.71809807760925        0.32470189729005
H           -0.25496400161609       -1.94322591872317       -0.93402538837601
H            1.31003641238804        0.61898001764666       -3.84774945320732
H            3.53124573976724       -0.43766012525524       -4.26108411031340
H            1.24694648909594        0.95724085380184        1.01972996985900
H            3.69841878135136       -1.09869077596864        4.04314845161097
H            4.49115976362416        0.49966389982664        3.92445700528813
H            3.02882008767910        0.29859436867420        4.91908503468717
H            4.94529048107190       -0.87164449153800        2.06938101338490
H            5.45657300106028       -1.23873848328120       -0.30393792658229
