51
 energy: -84.105481492731 gnorm: 0.000309698858 xtb: 6.7.1 (edcfbbe)
F            8.08224219153817        2.91576325015074        1.46116934833402
C            7.22281476041296        1.98430370952106        1.00739828981434
C            7.45349381933666        0.65204106348369        1.30323822257648
C            6.56184716300231       -0.28903731710807        0.83098411323432
C            5.44606986769552        0.08486242306189        0.07954447924230
C            5.24794866359841        1.43425415388350       -0.20900116903985
C            6.13505598262389        2.38809446376857        0.25268153086887
C            4.54047910126147       -1.00739490895600       -0.37642949822344
C            3.12929678115827       -0.61973504754878       -0.77289095948079
C            2.36016564460729       -0.09970335635040        0.44826038684441
C            0.93045893451541        0.24243074380581        0.04128411721765
N            0.26583253987027       -0.93833312276005       -0.47426861464692
C            0.93079923068281       -1.41328432843895       -1.67246173389355
C            2.36587067561396       -1.81162574685051       -1.34607947192839
C           -1.16010084473223       -0.74762684558854       -0.63565851017552
C           -1.88447434896308       -1.00511101804940        0.69173423866429
N           -3.30590887753626       -0.71931260195362        0.57162443525995
C           -4.10078780110269       -1.73071315686872        0.06689324459383
N           -5.43633381969759       -1.43359815810590       -0.04526218810684
C           -6.00384969799897       -0.22606733260738        0.28082127511392
C           -7.37134300372606        0.00181340611934        0.13621876434056
C           -7.89817096609297        1.23167366929704        0.47203767448247
C           -7.07884831158363        2.24846723527079        0.95221114098460
C           -5.72620775044328        2.02935645884585        1.09695270890049
C           -5.17595707428281        0.79160258236008        0.76456501929750
C           -3.73715687721837        0.55574070649551        0.91872741543544
O           -2.95461776572255        1.38924939084126        1.32319351382408
O           -3.66861628405060       -2.81273089286575       -0.25424350394115
O            4.91899193831325       -2.15701483041809       -0.38919712440775
H            8.31488731538040        0.37213646246917        1.88850578164680
H            6.70927066066412       -1.33842157821521        1.03682259066560
H            4.41253000499002        1.75452887586630       -0.81087311802320
H            5.99647127831021        3.43535817412482        0.03464959697681
H            3.17756056804808        0.17121146040719       -1.52935465555208
H            2.33195959210818       -0.88186011000797        1.20806755721714
H            2.84558586021841        0.77995140747922        0.87350781079597
H            0.94601061458156        1.05352170977757       -0.71258908943311
H            0.38137147180505        0.60667830660190        0.91066266288134
H            0.38900933239719       -2.28565425684263       -2.04369121565065
H            0.93279616840174       -0.64409924995814       -2.46885986121928
H            2.35755024733532       -2.61462210907102       -0.60909163739268
H            2.86364866733041       -2.18051490017711       -2.24392336916364
H           -1.53574800856998       -1.46597667034221       -1.36789903726856
H           -1.40674005375311        0.26824008234847       -0.99067550001829
H           -1.49106481973850       -0.35782026483120        1.47563780775842
H           -1.76275215090330       -2.05159904517990        0.97187022962837
H           -6.02025922154582       -2.17689328176722       -0.40477263721308
H           -8.00604503818551       -0.78795861513251       -0.23741337138576
H           -8.95790520807661        1.40436313013883        0.35984584294283
H           -7.50463625433799        3.20542473532555        1.20998206780723
H           -5.06259489754573        2.79564114455215        1.46674439883390
