----- Optimization -----
      -----------------------------------------------------------      
     |                   =====================                   |     
     |                           x T B                           |     
     |                   =====================                   |     
     |                         S. Grimme                         |     
     |          Mulliken Center for Theoretical Chemistry        |     
     |                    University of Bonn                     |     
      -----------------------------------------------------------      

   * xtb version 6.7.1 (edcfbbe) compiled by 'conda@3ef47c1a292c' on 2024-11-25

   xtb is free software: you can redistribute it and/or modify it under
   the terms of the GNU Lesser General Public License as published by
   the Free Software Foundation, either version 3 of the License, or
   (at your option) any later version.
   
   xtb is distributed in the hope that it will be useful,
   but WITHOUT ANY WARRANTY; without even the implied warranty of
   MERCHANTABILITY or FITNESS FOR A PARTICULAR PURPOSE.  See the
   GNU Lesser General Public License for more details.
   
   Cite this work as:
   * C. Bannwarth, E. Caldeweyher, S. Ehlert, A. Hansen, P. Pracht,
     J. Seibert, S. Spicher, S. Grimme, WIREs Comput. Mol. Sci., 2020, 11,
     e01493. DOI: 10.1002/wcms.1493
   
   for GFN2-xTB:
   * C. Bannwarth, S. Ehlert and S. Grimme., J. Chem. Theory Comput., 2019,
     15, 1652-1671. DOI: 10.1021/acs.jctc.8b01176
   for GFN1-xTB:
   * S. Grimme, C. Bannwarth, P. Shushkov, J. Chem. Theory Comput., 2017,
     13, 1989-2009. DOI: 10.1021/acs.jctc.7b00118
   for GFN0-xTB:
   * P. Pracht, E. Caldeweyher, S. Ehlert, S. Grimme, ChemRxiv, 2019, preprint.
     DOI: 10.26434/chemrxiv.8326202.v1
   for GFN-FF:
   * S. Spicher and S. Grimme, Angew. Chem. Int. Ed., 2020, 59, 15665-15673.
     DOI: 10.1002/anie.202004239
   
   for ALPB and GBSA implicit solvation:
   * S. Ehlert, M. Stahn, S. Spicher, S. Grimme, J. Chem. Theory Comput.,
     2021, 17, 4250-4261. DOI: 10.1021/acs.jctc.1c00471
   
   for ddCOSMO and CPCM-X implicit solvation:
   * M. Stahn, S. Ehlert, S. Grimme, J. Phys. Chem. A,
     2023, XX, XXXX-XXXX. DOI: 10.1021/acs.jpca.3c04382
   
   for DFT-D4:
   * E. Caldeweyher, C. Bannwarth and S. Grimme, J. Chem. Phys., 2017,
     147, 034112. DOI: 10.1063/1.4993215
   * E. Caldeweyher, S. Ehlert, A. Hansen, H. Neugebauer, S. Spicher,
     C. Bannwarth and S. Grimme, J. Chem. Phys., 2019, 150, 154122.
     DOI: 10.1063/1.5090222
   * E. Caldeweyher, J.-M. Mewes, S. Ehlert and S. Grimme, Phys. Chem. Chem. Phys.
     2020, 22, 8499-8512. DOI: 10.1039/D0CP00502A
   
   for sTDA-xTB:
   * S. Grimme and C. Bannwarth, J. Chem. Phys., 2016, 145, 054103.
     DOI: 10.1063/1.4959605
   
   in the mass-spec context:
   * V. Asgeirsson, C. Bauer and S. Grimme, Chem. Sci., 2017, 8, 4879.
     DOI: 10.1039/c7sc00601b
   * J. Koopman and S. Grimme, ACS Omega 2019, 4, 12, 15120-15133.
     DOI: 10.1021/acsomega.9b02011
   
   for metadynamics refer to:
   * S. Grimme, J. Chem. Theory Comput., 2019, 155, 2847-2862
     DOI: 10.1021/acs.jctc.9b00143
   
   for SPH calculations refer to:
   * S. Spicher and S. Grimme, J. Chem. Theory Comput., 2021, 17, 1701-1714
     DOI: 10.1021/acs.jctc.0c01306
   
   for ONIOM refer to:
   * C. Plett, A. Katbashev, S. Ehlert, S. Grimme, M. Bursch,
     Phys. Chem. Chem. Phys., 2023, 25, 17860-17868. DOI: 10.1039/D3CP02178E
   
   for DIPRO refer to:
   * J. Kohn, N. Gildemeister, S. Grimme, D. Fazzi, A. Hansen,
     J. Chem. Phys., 2023, just accepted.
   
   for PTB refer to:
   * S. Grimme, M. Mueller, A. Hansen, J. Chem. Phys., 2023, 158, 124111.
     DOI: 10.1063/5.0137838
   
   with help from (in alphabetical order)
   P. Atkinson, C. Bannwarth, F. Bohle, G. Brandenburg, E. Caldeweyher
   M. Checinski, S. Dohm, S. Ehlert, S. Ehrlich, I. Gerasimov, C. Hölzer
   A. Katbashev, J. Kohn, J. Koopman, C. Lavigne, S. Lehtola, F. März, M. Müller,
   F. Musil, H. Neugebauer, J. Pisarek, C. Plett, P. Pracht, F. Pultar,
   J. Seibert, P. Shushkov, S. Spicher, M. Stahn, M. Steiner, T. Strunk,
   J. Stückrath, T. Rose, and J. Unsleber
   
 * started run on 2025/05/15 at 16:28:30.027     
   ID    Z sym.   atoms
    1    9 F      1
    2    6 C      2-11, 13-16, 18, 20-26
    3    7 N      12, 17, 19
    4    8 O      27-29
    5    1 H      30-51

           -------------------------------------------------
          |                Calculation Setup                |
           -------------------------------------------------

          program call               : xtb /rds/general/user/hgt20/home/callum/QDESCP/Ketanserin_rdkit_conf_6/Ketanserin_rdkit_conf_6.xyz --opt normal --acc 1 --gfn 2 --chrg 0 --uhf 0 -P 1
          hostname                   : login-c
          coordinate file            : /rds/general/user/hgt20/home/callum/QDESCP/Ketanserin_rdkit_conf_6/Ketanserin_rdkit_conf_6.xyz
          omp threads                :                     1


           -------------------------------------------------
          |                 G F N 2 - x T B                 |
           -------------------------------------------------

        Reference                      10.1021/acs.jctc.8b01176
      * Hamiltonian:
        H0-scaling (s, p, d)           1.850000    2.230000    2.230000
        zeta-weighting                 0.500000
      * Dispersion:
        s8                             2.700000
        a1                             0.520000
        a2                             5.000000
        s9                             5.000000
      * Repulsion:
        kExp                           1.500000    1.000000
        rExp                           1.000000
      * Coulomb:
        alpha                          2.000000
        third order                    shell-resolved
        anisotropic                    true
        a3                             3.000000
        a5                             4.000000
        cn-shift                       1.200000
        cn-exp                         4.000000
        max-rad                        5.000000


          ...................................................
          :                      SETUP                      :
          :.................................................:
          :  # basis functions                 138          :
          :  # atomic orbitals                 138          :
          :  # shells                           80          :
          :  # electrons                       150          :
          :  max. iterations                   250          :
          :  Hamiltonian                  GFN2-xTB          :
          :  restarted?                      false          :
          :  GBSA solvation                  false          :
          :  PC potential                    false          :
          :  electronic temp.          300.0000000     K    :
          :  accuracy                    1.0000000          :
          :  -> integral cutoff          0.2500000E+02      :
          :  -> integral neglect         0.1000000E-07      :
          :  -> SCF convergence          0.1000000E-05 Eh   :
          :  -> wf. convergence          0.1000000E-03 e    :
          :  Broyden damping             0.4000000          :
          :  net charge                          0          :
          :  unpaired electrons                  0          :
          ...................................................

 iter      E             dE          RMSdq      gap      omega  full diag
   1    -84.9893031 -0.849893E+02  0.446E+00    2.64       0.0  T
   2    -85.1509999 -0.161697E+00  0.259E+00    2.20       1.0  T
   3    -85.1590410 -0.804105E-02  0.143E+00    2.11       1.0  T
   4    -85.1739276 -0.148867E-01  0.313E-01    1.70       1.0  T
   5    -85.1773132 -0.338561E-02  0.933E-02    1.73       1.0  T
   6    -85.1774229 -0.109609E-03  0.501E-02    1.76       1.0  T
   7    -85.1774753 -0.524514E-04  0.195E-02    1.76       1.0  T
   8    -85.1774768 -0.147240E-05  0.806E-03    1.77       1.7  T
   9    -85.1774778 -0.986997E-06  0.355E-03    1.77       3.9  T
  10    -85.1774779 -0.132947E-06  0.118E-03    1.77      11.9  T
  11    -85.1774779 -0.188908E-07  0.619E-04    1.77      22.6  T
  12    -85.1774779 -0.401774E-08  0.190E-04    1.77      73.7  T

   *** convergence criteria satisfied after 12 iterations ***

         #    Occupation            Energy/Eh            Energy/eV
      -------------------------------------------------------------
         1        2.0000           -0.8283965             -22.5418
       ...           ...                  ...                  ...
        69        2.0000           -0.4277563             -11.6398
        70        2.0000           -0.4229120             -11.5080
        71        2.0000           -0.4213753             -11.4662
        72        2.0000           -0.4134868             -11.2515
        73        2.0000           -0.4089480             -11.1280
        74        2.0000           -0.3946068             -10.7378
        75        2.0000           -0.3553805              -9.6704 (HOMO)
        76                         -0.2904532              -7.9036 (LUMO)
        77                         -0.2849042              -7.7526
        78                         -0.2558079              -6.9609
        79                         -0.2542550              -6.9186
        80                         -0.2257340              -6.1425
       ...                                ...                  ...
       138                          0.6621720              18.0186
      -------------------------------------------------------------
                  HL-Gap            0.0649273 Eh            1.7668 eV
             Fermi-level           -0.3229168 Eh           -8.7870 eV

 SCC (total)                   0 d,  0 h,  0 min,  0.090 sec
 SCC setup                      ...        0 min,  0.001 sec (  0.786%)
 Dispersion                     ...        0 min,  0.001 sec (  0.844%)
 classical contributions        ...        0 min,  0.000 sec (  0.235%)
 integral evaluation            ...        0 min,  0.010 sec ( 11.192%)
 iterations                     ...        0 min,  0.043 sec ( 47.212%)
 molecular gradient             ...        0 min,  0.036 sec ( 39.395%)
 printout                       ...        0 min,  0.000 sec (  0.320%)

         :::::::::::::::::::::::::::::::::::::::::::::::::::::
         ::                     SUMMARY                     ::
         :::::::::::::::::::::::::::::::::::::::::::::::::::::
         :: total energy             -84.094528685950 Eh    ::
         :: gradient norm              0.086103008599 Eh/a0 ::
         :: HOMO-LUMO gap              1.766760437135 eV    ::
         ::.................................................::
         :: SCC energy               -85.177774100342 Eh    ::
         :: -> isotropic ES            0.116654027647 Eh    ::
         :: -> anisotropic ES          0.005666114421 Eh    ::
         :: -> anisotropic XC          0.030003793035 Eh    ::
         :: -> dispersion             -0.055090146429 Eh    ::
         :: repulsion energy           1.083245414392 Eh    ::
         :: add. restraining           0.000000000000 Eh    ::
         :: total charge               0.000000000000 e     ::
         :::::::::::::::::::::::::::::::::::::::::::::::::::::

      ----------------------------------------------------------- 
     |                   =====================                   |
     |                        A N C O P T                        |
     |                   =====================                   |
     |               Approximate Normal Coordinate               |
     |                Rational Function Optimizer                |
      ----------------------------------------------------------- 
      ----------------------------------------------------------- 
     |                   =====================                   |
     |                        A N C O P T                        |
     |                   =====================                   |
     |               Approximate Normal Coordinate               |
     |                Rational Function Optimizer                |
      ----------------------------------------------------------- 

          ...................................................
          :                      SETUP                      :
          :.................................................:
          :   optimization level            normal          :
          :   max. optcycles                   200          :
          :   ANC micro-cycles                  20          :
          :   degrees of freedom               147          :
          :.................................................:
          :   RF solver                   davidson          :
          :   write xtbopt.log                true          :
          :   linear?                        false          :
          :   energy convergence         0.5000000E-05 Eh   :
          :   grad. convergence          0.1000000E-02 Eh/α :
          :   maxmium RF displ.          1.0000000          :
          :   Hlow (freq-cutoff)         0.1000000E-01      :
          :   Hmax (freq-cutoff)         5.0000000          :
          :   S6 in model hess.         20.0000000          :
          ...................................................

generating ANC from exact Hessian ...
Using Lindh-Hessian (1995)
 Shifting diagonal of input Hessian by    9.8302871092952274E-003
 Lowest  eigenvalues of input Hessian
    0.000000    0.000000    0.000000    0.000000    0.000000    0.000000
    0.010000    0.010186    0.010242    0.010563    0.010781    0.011080
    0.012017    0.013279    0.014153    0.015649    0.015762    0.017023
 Highest eigenvalues
    2.031349    2.047288    2.092138    2.103116    2.296476    2.473427


........................................................................
.............................. CYCLE    1 ..............................
........................................................................

 iter      E             dE          RMSdq      gap      omega  full diag
   1    -85.1774779 -0.851775E+02  0.681E-05    1.77       0.0  T
   2    -85.1774779 -0.455742E-10  0.413E-05    1.77     338.6  T
   3    -85.1774779 -0.237321E-10  0.262E-05    1.77     534.3  T
     SCC iter.                  ...        0 min,  0.010 sec
     gradient                   ...        0 min,  0.047 sec
 * total energy  :   -84.0945287 Eh     change       -0.4821032E-09 Eh
   gradient norm :     0.0861029 Eh/α   predicted     0.0000000E+00 (-100.00%)
   displ. norm   :     0.2820851 α      lambda       -0.1117089E-01
   maximum displ.:     0.1005083 α      in ANC's #45, #28, #9, ...

........................................................................
.............................. CYCLE    2 ..............................
........................................................................

 iter      E             dE          RMSdq      gap      omega  full diag
   1    -85.2254820 -0.852255E+02  0.172E-01    1.84       0.0  T
   2    -85.2256192 -0.137229E-03  0.100E-01    1.85       1.0  T
   3    -85.2256039  0.153179E-04  0.399E-02    1.84       1.0  T
   4    -85.2256308 -0.269470E-04  0.102E-02    1.84       1.4  T
   5    -85.2256352 -0.433596E-05  0.310E-03    1.84       4.5  T
   6    -85.2256353 -0.142301E-06  0.155E-03    1.84       9.1  T
   7    -85.2256354 -0.252054E-07  0.577E-04    1.84      24.3  T
   8    -85.2256354 -0.332255E-08  0.238E-04    1.84      58.8  T
     SCC iter.                  ...        0 min,  0.025 sec
     gradient                   ...        0 min,  0.053 sec
 * total energy  :   -84.1019858 Eh     change       -0.7457120E-02 Eh
   gradient norm :     0.0318672 Eh/α   predicted    -0.6037691E-02 ( -19.03%)
   displ. norm   :     0.2613999 α      lambda       -0.2821113E-02
   maximum displ.:     0.1137873 α      in ANC's #9, #7, #11, ...

........................................................................
.............................. CYCLE    3 ..............................
........................................................................

 iter      E             dE          RMSdq      gap      omega  full diag
   1    -85.2458513 -0.852459E+02  0.100E-01    1.83       0.0  T
   2    -85.2458932 -0.419285E-04  0.575E-02    1.84       1.0  T
   3    -85.2458861  0.707915E-05  0.252E-02    1.84       1.0  T
   4    -85.2458981 -0.120020E-04  0.564E-03    1.84       2.5  T
   5    -85.2458996 -0.141858E-05  0.157E-03    1.84       8.9  T
   6    -85.2458996 -0.352180E-07  0.772E-04    1.84      18.1  T
   7    -85.2458996 -0.652831E-08  0.311E-04    1.84      45.0  T
     SCC iter.                  ...        0 min,  0.022 sec
     gradient                   ...        0 min,  0.062 sec
 * total energy  :   -84.1036934 Eh     change       -0.1707633E-02 Eh
   gradient norm :     0.0087120 Eh/α   predicted    -0.1507872E-02 ( -11.70%)
   displ. norm   :     0.1990289 α      lambda       -0.5855078E-03
   maximum displ.:     0.1089428 α      in ANC's #7, #9, #10, ...

........................................................................
.............................. CYCLE    4 ..............................
........................................................................

 iter      E             dE          RMSdq      gap      omega  full diag
   1    -85.2479057 -0.852479E+02  0.464E-02    1.82       0.0  T
   2    -85.2479089 -0.315687E-05  0.266E-02    1.83       1.0  T
   3    -85.2479072  0.171555E-05  0.827E-03    1.83       1.7  T
   4    -85.2479095 -0.231052E-05  0.158E-03    1.83       8.8  T
   5    -85.2479096 -0.896980E-07  0.664E-04    1.83      21.1  T
   6    -85.2479096 -0.447933E-08  0.310E-04    1.83      45.2  T
     SCC iter.                  ...        0 min,  0.019 sec
     gradient                   ...        0 min,  0.035 sec
 * total energy  :   -84.1041140 Eh     change       -0.4205868E-03 Eh
   gradient norm :     0.0056974 Eh/α   predicted    -0.3043542E-03 ( -27.64%)
   displ. norm   :     0.2438354 α      lambda       -0.4015117E-03
   maximum displ.:     0.1628953 α      in ANC's #7, #9, #10, ...

........................................................................
.............................. CYCLE    5 ..............................
........................................................................

 iter      E             dE          RMSdq      gap      omega  full diag
   1    -85.2478673 -0.852479E+02  0.465E-02    1.81       0.0  T
   2    -85.2478695 -0.211615E-05  0.270E-02    1.82       1.0  T
   3    -85.2478692  0.254550E-06  0.442E-03    1.82       3.2  T
   4    -85.2478698 -0.560438E-06  0.140E-03    1.82      10.0  T
   5    -85.2478698 -0.459610E-07  0.677E-04    1.82      20.7  T
   6    -85.2478698 -0.393861E-08  0.267E-04    1.82      52.4  T
     SCC iter.                  ...        0 min,  0.019 sec
     gradient                   ...        0 min,  0.035 sec
 * total energy  :   -84.1043803 Eh     change       -0.2662954E-03 Eh
   gradient norm :     0.0048254 Eh/α   predicted    -0.2126940E-03 ( -20.13%)
   displ. norm   :     0.1637562 α      lambda       -0.1583461E-03
   maximum displ.:     0.1178606 α      in ANC's #7, #5, #4, ...

........................................................................
.............................. CYCLE    6 ..............................
........................................................................

 iter      E             dE          RMSdq      gap      omega  full diag
   1    -85.2475378 -0.852475E+02  0.294E-02    1.81       0.0  T
   2    -85.2475383 -0.574922E-06  0.173E-02    1.82       1.0  T
   3    -85.2475382  0.956024E-07  0.230E-03    1.82       6.1  T
   4    -85.2475384 -0.183705E-06  0.835E-04    1.82      16.8  T
   5    -85.2475384 -0.163813E-07  0.373E-04    1.82      37.5  T
     SCC iter.                  ...        0 min,  0.016 sec
     gradient                   ...        0 min,  0.037 sec
 * total energy  :   -84.1045006 Eh     change       -0.1203087E-03 Eh
   gradient norm :     0.0038895 Eh/α   predicted    -0.8135009E-04 ( -32.38%)
   displ. norm   :     0.1718041 α      lambda       -0.1362242E-03
   maximum displ.:     0.1204390 α      in ANC's #7, #5, #8, ...

........................................................................
.............................. CYCLE    7 ..............................
........................................................................

 iter      E             dE          RMSdq      gap      omega  full diag
   1    -85.2476373 -0.852476E+02  0.298E-02    1.82       0.0  T
   2    -85.2476377 -0.492904E-06  0.175E-02    1.82       1.0  T
   3    -85.2476375  0.250379E-06  0.291E-03    1.82       4.8  T
   4    -85.2476378 -0.356400E-06  0.758E-04    1.82      18.5  T
   5    -85.2476379 -0.136395E-07  0.368E-04    1.82      38.1  T
     SCC iter.                  ...        0 min,  0.016 sec
     gradient                   ...        0 min,  0.035 sec
 * total energy  :   -84.1046067 Eh     change       -0.1060646E-03 Eh
   gradient norm :     0.0029118 Eh/α   predicted    -0.7012343E-04 ( -33.89%)
   displ. norm   :     0.2015481 α      lambda       -0.1209713E-03
   maximum displ.:     0.1332652 α      in ANC's #7, #5, #4, ...

........................................................................
.............................. CYCLE    8 ..............................
........................................................................

 iter      E             dE          RMSdq      gap      omega  full diag
   1    -85.2479726 -0.852480E+02  0.333E-02    1.82       0.0  T
   2    -85.2479732 -0.528845E-06  0.195E-02    1.82       1.0  T
   3    -85.2479731  0.107878E-06  0.232E-03    1.82       6.0  T
   4    -85.2479733 -0.199057E-06  0.757E-04    1.82      18.5  T
   5    -85.2479733 -0.134888E-07  0.378E-04    1.82      37.1  T
     SCC iter.                  ...        0 min,  0.016 sec
     gradient                   ...        0 min,  0.036 sec
 * total energy  :   -84.1046987 Eh     change       -0.9203451E-04 Eh
   gradient norm :     0.0030802 Eh/α   predicted    -0.6294541E-04 ( -31.61%)
   displ. norm   :     0.2095623 α      lambda       -0.9324703E-04
   maximum displ.:     0.1336889 α      in ANC's #7, #5, #4, ...

........................................................................
.............................. CYCLE    9 ..............................
........................................................................

 iter      E             dE          RMSdq      gap      omega  full diag
   1    -85.2483600 -0.852484E+02  0.342E-02    1.82       0.0  T
   2    -85.2483606 -0.566994E-06  0.200E-02    1.82       1.0  T
   3    -85.2483606  0.146884E-07  0.185E-03    1.82       7.6  T
   4    -85.2483607 -0.104181E-06  0.737E-04    1.82      19.0  T
   5    -85.2483607 -0.108151E-07  0.397E-04    1.82      35.3  T
     SCC iter.                  ...        0 min,  0.016 sec
     gradient                   ...        0 min,  0.048 sec
 * total energy  :   -84.1047687 Eh     change       -0.6997637E-04 Eh
   gradient norm :     0.0028345 Eh/α   predicted    -0.4867613E-04 ( -30.44%)
   displ. norm   :     0.2187984 α      lambda       -0.7201178E-04
   maximum displ.:     0.1324113 α      in ANC's #7, #4, #5, ...

........................................................................
.............................. CYCLE   10 ..............................
........................................................................

 iter      E             dE          RMSdq      gap      omega  full diag
   1    -85.2487107 -0.852487E+02  0.373E-02    1.82       0.0  T
   2    -85.2487111 -0.453930E-06  0.218E-02    1.82       1.0  T
   3    -85.2487111  0.285157E-07  0.194E-03    1.82       7.2  T
   4    -85.2487112 -0.128630E-06  0.759E-04    1.82      18.4  T
   5    -85.2487112 -0.103180E-07  0.397E-04    1.82      35.3  T
     SCC iter.                  ...        0 min,  0.016 sec
     gradient                   ...        0 min,  0.049 sec
 * total energy  :   -84.1048195 Eh     change       -0.5080235E-04 Eh
   gradient norm :     0.0021744 Eh/α   predicted    -0.3773362E-04 ( -25.72%)
   displ. norm   :     0.1635465 α      lambda       -0.4107798E-04
   maximum displ.:     0.0894922 α      in ANC's #7, #4, #2, ...

........................................................................
.............................. CYCLE   11 ..............................
........................................................................

 iter      E             dE          RMSdq      gap      omega  full diag
   1    -85.2490567 -0.852491E+02  0.304E-02    1.82       0.0  T
   2    -85.2490571 -0.359171E-06  0.178E-02    1.82       1.0  T
   3    -85.2490570  0.630963E-07  0.184E-03    1.82       7.6  T
   4    -85.2490572 -0.132616E-06  0.662E-04    1.82      21.2  T
   5    -85.2490572 -0.106811E-07  0.322E-04    1.82      43.5  T
     SCC iter.                  ...        0 min,  0.016 sec
     gradient                   ...        0 min,  0.036 sec
 * total energy  :   -84.1048484 Eh     change       -0.2893827E-04 Eh
   gradient norm :     0.0013724 Eh/α   predicted    -0.2108900E-04 ( -27.12%)
   displ. norm   :     0.1636730 α      lambda       -0.2623758E-04
   maximum displ.:     0.0703827 α      in ANC's #4, #6, #3, ...

........................................................................
.............................. CYCLE   12 ..............................
........................................................................

 iter      E             dE          RMSdq      gap      omega  full diag
   1    -85.2495225 -0.852495E+02  0.342E-02    1.81       0.0  T
   2    -85.2495229 -0.429667E-06  0.200E-02    1.81       1.0  T
   3    -85.2495229  0.341851E-07  0.185E-03    1.81       7.6  T
   4    -85.2495230 -0.119956E-06  0.687E-04    1.81      20.4  T
   5    -85.2495230 -0.944848E-08  0.350E-04    1.81      40.0  T
     SCC iter.                  ...        0 min,  0.037 sec
     gradient                   ...        0 min,  0.036 sec
 * total energy  :   -84.1048730 Eh     change       -0.2456822E-04 Eh
   gradient norm :     0.0014935 Eh/α   predicted    -0.1327834E-04 ( -45.95%)
   displ. norm   :     0.0823299 α      lambda       -0.1572104E-04
   maximum displ.:     0.0463470 α      in ANC's #3, #6, #4, ...

........................................................................
.............................. CYCLE   13 ..............................
........................................................................

 iter      E             dE          RMSdq      gap      omega  full diag
   1    -85.2494409 -0.852494E+02  0.167E-02    1.81       0.0  T
   2    -85.2494410 -0.100858E-06  0.974E-03    1.81       1.4  T
   3    -85.2494410 -0.578876E-08  0.745E-04    1.81      18.8  T
   4    -85.2494410 -0.164559E-07  0.315E-04    1.81      44.4  T
     SCC iter.                  ...        0 min,  0.013 sec
     gradient                   ...        0 min,  0.040 sec
 * total energy  :   -84.1048923 Eh     change       -0.1932657E-04 Eh
   gradient norm :     0.0014105 Eh/α   predicted    -0.7886701E-05 ( -59.19%)
   displ. norm   :     0.1469385 α      lambda       -0.2365710E-04
   maximum displ.:     0.0830325 α      in ANC's #3, #6, #4, ...

........................................................................
.............................. CYCLE   14 ..............................
........................................................................

 iter      E             dE          RMSdq      gap      omega  full diag
   1    -85.2488908 -0.852489E+02  0.283E-02    1.81       0.0  T
   2    -85.2488911 -0.311451E-06  0.165E-02    1.80       1.0  T
   3    -85.2488911  0.120385E-07  0.150E-03    1.80       9.4  T
   4    -85.2488912 -0.796331E-07  0.585E-04    1.80      23.9  T
   5    -85.2488912 -0.583825E-08  0.286E-04    1.80      48.9  T
     SCC iter.                  ...        0 min,  0.016 sec
     gradient                   ...        0 min,  0.036 sec
 * total energy  :   -84.1049190 Eh     change       -0.2670118E-04 Eh
   gradient norm :     0.0011731 Eh/α   predicted    -0.1194570E-04 ( -55.26%)
   displ. norm   :     0.1727793 α      lambda       -0.2138807E-04
   maximum displ.:     0.1008077 α      in ANC's #3, #4, #6, ...

........................................................................
.............................. CYCLE   15 ..............................
........................................................................

 iter      E             dE          RMSdq      gap      omega  full diag
   1    -85.2485841 -0.852486E+02  0.344E-02    1.80       0.0  T
   2    -85.2485845 -0.376250E-06  0.201E-02    1.80       1.0  T
   3    -85.2485845 -0.284164E-07  0.149E-03    1.80       9.4  T
   4    -85.2485846 -0.622452E-07  0.614E-04    1.80      22.8  T
   5    -85.2485846 -0.322790E-08  0.307E-04    1.80      45.6  T
     SCC iter.                  ...        0 min,  0.024 sec
     gradient                   ...        0 min,  0.035 sec
 * total energy  :   -84.1049430 Eh     change       -0.2396992E-04 Eh
   gradient norm :     0.0014552 Eh/α   predicted    -0.1083906E-04 ( -54.78%)
   displ. norm   :     0.1856879 α      lambda       -0.2067831E-04
   maximum displ.:     0.1105247 α      in ANC's #3, #4, #2, ...

........................................................................
.............................. CYCLE   16 ..............................
........................................................................

 iter      E             dE          RMSdq      gap      omega  full diag
   1    -85.2486332 -0.852486E+02  0.391E-02    1.80       0.0  T
   2    -85.2486336 -0.390393E-06  0.228E-02    1.80       1.0  T
   3    -85.2486336 -0.331347E-08  0.169E-03    1.80       8.3  T
   4    -85.2486337 -0.103934E-06  0.681E-04    1.80      20.5  T
   5    -85.2486337 -0.580837E-08  0.330E-04    1.80      42.4  T
     SCC iter.                  ...        0 min,  0.016 sec
     gradient                   ...        0 min,  0.036 sec
 * total energy  :   -84.1049681 Eh     change       -0.2506081E-04 Eh
   gradient norm :     0.0013608 Eh/α   predicted    -0.1049966E-04 ( -58.10%)
   displ. norm   :     0.2237109 α      lambda       -0.2458430E-04
   maximum displ.:     0.1367111 α      in ANC's #3, #4, #2, ...

........................................................................
.............................. CYCLE   17 ..............................
........................................................................

 iter      E             dE          RMSdq      gap      omega  full diag
   1    -85.2484322 -0.852484E+02  0.502E-02    1.80       0.0  T
   2    -85.2484327 -0.510884E-06  0.293E-02    1.80       1.0  T
   3    -85.2484328 -0.742286E-07  0.176E-03    1.80       8.0  T
   4    -85.2484329 -0.830075E-07  0.762E-04    1.80      18.4  T
   5    -85.2484329 -0.337235E-08  0.330E-04    1.80      42.5  T
     SCC iter.                  ...        0 min,  0.016 sec
     gradient                   ...        0 min,  0.035 sec
 * total energy  :   -84.1049981 Eh     change       -0.3007196E-04 Eh
   gradient norm :     0.0012264 Eh/α   predicted    -0.1256848E-04 ( -58.21%)
   displ. norm   :     0.2471772 α      lambda       -0.2567694E-04
   maximum displ.:     0.1553337 α      in ANC's #3, #4, #2, ...

........................................................................
.............................. CYCLE   18 ..............................
........................................................................

 iter      E             dE          RMSdq      gap      omega  full diag
   1    -85.2487962 -0.852488E+02  0.583E-02    1.80       0.0  T
   2    -85.2487968 -0.584752E-06  0.341E-02    1.80       1.0  T
   3    -85.2487969 -0.106484E-06  0.181E-03    1.80       7.7  T
   4    -85.2487970 -0.813501E-07  0.837E-04    1.80      16.7  T
   5    -85.2487970 -0.430445E-08  0.394E-04    1.80      35.6  T
     SCC iter.                  ...        0 min,  0.019 sec
     gradient                   ...        0 min,  0.035 sec
 * total energy  :   -84.1050282 Eh     change       -0.3007160E-04 Eh
   gradient norm :     0.0011710 Eh/α   predicted    -0.1319124E-04 ( -56.13%)
   displ. norm   :     0.2467068 α      lambda       -0.2260054E-04
   maximum displ.:     0.1575949 α      in ANC's #3, #4, #2, ...

........................................................................
.............................. CYCLE   19 ..............................
........................................................................

 iter      E             dE          RMSdq      gap      omega  full diag
   1    -85.2485675 -0.852486E+02  0.604E-02    1.79       0.0  T
   2    -85.2485681 -0.592607E-06  0.353E-02    1.79       1.0  T
   3    -85.2485682 -0.915713E-07  0.187E-03    1.79       7.5  T
   4    -85.2485682 -0.954723E-07  0.831E-04    1.79      16.8  T
   5    -85.2485683 -0.563757E-08  0.409E-04    1.79      34.2  T
     SCC iter.                  ...        0 min,  0.016 sec
     gradient                   ...        0 min,  0.036 sec
 * total energy  :   -84.1050548 Eh     change       -0.2656608E-04 Eh
   gradient norm :     0.0014099 Eh/α   predicted    -0.1160814E-04 ( -56.30%)
   displ. norm   :     0.2133299 α      lambda       -0.2293854E-04
   maximum displ.:     0.1414302 α      in ANC's #3, #2, #4, ...

........................................................................
.............................. CYCLE   20 ..............................
........................................................................

 iter      E             dE          RMSdq      gap      omega  full diag
   1    -85.2494413 -0.852494E+02  0.551E-02    1.79       0.0  T
   2    -85.2494417 -0.378861E-06  0.323E-02    1.79       1.0  T
   3    -85.2494417 -0.608210E-07  0.162E-03    1.79       8.7  T
   4    -85.2494418 -0.751113E-07  0.770E-04    1.79      18.2  T
   5    -85.2494418 -0.781790E-08  0.365E-04    1.79      38.4  T
     SCC iter.                  ...        0 min,  0.016 sec
     gradient                   ...        0 min,  0.036 sec
 * total energy  :   -84.1050833 Eh     change       -0.2847061E-04 Eh
   gradient norm :     0.0013434 Eh/α   predicted    -0.1170268E-04 ( -58.90%)
   displ. norm   :     0.4502475 α      lambda       -0.4163454E-04
   maximum displ.:     0.2993772 α      in ANC's #3, #2, #4, ...
 * RMSD in coord.:     0.4121811 α      energy gain  -0.1055457E-01 Eh

generating ANC from exact Hessian ...
Using Lindh-Hessian (1995)
 Shifting diagonal of input Hessian by    9.8131400319538004E-003
 Lowest  eigenvalues of input Hessian
    0.000000    0.000000    0.000000    0.000000    0.000000    0.000000
    0.010000    0.010152    0.010250    0.010611    0.010835    0.011189
    0.012030    0.013541    0.014741    0.016220    0.016454    0.017615
 Highest eigenvalues
    2.077184    2.102368    2.142787    2.186173    2.376146    2.553372


........................................................................
.............................. CYCLE   21 ..............................
........................................................................

 iter      E             dE          RMSdq      gap      omega  full diag
   1    -85.2478547 -0.852479E+02  0.117E-01    1.79       0.0  T
   2    -85.2478563 -0.156151E-05  0.684E-02    1.79       1.0  T
   3    -85.2478566 -0.388614E-06  0.311E-03    1.79       4.5  T
   4    -85.2478569 -0.232002E-06  0.154E-03    1.79       9.1  T
   5    -85.2478569 -0.184006E-07  0.714E-04    1.79      19.6  T
   6    -85.2478569 -0.718559E-08  0.205E-04    1.79      68.3  T
     SCC iter.                  ...        0 min,  0.019 sec
     gradient                   ...        0 min,  0.036 sec
 * total energy  :   -84.1051282 Eh     change       -0.4498265E-04 Eh
   gradient norm :     0.0023583 Eh/α   predicted     0.0000000E+00 (-100.00%)
   displ. norm   :     0.0299519 α      lambda       -0.2501554E-04
   maximum displ.:     0.0135202 α      in ANC's #3, #8, #2, ...

........................................................................
.............................. CYCLE   22 ..............................
........................................................................

 iter      E             dE          RMSdq      gap      omega  full diag
   1    -85.2494049 -0.852494E+02  0.899E-03    1.79       0.0  T
   2    -85.2494050 -0.768862E-07  0.534E-03    1.79       2.6  T
   3    -85.2494049  0.748142E-07  0.146E-03    1.79       9.6  T
   4    -85.2494050 -0.960749E-07  0.201E-04    1.79      69.7  T
   5    -85.2494050 -0.707374E-09  0.106E-04    1.79     132.0  T
     SCC iter.                  ...        0 min,  0.016 sec
     gradient                   ...        0 min,  0.039 sec
 * total energy  :   -84.1051469 Eh     change       -0.1864929E-04 Eh
   gradient norm :     0.0008265 Eh/α   predicted    -0.1254764E-04 ( -32.72%)
   displ. norm   :     0.0937629 α      lambda       -0.2384839E-04
   maximum displ.:     0.0464349 α      in ANC's #3, #8, #2, ...

........................................................................
.............................. CYCLE   23 ..............................
........................................................................

 iter      E             dE          RMSdq      gap      omega  full diag
   1    -85.2511631 -0.852512E+02  0.219E-02    1.80       0.0  T
   2    -85.2511633 -0.201203E-06  0.129E-02    1.80       1.1  T
   3    -85.2511632  0.171767E-06  0.218E-03    1.80       6.4  T
   4    -85.2511634 -0.230445E-06  0.418E-04    1.80      33.5  T
   5    -85.2511634 -0.252804E-08  0.221E-04    1.80      63.3  T
     SCC iter.                  ...        0 min,  0.016 sec
     gradient                   ...        0 min,  0.036 sec
 * total energy  :   -84.1051665 Eh     change       -0.1965368E-04 Eh
   gradient norm :     0.0017844 Eh/α   predicted    -0.1197131E-04 ( -39.09%)
   displ. norm   :     0.0659084 α      lambda       -0.1139463E-04
   maximum displ.:     0.0361034 α      in ANC's #3, #2, #6, ...

........................................................................
.............................. CYCLE   24 ..............................
........................................................................

 iter      E             dE          RMSdq      gap      omega  full diag
   1    -85.2504576 -0.852505E+02  0.150E-02    1.79       0.0  T
   2    -85.2504577 -0.448491E-07  0.880E-03    1.79       1.6  T
   3    -85.2504576  0.122766E-07  0.743E-04    1.79      18.9  T
   4    -85.2504577 -0.246096E-07  0.225E-04    1.79      62.3  T
     SCC iter.                  ...        0 min,  0.022 sec
     gradient                   ...        0 min,  0.035 sec
 * total energy  :   -84.1051805 Eh     change       -0.1394320E-04 Eh
   gradient norm :     0.0012432 Eh/α   predicted    -0.5842908E-05 ( -58.09%)
   displ. norm   :     0.1212330 α      lambda       -0.1741315E-04
   maximum displ.:     0.0688217 α      in ANC's #3, #6, #2, ...

........................................................................
.............................. CYCLE   25 ..............................
........................................................................

 iter      E             dE          RMSdq      gap      omega  full diag
   1    -85.2491217 -0.852491E+02  0.277E-02    1.79       0.0  T
   2    -85.2491218 -0.124890E-06  0.163E-02    1.79       1.0  T
   3    -85.2491218  0.273551E-07  0.133E-03    1.79      10.5  T
   4    -85.2491218 -0.700882E-07  0.410E-04    1.79      34.2  T
   5    -85.2491218 -0.118818E-08  0.224E-04    1.79      62.4  T
     SCC iter.                  ...        0 min,  0.016 sec
     gradient                   ...        0 min,  0.049 sec
 * total energy  :   -84.1051964 Eh     change       -0.1590233E-04 Eh
   gradient norm :     0.0009832 Eh/α   predicted    -0.8769693E-05 ( -44.85%)
   displ. norm   :     0.0907985 α      lambda       -0.9664471E-05
   maximum displ.:     0.0532163 α      in ANC's #3, #2, #6, ...

........................................................................
.............................. CYCLE   26 ..............................
........................................................................

 iter      E             dE          RMSdq      gap      omega  full diag
   1    -85.2487976 -0.852488E+02  0.215E-02    1.80       0.0  T
   2    -85.2487977 -0.576225E-07  0.126E-02    1.80       1.1  T
   3    -85.2487977 -0.654947E-08  0.610E-04    1.80      23.0  T
   4    -85.2487977 -0.103267E-07  0.256E-04    1.80      54.7  T
     SCC iter.                  ...        0 min,  0.013 sec
     gradient                   ...        0 min,  0.057 sec
 * total energy  :   -84.1052071 Eh     change       -0.1075188E-04 Eh
   gradient norm :     0.0011027 Eh/α   predicted    -0.4850566E-05 ( -54.89%)
   displ. norm   :     0.1068066 α      lambda       -0.1076608E-04
   maximum displ.:     0.0632975 α      in ANC's #3, #2, #5, ...

........................................................................
.............................. CYCLE   27 ..............................
........................................................................

 iter      E             dE          RMSdq      gap      omega  full diag
   1    -85.2489405 -0.852489E+02  0.255E-02    1.80       0.0  T
   2    -85.2489406 -0.665029E-07  0.149E-02    1.80       1.0  T
   3    -85.2489406  0.656968E-08  0.916E-04    1.80      15.3  T
   4    -85.2489406 -0.313864E-07  0.321E-04    1.80      43.6  T
     SCC iter.                  ...        0 min,  0.012 sec
     gradient                   ...        0 min,  0.036 sec
 * total energy  :   -84.1052208 Eh     change       -0.1370119E-04 Eh
   gradient norm :     0.0010335 Eh/α   predicted    -0.5413325E-05 ( -60.49%)
   displ. norm   :     0.1727406 α      lambda       -0.1623907E-04
   maximum displ.:     0.1030421 α      in ANC's #3, #2, #5, ...

........................................................................
.............................. CYCLE   28 ..............................
........................................................................

 iter      E             dE          RMSdq      gap      omega  full diag
   1    -85.2493211 -0.852493E+02  0.424E-02    1.80       0.0  T
   2    -85.2493212 -0.163235E-06  0.249E-02    1.80       1.0  T
   3    -85.2493212  0.294136E-07  0.154E-03    1.80       9.1  T
   4    -85.2493213 -0.980335E-07  0.505E-04    1.80      27.7  T
   5    -85.2493213 -0.190293E-08  0.228E-04    1.80      61.4  T
     SCC iter.                  ...        0 min,  0.031 sec
     gradient                   ...        0 min,  0.035 sec
 * total energy  :   -84.1052393 Eh     change       -0.1849410E-04 Eh
   gradient norm :     0.0007166 Eh/α   predicted    -0.8229475E-05 ( -55.50%)
   displ. norm   :     0.1694912 α      lambda       -0.1138421E-04
   maximum displ.:     0.1031144 α      in ANC's #3, #2, #5, ...

........................................................................
.............................. CYCLE   29 ..............................
........................................................................

 iter      E             dE          RMSdq      gap      omega  full diag
   1    -85.2494976 -0.852495E+02  0.424E-02    1.81       0.0  T
   2    -85.2494977 -0.149222E-06  0.249E-02    1.81       1.0  T
   3    -85.2494977  0.159010E-07  0.141E-03    1.81       9.9  T
   4    -85.2494978 -0.822080E-07  0.494E-04    1.81      28.4  T
   5    -85.2494978 -0.175064E-08  0.198E-04    1.81      70.7  T
     SCC iter.                  ...        0 min,  0.016 sec
     gradient                   ...        0 min,  0.050 sec
 * total energy  :   -84.1052525 Eh     change       -0.1316278E-04 Eh
   gradient norm :     0.0005306 Eh/α   predicted    -0.5766544E-05 ( -56.19%)
   displ. norm   :     0.1531663 α      lambda       -0.9671323E-05
   maximum displ.:     0.0946047 α      in ANC's #3, #2, #5, ...

........................................................................
.............................. CYCLE   30 ..............................
........................................................................

 iter      E             dE          RMSdq      gap      omega  full diag
   1    -85.2497315 -0.852497E+02  0.386E-02    1.81       0.0  T
   2    -85.2497317 -0.127766E-06  0.227E-02    1.81       1.0  T
   3    -85.2497317  0.582909E-08  0.124E-03    1.81      11.3  T
   4    -85.2497317 -0.610426E-07  0.456E-04    1.81      30.7  T
   5    -85.2497317 -0.172066E-08  0.183E-04    1.81      76.5  T
     SCC iter.                  ...        0 min,  0.016 sec
     gradient                   ...        0 min,  0.037 sec
 * total energy  :   -84.1052646 Eh     change       -0.1208576E-04 Eh
   gradient norm :     0.0004488 Eh/α   predicted    -0.4887093E-05 ( -59.56%)
   displ. norm   :     0.1823875 α      lambda       -0.1235928E-04
   maximum displ.:     0.1123625 α      in ANC's #3, #2, #1, ...

........................................................................
.............................. CYCLE   31 ..............................
........................................................................

 iter      E             dE          RMSdq      gap      omega  full diag
   1    -85.2498964 -0.852499E+02  0.454E-02    1.81       0.0  T
   2    -85.2498966 -0.200825E-06  0.266E-02    1.81       1.0  T
   3    -85.2498966  0.451908E-08  0.149E-03    1.81       9.4  T
   4    -85.2498967 -0.886040E-07  0.582E-04    1.81      24.1  T
   5    -85.2498967 -0.313726E-08  0.230E-04    1.81      60.9  T
     SCC iter.                  ...        0 min,  0.016 sec
     gradient                   ...        0 min,  0.035 sec
 * total energy  :   -84.1052805 Eh     change       -0.1596837E-04 Eh
   gradient norm :     0.0004650 Eh/α   predicted    -0.6272537E-05 ( -60.72%)
   displ. norm   :     0.2373291 α      lambda       -0.1584015E-04
   maximum displ.:     0.1448343 α      in ANC's #3, #2, #4, ...

........................................................................
.............................. CYCLE   32 ..............................
........................................................................

 iter      E             dE          RMSdq      gap      omega  full diag
   1    -85.2496893 -0.852497E+02  0.585E-02    1.81       0.0  T
   2    -85.2496897 -0.361162E-06  0.343E-02    1.81       1.0  T
   3    -85.2496897  0.403857E-08  0.199E-03    1.81       7.0  T
   4    -85.2496899 -0.151560E-06  0.783E-04    1.81      17.9  T
   5    -85.2496899 -0.557459E-08  0.307E-04    1.81      45.6  T
     SCC iter.                  ...        0 min,  0.048 sec
     gradient                   ...        0 min,  0.035 sec
 * total energy  :   -84.1053006 Eh     change       -0.2008442E-04 Eh
   gradient norm :     0.0006381 Eh/α   predicted    -0.8120351E-05 ( -59.57%)
   displ. norm   :     0.2650359 α      lambda       -0.1686804E-04
   maximum displ.:     0.1597399 α      in ANC's #3, #2, #4, ...

........................................................................
.............................. CYCLE   33 ..............................
........................................................................

 iter      E             dE          RMSdq      gap      omega  full diag
   1    -85.2494435 -0.852494E+02  0.639E-02    1.81       0.0  T
   2    -85.2494440 -0.497193E-06  0.374E-02    1.81       1.0  T
   3    -85.2494440 -0.270352E-07  0.215E-03    1.81       6.5  T
   4    -85.2494442 -0.157207E-06  0.907E-04    1.81      15.4  T
   5    -85.2494442 -0.846271E-08  0.379E-04    1.81      36.9  T
     SCC iter.                  ...        0 min,  0.016 sec
     gradient                   ...        0 min,  0.036 sec
 * total energy  :   -84.1053216 Eh     change       -0.2100088E-04 Eh
   gradient norm :     0.0009707 Eh/α   predicted    -0.8700850E-05 ( -58.57%)
   displ. norm   :     0.3262135 α      lambda       -0.1999878E-04
   maximum displ.:     0.1939110 α      in ANC's #3, #2, #4, ...

........................................................................
.............................. CYCLE   34 ..............................
........................................................................

 iter      E             dE          RMSdq      gap      omega  full diag
   1    -85.2489624 -0.852490E+02  0.775E-02    1.81       0.0  T
   2    -85.2489633 -0.810411E-06  0.453E-02    1.81       1.0  T
   3    -85.2489633 -0.368811E-07  0.270E-03    1.81       5.2  T
   4    -85.2489635 -0.243967E-06  0.115E-03    1.81      12.1  T
   5    -85.2489635 -0.156743E-07  0.493E-04    1.81      28.4  T
   6    -85.2489636 -0.319353E-08  0.127E-04    1.81     110.4  T
     SCC iter.                  ...        0 min,  0.019 sec
     gradient                   ...        0 min,  0.035 sec
 * total energy  :   -84.1053454 Eh     change       -0.2373035E-04 Eh
   gradient norm :     0.0014540 Eh/α   predicted    -0.1047509E-04 ( -55.86%)
   displ. norm   :     0.3857045 α      lambda       -0.2489586E-04
   maximum displ.:     0.2238027 α      in ANC's #2, #3, #4, ...

........................................................................
.............................. CYCLE   35 ..............................
........................................................................

 iter      E             dE          RMSdq      gap      omega  full diag
   1    -85.2486497 -0.852486E+02  0.892E-02    1.81       0.0  T
   2    -85.2486509 -0.121992E-05  0.521E-02    1.81       1.0  T
   3    -85.2486510 -0.123496E-06  0.303E-03    1.81       4.6  T
   4    -85.2486513 -0.265476E-06  0.137E-03    1.81      10.2  T
   5    -85.2486513 -0.212329E-07  0.614E-04    1.81      22.8  T
   6    -85.2486513 -0.565352E-08  0.152E-04    1.81      91.9  T
     SCC iter.                  ...        0 min,  0.019 sec
     gradient                   ...        0 min,  0.035 sec
 * total energy  :   -84.1053725 Eh     change       -0.2716798E-04 Eh
   gradient norm :     0.0018913 Eh/α   predicted    -0.1327392E-04 ( -51.14%)
   displ. norm   :     0.3122800 α      lambda       -0.2810686E-04
   maximum displ.:     0.1711358 α      in ANC's #2, #3, #4, ...

........................................................................
.............................. CYCLE   36 ..............................
........................................................................

 iter      E             dE          RMSdq      gap      omega  full diag
   1    -85.2497976 -0.852498E+02  0.687E-02    1.81       0.0  T
   2    -85.2497985 -0.945747E-06  0.400E-02    1.81       1.0  T
   3    -85.2497986 -0.746133E-07  0.253E-03    1.81       5.5  T
   4    -85.2497988 -0.195050E-06  0.114E-03    1.81      12.3  T
   5    -85.2497988 -0.152536E-07  0.546E-04    1.81      25.6  T
   6    -85.2497988 -0.570137E-08  0.149E-04    1.81      94.0  T
     SCC iter.                  ...        0 min,  0.043 sec
     gradient                   ...        0 min,  0.035 sec
 * total energy  :   -84.1054022 Eh     change       -0.2964138E-04 Eh
   gradient norm :     0.0013271 Eh/α   predicted    -0.1466284E-04 ( -50.53%)
   displ. norm   :     0.4233400 α      lambda       -0.2519237E-04
   maximum displ.:     0.2406816 α      in ANC's #2, #3, #4, ...

........................................................................
.............................. CYCLE   37 ..............................
........................................................................

 iter      E             dE          RMSdq      gap      omega  full diag
   1    -85.2475316 -0.852475E+02  0.988E-02    1.81       0.0  T
   2    -85.2475331 -0.152226E-05  0.577E-02    1.81       1.0  T
   3    -85.2475333 -0.111605E-06  0.366E-03    1.81       3.8  T
   4    -85.2475336 -0.391318E-06  0.154E-03    1.81       9.1  T
   5    -85.2475337 -0.213005E-07  0.694E-04    1.81      20.2  T
   6    -85.2475337 -0.526657E-08  0.192E-04    1.81      72.8  T
     SCC iter.                  ...        0 min,  0.038 sec
     gradient                   ...        0 min,  0.035 sec
 * total energy  :   -84.1054199 Eh     change       -0.1769921E-04 Eh
   gradient norm :     0.0025271 Eh/α   predicted    -0.1360285E-04 ( -23.14%)
   displ. norm   :     0.0791115 α      lambda       -0.3190738E-04
   maximum displ.:     0.0327228 α      in ANC's #7, #9, #4, ...

........................................................................
.............................. CYCLE   38 ..............................
........................................................................

 iter      E             dE          RMSdq      gap      omega  full diag
   1    -85.2500322 -0.852500E+02  0.203E-02    1.80       0.0  T
   2    -85.2500324 -0.226822E-06  0.119E-02    1.80       1.2  T
   3    -85.2500323  0.754977E-07  0.180E-03    1.81       7.8  T
   4    -85.2500325 -0.129672E-06  0.487E-04    1.81      28.8  T
   5    -85.2500325 -0.392129E-08  0.273E-04    1.81      51.2  T
     SCC iter.                  ...        0 min,  0.016 sec
     gradient                   ...        0 min,  0.044 sec
 * total energy  :   -84.1054355 Eh     change       -0.1559723E-04 Eh
   gradient norm :     0.0014285 Eh/α   predicted    -0.1605446E-04 (   2.93%)
   displ. norm   :     0.1749051 α      lambda       -0.1090778E-04
   maximum displ.:     0.0957201 α      in ANC's #2, #3, #4, ...

........................................................................
.............................. CYCLE   39 ..............................
........................................................................

 iter      E             dE          RMSdq      gap      omega  full diag
   1    -85.2495124 -0.852495E+02  0.402E-02    1.81       0.0  T
   2    -85.2495127 -0.314104E-06  0.235E-02    1.80       1.0  T
   3    -85.2495128 -0.406784E-07  0.141E-03    1.80       9.9  T
   4    -85.2495128 -0.546845E-07  0.657E-04    1.80      21.3  T
   5    -85.2495128 -0.340694E-08  0.316E-04    1.80      44.3  T
     SCC iter.                  ...        0 min,  0.016 sec
     gradient                   ...        0 min,  0.035 sec
 * total energy  :   -84.1054438 Eh     change       -0.8348198E-05 Eh
   gradient norm :     0.0012412 Eh/α   predicted    -0.5528572E-05 ( -33.78%)
   displ. norm   :     0.1060676 α      lambda       -0.8009489E-05
   maximum displ.:     0.0597024 α      in ANC's #3, #2, #1, ...

........................................................................
.............................. CYCLE   40 ..............................
........................................................................

 iter      E             dE          RMSdq      gap      omega  full diag
   1    -85.2495070 -0.852495E+02  0.263E-02    1.80       0.0  T
   2    -85.2495071 -0.839472E-07  0.155E-02    1.80       1.0  T
   3    -85.2495071 -0.133062E-08  0.941E-04    1.80      14.9  T
   4    -85.2495071 -0.322141E-07  0.381E-04    1.80      36.8  T
     SCC iter.                  ...        0 min,  0.028 sec
     gradient                   ...        0 min,  0.035 sec
 * total energy  :   -84.1054528 Eh     change       -0.8995310E-05 Eh
   gradient norm :     0.0010340 Eh/α   predicted    -0.4028853E-05 ( -55.21%)
   displ. norm   :     0.1567654 α      lambda       -0.1251176E-04
   maximum displ.:     0.0846539 α      in ANC's #3, #2, #1, ...

........................................................................
.............................. CYCLE   41 ..............................
........................................................................

 iter      E             dE          RMSdq      gap      omega  full diag
   1    -85.2497276 -0.852497E+02  0.393E-02    1.80       0.0  T
   2    -85.2497278 -0.201795E-06  0.231E-02    1.80       1.0  T
   3    -85.2497278  0.321323E-08  0.146E-03    1.80       9.6  T
   4    -85.2497278 -0.821839E-07  0.595E-04    1.80      23.6  T
   5    -85.2497278 -0.318553E-08  0.316E-04    1.80      44.4  T
     SCC iter.                  ...        0 min,  0.016 sec
     gradient                   ...        0 min,  0.051 sec
 * total energy  :   -84.1054645 Eh     change       -0.1164815E-04 Eh
   gradient norm :     0.0012581 Eh/α   predicted    -0.6328260E-05 ( -45.67%)
   displ. norm   :     0.1116850 α      lambda       -0.6796005E-05
   maximum displ.:     0.0628752 α      in ANC's #3, #1, #2, ...

........................................................................
.............................. CYCLE   42 ..............................
........................................................................

 iter      E             dE          RMSdq      gap      omega  full diag
   1    -85.2499377 -0.852499E+02  0.269E-02    1.80       0.0  T
   2    -85.2499378 -0.993721E-07  0.158E-02    1.80       1.0  T
   3    -85.2499378 -0.189731E-07  0.782E-04    1.80      17.9  T
   4    -85.2499378 -0.151603E-07  0.389E-04    1.80      36.0  T
     SCC iter.                  ...        0 min,  0.013 sec
     gradient                   ...        0 min,  0.035 sec
 * total energy  :   -84.1054709 Eh     change       -0.6421877E-05 Eh
   gradient norm :     0.0011607 Eh/α   predicted    -0.3420156E-05 ( -46.74%)
   displ. norm   :     0.1282510 α      lambda       -0.6092435E-05
   maximum displ.:     0.0764454 α      in ANC's #3, #1, #2, ...
 * RMSD in coord.:     0.4661919 α      energy gain  -0.3876302E-03 Eh

generating ANC from exact Hessian ...
Using Lindh-Hessian (1995)
 Shifting diagonal of input Hessian by    9.8106770215363251E-003
 Lowest  eigenvalues of input Hessian
    0.000000    0.000000    0.000000    0.000000    0.000000    0.000000
    0.010000    0.010152    0.010246    0.010649    0.010805    0.011187
    0.012027    0.013561    0.014768    0.016091    0.016532    0.017388
 Highest eigenvalues
    2.078118    2.104776    2.142811    2.189358    2.376317    2.554009


........................................................................
.............................. CYCLE   43 ..............................
........................................................................

 iter      E             dE          RMSdq      gap      omega  full diag
   1    -85.2499590 -0.852500E+02  0.320E-02    1.80       0.0  T
   2    -85.2499591 -0.108513E-06  0.188E-02    1.80       1.0  T
   3    -85.2499591 -0.161615E-07  0.949E-04    1.80      14.7  T
   4    -85.2499591 -0.282132E-07  0.462E-04    1.80      30.3  T
     SCC iter.                  ...        0 min,  0.013 sec
     gradient                   ...        0 min,  0.036 sec
 * total energy  :   -84.1054777 Eh     change       -0.6786316E-05 Eh
   gradient norm :     0.0008025 Eh/α   predicted     0.0000000E+00 (-100.00%)
   displ. norm   :     0.0187410 α      lambda       -0.3569779E-05
   maximum displ.:     0.0072231 α      in ANC's #7, #11, #5, ...

........................................................................
.............................. CYCLE   44 ..............................
........................................................................

 iter      E             dE          RMSdq      gap      omega  full diag
   1    -85.2505754 -0.852506E+02  0.574E-03    1.80       0.0  T
   2    -85.2505754 -0.161461E-07  0.338E-03    1.80       4.1  T
   3    -85.2505754  0.163791E-07  0.660E-04    1.80      21.2  T
   4    -85.2505754 -0.213922E-07  0.122E-04    1.80     115.1  T
     SCC iter.                  ...        0 min,  0.027 sec
     gradient                   ...        0 min,  0.036 sec
 * total energy  :   -84.1054815 Eh     change       -0.3822624E-05 Eh
   gradient norm :     0.0003097 Eh/α   predicted    -0.1790205E-05 ( -53.17%)
   displ. norm   :     0.0402154 α      lambda       -0.3955141E-05
   maximum displ.:     0.0165331 α      in ANC's #5, #7, #6, ...

   *** GEOMETRY OPTIMIZATION CONVERGED AFTER 44 ITERATIONS ***

------------------------------------------------------------------------
 total energy gain   :        -0.0109528 Eh       -6.8730 kcal/mol
 total RMSD          :         0.8044306 a0        0.4257 Å
 total power (kW/mol):        -0.6535589 (step)   -8.9858 (real)
------------------------------------------------------------------------

 ANCopt (total)                0 d,  0 h,  0 min,  3.200 sec
 optimizer setup                ...        0 min,  0.000 sec (  0.004%)
 model hessian                  ...        0 min,  0.068 sec (  2.110%)
 ANC generation                 ...        0 min,  0.007 sec (  0.204%)
 coordinate transformation      ...        0 min,  0.001 sec (  0.021%)
 single point calculation       ...        0 min,  3.111 sec ( 97.214%)
 optimization log               ...        0 min,  0.008 sec (  0.239%)
 hessian update                 ...        0 min,  0.001 sec (  0.025%)
 rational function              ...        0 min,  0.003 sec (  0.107%)

================
 final structure:
================
51
 xtb: 6.7.1 (edcfbbe)
F            8.08224219153817        2.91576325015074        1.46116934833402
C            7.22281476041296        1.98430370952106        1.00739828981434
C            7.45349381933666        0.65204106348369        1.30323822257648
C            6.56184716300231       -0.28903731710807        0.83098411323432
C            5.44606986769552        0.08486242306189        0.07954447924230
C            5.24794866359841        1.43425415388350       -0.20900116903985
C            6.13505598262389        2.38809446376857        0.25268153086887
C            4.54047910126147       -1.00739490895600       -0.37642949822344
C            3.12929678115827       -0.61973504754878       -0.77289095948079
C            2.36016564460729       -0.09970335635040        0.44826038684441
C            0.93045893451541        0.24243074380581        0.04128411721765
N            0.26583253987027       -0.93833312276005       -0.47426861464692
C            0.93079923068281       -1.41328432843895       -1.67246173389355
C            2.36587067561396       -1.81162574685051       -1.34607947192839
C           -1.16010084473223       -0.74762684558854       -0.63565851017552
C           -1.88447434896308       -1.00511101804940        0.69173423866429
N           -3.30590887753626       -0.71931260195362        0.57162443525995
C           -4.10078780110269       -1.73071315686872        0.06689324459383
N           -5.43633381969759       -1.43359815810590       -0.04526218810684
C           -6.00384969799897       -0.22606733260738        0.28082127511392
C           -7.37134300372606        0.00181340611934        0.13621876434056
C           -7.89817096609297        1.23167366929704        0.47203767448247
C           -7.07884831158363        2.24846723527079        0.95221114098460
C           -5.72620775044328        2.02935645884585        1.09695270890049
C           -5.17595707428281        0.79160258236008        0.76456501929750
C           -3.73715687721837        0.55574070649551        0.91872741543544
O           -2.95461776572255        1.38924939084126        1.32319351382408
O           -3.66861628405060       -2.81273089286575       -0.25424350394115
O            4.91899193831325       -2.15701483041809       -0.38919712440775
H            8.31488731538040        0.37213646246917        1.88850578164680
H            6.70927066066412       -1.33842157821521        1.03682259066560
H            4.41253000499002        1.75452887586630       -0.81087311802320
H            5.99647127831021        3.43535817412482        0.03464959697681
H            3.17756056804808        0.17121146040719       -1.52935465555208
H            2.33195959210818       -0.88186011000797        1.20806755721714
H            2.84558586021841        0.77995140747922        0.87350781079597
H            0.94601061458156        1.05352170977757       -0.71258908943311
H            0.38137147180505        0.60667830660190        0.91066266288134
H            0.38900933239719       -2.28565425684263       -2.04369121565065
H            0.93279616840174       -0.64409924995814       -2.46885986121928
H            2.35755024733532       -2.61462210907102       -0.60909163739268
H            2.86364866733041       -2.18051490017711       -2.24392336916364
H           -1.53574800856998       -1.46597667034221       -1.36789903726856
H           -1.40674005375311        0.26824008234847       -0.99067550001829
H           -1.49106481973850       -0.35782026483120        1.47563780775842
H           -1.76275215090330       -2.05159904517990        0.97187022962837
H           -6.02025922154582       -2.17689328176722       -0.40477263721308
H           -8.00604503818551       -0.78795861513251       -0.23741337138576
H           -8.95790520807661        1.40436313013883        0.35984584294283
H           -7.50463625433799        3.20542473532555        1.20998206780723
H           -5.06259489754573        2.79564114455215        1.46674439883390

 Bond Distances (Angstroems)
 ---------------------------
F1-C2=1.3462         C2-F1=1.3462         C2-C3=1.3841         C2-C7=1.3841         C3-C2=1.3841         C3-C4=1.3797         
C3-H30=1.0784        C4-C3=1.3797         C4-C5=1.3962         C4-H31=1.0795        C5-C4=1.3962         C5-C6=1.3940         
C5-C8=1.4903         C6-C5=1.3940         C6-C7=1.3820         C6-H32=1.0783        C7-C2=1.3841         C7-C6=1.3820         
C7-H33=1.0787        C8-C5=1.4903         C8-C9=1.5162         C8-O29=1.2104        C9-C8=1.5162         C9-C10=1.5340        
C9-C14=1.5271        C9-H34=1.0955        C10-C9=1.5340        C10-C11=1.5254       C10-H35=1.0908       C10-H36=1.0910       
C11-C10=1.5254       C11-N12=1.4497       C11-H37=1.1074       C11-H38=1.0909       N12-C11=1.4497       N12-C13=1.4503       
N12-C15=1.4477       C13-N12=1.4503       C13-C14=1.5247       C13-H39=1.0920       C13-H40=1.1072       C14-C9=1.5271        
C14-C13=1.5247       C14-H41=1.0900       C14-H42=1.0909       C15-N12=1.4477       C15-C16=1.5339       C15-H43=1.0924       
C15-H44=1.1040       C16-C15=1.5339       C16-N17=1.4548       C16-H45=1.0901       C16-H46=1.0902       N17-C16=1.4548       
N17-C18=1.3819       N17-C26=1.3900       C18-N17=1.3819       C18-N19=1.3728       C18-O28=1.2086       N19-C18=1.3728       
N19-C20=1.3735       N19-H47=1.0113       C20-N19=1.3735       C20-C21=1.3939       C20-C25=1.3982       C21-C20=1.3939       
C21-C22=1.3794       C21-H48=1.0799       C22-C21=1.3794       C22-C23=1.3913       C22-H49=1.0796       C23-C22=1.3913       
C23-C24=1.3779       C23-H50=1.0787       C24-C23=1.3779       C24-C25=1.3947       C24-H51=1.0790       C25-C20=1.3982       
C25-C24=1.3947       C25-C26=1.4661       C26-N17=1.3900       C26-C25=1.4661       C26-O27=1.2127       O27-C26=1.2127       
O28-C18=1.2086       O29-C8=1.2104        H30-C3=1.0784        H31-C4=1.0795        H32-C6=1.0783        H33-C7=1.0787        
H34-C9=1.0955        H35-C10=1.0908       H36-C10=1.0910       H37-C11=1.1074       H38-C11=1.0909       H39-C13=1.0920       
H40-C13=1.1072       H41-C14=1.0900       H42-C14=1.0909       H43-C15=1.0924       H44-C15=1.1040       H45-C16=1.0901       
H46-C16=1.0902       H47-N19=1.0113       H48-C21=1.0799       H49-C22=1.0796       H50-C23=1.0787       H51-C24=1.0790       
 C  H  Rav=1.0888 sigma=0.0092  Rmin=1.0783  Rmax=1.1074    21
 C  C  Rav=1.4387 sigma=0.0639  Rmin=1.3779  Rmax=1.5340    20
 N  H  Rav=1.0113 sigma=0.0000  Rmin=1.0113  Rmax=1.0113     1
 N  C  Rav=1.4151 sigma=0.0359  Rmin=1.3728  Rmax=1.4548     8
 O  C  Rav=1.2106 sigma=0.0017  Rmin=1.2086  Rmax=1.2127     3
 F  C  Rav=1.3462 sigma=0.0000  Rmin=1.3462  Rmax=1.3462     1

 selected bond angles (degree)
 --------------------
C3-C2-F1=119.18                C7-C2-F1=118.93                C7-C2-C3=121.89                C4-C3-C2=118.40                
H30-C3-C2=119.93               H30-C3-C4=121.66               C5-C4-C3=121.20                H31-C4-C3=120.63               
H31-C4-C5=118.17               C6-C5-C4=118.96                C8-C5-C4=117.00                C8-C5-C6=124.04                
C7-C6-C5=120.51                H32-C6-C5=120.87               H32-C6-C7=118.61               C6-C7-C2=119.03                
H33-C7-C2=119.63               H33-C7-C6=121.34               C9-C8-C5=117.27                O29-C8-C5=120.62               
O29-C8-C9=122.08               C10-C9-C8=110.19               C14-C9-C8=111.34               C14-C9-C10=108.22              
H34-C9-C8=108.91               H34-C9-C10=109.09              H34-C9-C14=109.05              C11-C10-C9=109.49              
H35-C10-C9=108.93              H35-C10-C11=108.81             H36-C10-C9=111.13              H36-C10-C11=109.89             
H36-C10-H35=108.55             

 selected dihedral angles (degree)
 ---------------------------------
C4-C3-C2-F1=179.95            C4-C3-C2-C7=359.69            H30-C3-C2-F1=359.85           H30-C3-C2-C7=179.59           
C5-C4-C3-C2=359.58            C5-C4-C3-H30=179.68           H31-C4-C3-C2=179.74           H31-C4-C3-H30=359.84          
C6-C5-C4-C3=  0.88            C6-C5-C4-H31=180.73           C8-C5-C4-C3=180.35            C8-C5-C4-H31=  0.19           
C7-C6-C5-C4=359.37            C7-C6-C5-C8=179.95            H32-C6-C5-C4=178.21           H32-C6-C5-C8=358.79           
C6-C7-C2-F1=180.30            C6-C7-C2-C3=  0.56            H33-C7-C2-F1=  0.43           H33-C7-C2-C3=180.68           
C2-C7-C6-C5=359.93            C2-C7-C6-H32=181.06           H33-C7-C6-C5=179.80           H33-C7-C6-H32=  0.93          
C9-C8-C5-C4=160.16            C9-C8-C5-C6=339.59            O29-C8-C5-C4=342.13           O29-C8-C5-C6=161.56           
C10-C9-C8-C5=294.47           C10-C9-C8-O29=112.46          C14-C9-C8-C5=174.37           C14-C9-C8-O29=352.37          
H34-C9-C8-C5= 54.09           H34-C9-C8-O29=232.09          C11-C10-C9-C8=181.83          C11-C10-C9-C14=303.79         
C11-C10-C9-H34= 62.31         H35-C10-C9-C8=300.71          H35-C10-C9-C14= 62.67         H35-C10-C9-H34=181.19         
H36-C10-C9-C8= 60.25          H36-C10-C9-C14=182.21         H36-C10-C9-H34=300.73         
           -------------------------------------------------
          |                Final Singlepoint                |
           -------------------------------------------------

          ...................................................
          :                      SETUP                      :
          :.................................................:
          :  # basis functions                 138          :
          :  # atomic orbitals                 138          :
          :  # shells                           80          :
          :  # electrons                       150          :
          :  max. iterations                   250          :
          :  Hamiltonian                  GFN2-xTB          :
          :  restarted?                      false          :
          :  GBSA solvation                  false          :
          :  PC potential                    false          :
          :  electronic temp.          300.0000000     K    :
          :  accuracy                    1.0000000          :
          :  -> integral cutoff          0.2500000E+02      :
          :  -> integral neglect         0.1000000E-07      :
          :  -> SCF convergence          0.1000000E-05 Eh   :
          :  -> wf. convergence          0.1000000E-03 e    :
          :  Broyden damping             0.4000000          :
          :  net charge                          0          :
          :  unpaired electrons                  0          :
          ...................................................

 iter      E             dE          RMSdq      gap      omega  full diag
   1    -85.2505754 -0.852506E+02  0.666E-05    1.80       0.0  T
   2    -85.2505754 -0.419362E-10  0.424E-05    1.80     329.9  T
   3    -85.2505754 -0.298144E-10  0.256E-05    1.80     547.6  T

   *** convergence criteria satisfied after 3 iterations ***

         #    Occupation            Energy/Eh            Energy/eV
      -------------------------------------------------------------
         1        2.0000           -0.8255563             -22.4645
       ...           ...                  ...                  ...
        69        2.0000           -0.4283921             -11.6571
        70        2.0000           -0.4219897             -11.4829
        71        2.0000           -0.4211504             -11.4601
        72        2.0000           -0.4138336             -11.2610
        73        2.0000           -0.4078733             -11.0988
        74        2.0000           -0.3931465             -10.6981
        75        2.0000           -0.3523091              -9.5868 (HOMO)
        76                         -0.2860349              -7.7834 (LUMO)
        77                         -0.2814321              -7.6582
        78                         -0.2529743              -6.8838
        79                         -0.2503165              -6.8115
        80                         -0.2199663              -5.9856
       ...                                ...                  ...
       138                          0.7007212              19.0676
      -------------------------------------------------------------
                  HL-Gap            0.0662743 Eh            1.8034 eV
             Fermi-level           -0.3191720 Eh           -8.6851 eV

 SCC (total)                   0 d,  0 h,  0 min,  0.068 sec
 SCC setup                      ...        0 min,  0.000 sec (  0.647%)
 Dispersion                     ...        0 min,  0.000 sec (  0.701%)
 classical contributions        ...        0 min,  0.000 sec (  0.316%)
 integral evaluation            ...        0 min,  0.010 sec ( 14.160%)
 iterations                     ...        0 min,  0.010 sec ( 13.983%)
 molecular gradient             ...        0 min,  0.047 sec ( 69.851%)
 printout                       ...        0 min,  0.000 sec (  0.330%)

         :::::::::::::::::::::::::::::::::::::::::::::::::::::
         ::                     SUMMARY                     ::
         :::::::::::::::::::::::::::::::::::::::::::::::::::::
         :: total energy             -84.105481492731 Eh    ::
         :: gradient norm              0.000309698858 Eh/a0 ::
         :: HOMO-LUMO gap              1.803414840545 eV    ::
         ::.................................................::
         :: SCC energy               -85.250843949968 Eh    ::
         :: -> isotropic ES            0.113873717811 Eh    ::
         :: -> anisotropic ES          0.004903030403 Eh    ::
         :: -> anisotropic XC          0.028375140026 Eh    ::
         :: -> dispersion             -0.055917515239 Eh    ::
         :: repulsion energy           1.145362457237 Eh    ::
         :: add. restraining           0.000000000000 Eh    ::
         :: total charge               0.000000000000 e     ::
         :::::::::::::::::::::::::::::::::::::::::::::::::::::

           -------------------------------------------------
          |                Property Printout                |
           -------------------------------------------------

    * Orbital Energies and Occupations

         #    Occupation            Energy/Eh            Energy/eV
      -------------------------------------------------------------
         1        2.0000           -0.8255563             -22.4645
       ...           ...                  ...                  ...
        63        2.0000           -0.4450554             -12.1106
        64        2.0000           -0.4423262             -12.0363
        65        2.0000           -0.4350365             -11.8379
        66        2.0000           -0.4344460             -11.8219
        67        2.0000           -0.4328153             -11.7775
        68        2.0000           -0.4307212             -11.7205
        69        2.0000           -0.4283921             -11.6571
        70        2.0000           -0.4219897             -11.4829
        71        2.0000           -0.4211504             -11.4601
        72        2.0000           -0.4138336             -11.2610
        73        2.0000           -0.4078733             -11.0988
        74        2.0000           -0.3931465             -10.6981
        75        2.0000           -0.3523091              -9.5868 (HOMO)
        76                         -0.2860349              -7.7834 (LUMO)
        77                         -0.2814321              -7.6582
        78                         -0.2529743              -6.8838
        79                         -0.2503165              -6.8115
        80                         -0.2199663              -5.9856
        81                         -0.2091827              -5.6922
        82                         -0.1806040              -4.9145
        83                         -0.1083781              -2.9491
        84                         -0.0954357              -2.5969
        85                         -0.0343979              -0.9360
        86                          0.0084127               0.2289
       ...                                ...                  ...
       138                          0.7007212              19.0676
      -------------------------------------------------------------
                  HL-Gap            0.0662743 Eh            1.8034 eV
             Fermi-level           -0.3191720 Eh           -8.6851 eV

     #   Z          covCN         q      C6AA      α(0)
     1   9 F        0.787    -0.217    11.414     3.991
     2   6 C        2.788     0.177    24.201     8.058
     3   6 C        2.914    -0.046    29.143     8.852
     4   6 C        2.932    -0.017    28.444     8.747
     5   6 C        2.968    -0.017    28.441     8.748
     6   6 C        2.925    -0.027    28.688     8.784
     7   6 C        2.915    -0.048    29.191     8.860
     8   6 C        2.825     0.227    23.239     7.899
     9   6 C        3.858    -0.038    21.216     6.551
    10   6 C        3.811    -0.060    21.638     6.621
    11   6 C        3.768     0.012    20.406     6.438
    12   7 N        2.732    -0.174    24.755     7.390
    13   6 C        3.765     0.011    20.430     6.442
    14   6 C        3.811    -0.061    21.668     6.626
    15   6 C        3.757     0.009    20.475     6.451
    16   6 C        3.758    -0.002    20.666     6.481
    17   7 N        2.744    -0.110    23.393     7.183
    18   6 C        2.705     0.327    21.440     7.579
    19   7 N        2.702    -0.161    24.474     7.347
    20   6 C        2.916     0.076    26.302     8.410
    21   6 C        2.919    -0.052    29.286     8.874
    22   6 C        2.921    -0.019    28.489     8.753
    23   6 C        2.917    -0.034    28.843     8.807
    24   6 C        2.923    -0.016    28.415     8.742
    25   6 C        2.982    -0.037    28.919     8.821
    26   6 C        2.771     0.271    22.415     7.754
    27   8 O        0.859    -0.412    21.926     6.278
    28   8 O        0.860    -0.438    22.453     6.353
    29   8 O        0.858    -0.357    20.844     6.121
    30   1 H        0.926     0.066     2.130     2.282
[...]
     J. Chem. Phys., 2023, just accepted.
   
   for PTB refer to:
   * S. Grimme, M. Mueller, A. Hansen, J. Chem. Phys., 2023, 158, 124111.
     DOI: 10.1063/5.0137838
   
   with help from (in alphabetical order)
   P. Atkinson, C. Bannwarth, F. Bohle, G. Brandenburg, E. Caldeweyher
   M. Checinski, S. Dohm, S. Ehlert, S. Ehrlich, I. Gerasimov, C. Hölzer
   A. Katbashev, J. Kohn, J. Koopman, C. Lavigne, S. Lehtola, F. März, M. Müller,
   F. Musil, H. Neugebauer, J. Pisarek, C. Plett, P. Pracht, F. Pultar,
   J. Seibert, P. Shushkov, S. Spicher, M. Stahn, M. Steiner, T. Strunk,
   J. Stückrath, T. Rose, and J. Unsleber
   
 * started run on 2025/05/15 at 16:28:36.114     
   ID    Z sym.   atoms
    1    9 F      1
    2    6 C      2-11, 13-16, 18, 20-26
    3    7 N      12, 17, 19
    4    8 O      27-29
    5    1 H      30-51

           -------------------------------------------------
          |                Calculation Setup                |
           -------------------------------------------------

          program call               : xtb /rds/general/user/hgt20/home/callum/QDESCP/Ketanserin_rdkit_conf_6/Ketanserin_rdkit_conf_6.xyz --acc 1 --gfn 2 --chrg 0 --uhf 2 --etemp 300 --input /rds/general/user/hgt20/home/callum/QDESCP/Ketanserin_rdkit_conf_6/Ketanserin_rdkit_conf_6_xtb.inp -P 1
          hostname                   : login-c
          coordinate file            : /rds/general/user/hgt20/home/callum/QDESCP/Ketanserin_rdkit_conf_6/Ketanserin_rdkit_conf_6.xyz
          omp threads                :                     1


           -------------------------------------------------
          |                 G F N 2 - x T B                 |
           -------------------------------------------------

        Reference                      10.1021/acs.jctc.8b01176
      * Hamiltonian:
        H0-scaling (s, p, d)           1.850000    2.230000    2.230000
        zeta-weighting                 0.500000
      * Dispersion:
        s8                             2.700000
        a1                             0.520000
        a2                             5.000000
        s9                             5.000000
      * Repulsion:
        kExp                           1.500000    1.000000
        rExp                           1.000000
      * Coulomb:
        alpha                          2.000000
        third order                    shell-resolved
        anisotropic                    true
        a3                             3.000000
        a5                             4.000000
        cn-shift                       1.200000
        cn-exp                         4.000000
        max-rad                        5.000000


          ...................................................
          :                      SETUP                      :
          :.................................................:
          :  # basis functions                 138          :
          :  # atomic orbitals                 138          :
          :  # shells                           80          :
          :  # electrons                       150          :
          :  max. iterations                   250          :
          :  Hamiltonian                  GFN2-xTB          :
          :  restarted?                      false          :
          :  GBSA solvation                  false          :
          :  PC potential                    false          :
          :  electronic temp.          300.0000000     K    :
          :  accuracy                    1.0000000          :
          :  -> integral cutoff          0.2500000E+02      :
          :  -> integral neglect         0.1000000E-07      :
          :  -> SCF convergence          0.1000000E-05 Eh   :
          :  -> wf. convergence          0.1000000E-03 e    :
          :  Broyden damping             0.4000000          :
          :  net charge                          0          :
          :  unpaired electrons                  2          :
          ...................................................

 iter      E             dE          RMSdq      gap      omega  full diag
   1    -84.7993585 -0.847994E+02  0.415E+00    0.16       0.0  T
   2    -84.7336246  0.657339E-01  0.310E+00    0.71       1.0  T
   3    -84.7768397 -0.432151E-01  0.239E+00    1.91       1.0  T
   4    -84.9186896 -0.141850E+00  0.180E+00    0.94       1.0  T
   5    -85.0689197 -0.150230E+00  0.107E+00    0.47       1.0  T
   6    -84.9576908  0.111229E+00  0.107E+00    0.13       1.0  T
   7    -84.9994032 -0.417125E-01  0.116E+00    0.77       1.0  T
   8    -84.8949631  0.104440E+00  0.126E+00    0.73       1.0  T
   9    -84.9642334 -0.692704E-01  0.103E+00    0.57       1.0  T
  10    -85.1251739 -0.160940E+00  0.551E-01    0.21       1.0  T
  11    -85.1140732  0.111007E-01  0.584E-01    0.17       1.0  T
  12    -84.9659719  0.148101E+00  0.105E+00    0.11       1.0  T
  13    -85.1339770 -0.168005E+00  0.411E-01    0.15       1.0  T
  14    -85.1395061 -0.552909E-02  0.247E-01    0.08       1.0  T
  15    -85.1401054 -0.599310E-03  0.189E-01    0.08       1.0  T
  16    -85.1404545 -0.349064E-03  0.159E-01    0.07       1.0  T
  17    -85.1406193 -0.164861E-03  0.112E-01    0.07       1.0  T
  18    -85.1405686  0.507337E-04  0.717E-02    0.08       1.0  T
  19    -85.1389445  0.162408E-02  0.124E-01    0.05       1.0  T
  20    -85.1413432 -0.239864E-02  0.112E-02    0.06       1.3  T
  21    -85.1413540 -0.108066E-04  0.610E-03    0.06       2.3  T
  22    -85.1413506  0.331289E-05  0.548E-03    0.06       2.6  T
  23    -85.1413536 -0.298137E-05  0.288E-03    0.06       4.9  T
  24    -85.1413543 -0.719649E-06  0.210E-03    0.06       6.7  T
  25    -85.1413551 -0.702645E-06  0.568E-04    0.06      24.6  T
  26    -85.1413549  0.170880E-06  0.107E-03    0.06      13.0  T
  27    -85.1413550 -0.156433E-06  0.444E-04    0.06      31.5  T

   *** convergence criteria satisfied after 27 iterations ***

         #    Occupation            Energy/Eh            Energy/eV
      -------------------------------------------------------------
         1        2.0000           -0.8047438             -21.8982
       ...           ...                  ...                  ...
        70        2.0000           -0.4132755             -11.2458
        71        1.9999           -0.4082594             -11.1093
        72        1.9929           -0.4040197             -10.9939
        73        1.9691           -0.4026009             -10.9553
        74        1.8486           -0.4009649             -10.9108
        75        1.1894           -0.3979458             -10.8287
        76        0.7744           -0.2753586              -7.4929 (HOMO)
        77        0.2256           -0.2730147              -7.4291 (LUMO)
        78                         -0.2474458              -6.7333
        79                         -0.2312905              -6.2937
        80                         -0.2145867              -5.8392
        81                         -0.1944577              -5.2915
       ...                                ...                  ...
       138                          0.7060873              19.2136
      -------------------------------------------------------------
                  HL-Gap            0.0023439 Eh            0.0638 eV
             Fermi-level           -0.3367568 Eh           -9.1636 eV

 transition dipole moment (au) for excitation:          75          76
     X       Y       Z   
   0.1151   0.0517   0.0373  total (au/Debye):    0.132   0.334
 dE (eV)             :    3.336
 oscillator strength :  0.20009E-02

 SCC (total)                   0 d,  0 h,  0 min,  0.192 sec
 SCC setup                      ...        0 min,  0.001 sec (  0.264%)
 Dispersion                     ...        0 min,  0.001 sec (  0.377%)
 classical contributions        ...        0 min,  0.000 sec (  0.111%)
 integral evaluation            ...        0 min,  0.010 sec (  5.235%)
 iterations                     ...        0 min,  0.112 sec ( 58.386%)
 molecular gradient             ...        0 min,  0.060 sec ( 31.188%)
 printout                       ...        0 min,  0.009 sec (  4.434%)

         :::::::::::::::::::::::::::::::::::::::::::::::::::::
         ::                     SUMMARY                     ::
         :::::::::::::::::::::::::::::::::::::::::::::::::::::
         :: total energy             -83.996261158631 Eh    ::
         :: gradient norm              0.098215843040 Eh/a0 ::
         :: HOMO-LUMO gap              0.063781574982 eV    ::
         ::.................................................::
         :: SCC energy               -85.141623615868 Eh    ::
         :: -> isotropic ES            0.112486329020 Eh    ::
         :: -> anisotropic ES          0.004438305802 Eh    ::
         :: -> anisotropic XC          0.024345683756 Eh    ::
         :: -> dispersion             -0.055560101084 Eh    ::
         :: repulsion energy           1.145362457237 Eh    ::
         :: add. restraining           0.000000000000 Eh    ::
         :: total charge              -0.000000000001 e     ::
         :::::::::::::::::::::::::::::::::::::::::::::::::::::

           -------------------------------------------------
          |                Property Printout                |
           -------------------------------------------------

    * Orbital Energies and Occupations

         #    Occupation            Energy/Eh            Energy/eV
      -------------------------------------------------------------
         1        2.0000           -0.8047438             -21.8982
       ...           ...                  ...                  ...
        64        2.0000           -0.4514611             -12.2849
        65        2.0000           -0.4452922             -12.1170
        66        2.0000           -0.4335474             -11.7974
        67        2.0000           -0.4299123             -11.6985
        68        2.0000           -0.4256721             -11.5831
        69        2.0000           -0.4241338             -11.5413
        70        2.0000           -0.4132755             -11.2458
        71        1.9999           -0.4082594             -11.1093
        72        1.9929           -0.4040197             -10.9939
        73        1.9691           -0.4026009             -10.9553
        74        1.8486           -0.4009649             -10.9108
        75        1.1894           -0.3979458             -10.8287
        76        0.7744           -0.2753586              -7.4929 (HOMO)
        77        0.2256           -0.2730147              -7.4291 (LUMO)
        78                         -0.2474458              -6.7333
        79                         -0.2312905              -6.2937
        80                         -0.2145867              -5.8392
        81                         -0.1944577              -5.2915
        82                         -0.1753635              -4.7719
        83                         -0.0904184              -2.4604
        84                         -0.0873831              -2.3778
        85                         -0.0472117              -1.2847
        86                         -0.0025401              -0.0691
        87                          0.0244079               0.6642
       ...                                ...                  ...
       138                          0.7060873              19.2136
      -------------------------------------------------------------
                  HL-Gap            0.0023439 Eh            0.0638 eV
             Fermi-level           -0.3367568 Eh           -9.1636 eV

     #   Z          covCN         q      C6AA      α(0)
     1   9 F        0.787    -0.233    11.578     4.019
     2   6 C        2.788     0.154    24.641     8.131
     3   6 C        2.914    -0.050    29.241     8.867
     4   6 C        2.932    -0.031    28.785     8.799
     5   6 C        2.968    -0.018    28.452     8.749
     6   6 C        2.925    -0.048    29.199     8.861
     7   6 C        2.915    -0.050    29.239     8.867
     8   6 C        2.825     0.180    24.137     8.050
     9   6 C        3.858    -0.014    20.788     6.484
    10   6 C        3.811    -0.066    21.752     6.639
    11   6 C        3.768     0.000    20.609     6.470
    12   7 N        2.732    -0.097    23.135     7.144
    13   6 C        3.765     0.000    20.616     6.472
    14   6 C        3.811    -0.061    21.658     6.624
    15   6 C        3.757    -0.003    20.690     6.485
    16   6 C        3.758     0.002    20.603     6.471
    17   7 N        2.744    -0.118    23.566     7.210
    18   6 C        2.705     0.325    21.475     7.585
    19   7 N        2.702    -0.159    24.437     7.342
    20   6 C        2.916     0.072    26.387     8.423
    21   6 C        2.919    -0.055    29.358     8.885
    22   6 C        2.921    -0.029    28.723     8.789
    23   6 C        2.917    -0.031    28.777     8.797
    24   6 C        2.923    -0.024    28.596     8.769
    25   6 C        2.982    -0.043    29.057     8.842
    26   6 C        2.771     0.259    22.640     7.793
    27   8 O        0.859    -0.434    22.378     6.342
    28   8 O        0.860    -0.449    22.684     6.386
    29   8 O        0.858    -0.333    20.387     6.054
    30   1 H        0.926     0.059     2.207     2.323
    31   1 H        0.926     0.055     2.254     2.348
    32   1 H        0.926     0.034     2.530     2.487
    33   1 H        0.926     0.052     2.295     2.369
    34   1 H        0.924     0.052     2.300     2.372
    35   1 H        0.924     0.062     2.177     2.308
    36   1 H        0.924     0.056     2.243     2.342
    37   1 H        0.922     0.039     2.464     2.455
    38   1 H        0.924     0.064     2.152     2.294
    39   1 H        0.924     0.057     2.231     2.336
    40   1 H        0.922     0.035     2.524     2.484
    41   1 H        0.925     0.070     2.088     2.260
    42   1 H        0.924     0.058     2.227     2.334
    43   1 H        0.924     0.062     2.170     2.304
    44   1 H        0.923     0.047     2.357     2.401
    45   1 H        0.925     0.083     1.952     2.185
    46   1 H        0.925     0.081     1.971     2.195
    47   1 H        0.860     0.200     1.105     1.647
    48   1 H        0.926     0.037     2.493     2.469
    49   1 H        0.926     0.042     2.424     2.435
    50   1 H        0.926     0.044     2.392     2.419
    51   1 H        0.926     0.064     2.156     2.296

 Mol. C6AA /au·bohr⁶  :      30441.558179
 Mol. C8AA /au·bohr⁸  :     722562.854026
 Mol. α(0) /au        :        269.412240


Wiberg/Mayer (AO) data.
largest (>0.10) Wiberg bond orders for each atom

 ---------------------------------------------------------------------------
     #   Z sym  total        # sym  WBO       # sym  WBO       # sym  WBO
 ---------------------------------------------------------------------------
     1   9 F    1.066 --     2 C    0.951
     2   6 C    3.818 --     7 C    1.358     3 C    1.352     1 F    0.951
     3   6 C    3.978 --     4 C    1.489     2 C    1.352    30 H    0.960
     4   6 C    3.936 --     3 C    1.489     5 C    1.287    31 H    0.966
     5   6 C    3.866 --     6 C    1.306     4 C    1.287     8 C    1.054
     6   6 C    3.939 --     7 C    1.473     5 C    1.306    32 H    0.960
     7   6 C    3.977 --     6 C    1.473     2 C    1.358    33 H    0.967
     8   6 C    3.730 --    29 O    1.626     5 C    1.054     9 C    0.886
     9   6 C    3.938 --    14 C    0.998    10 C    0.983    34 H    0.947
                             8 C    0.886
    10   6 C    3.980 --    11 C    0.986     9 C    0.983    35 H    0.973
                            36 H    0.970
    11   6 C    3.968 --    12 N    1.010    10 C    0.986    38 H    0.966
                            37 H    0.950
    12   7 N    3.184 --    11 C    1.010    15 C    1.006    13 C    1.006
    13   6 C    3.969 --    12 N    1.006    14 C    0.990    39 H    0.969
                            40 H    0.952
    14   6 C    3.983 --     9 C    0.998    13 C    0.990    42 H    0.973
                            41 H    0.972
    15   6 C    3.964 --    12 N    1.006    16 C    0.980    43 H    0.969
                            44 H    0.953
    16   6 C    3.948 --    15 C    0.980    17 N    0.979    46 H    0.966
                            45 H    0.961
    17   7 N    3.521 --    18 C    1.116    26 C    1.078    16 C    0.979
                            28 O    0.130    27 O    0.127
    18   6 C    3.956 --    28 O    1.631    19 N    1.134    17 N    1.116
    19   7 N    3.464 --    18 C    1.134    20 C    1.123    47 H    0.927
                            28 O    0.133
    20   6 C    3.924 --    21 C    1.357    25 C    1.286    19 N    1.123
    21   6 C    3.943 --    22 C    1.441    20 C    1.357    48 H    0.967
    22   6 C    3.920 --    21 C    1.441    23 C    1.391    49 H    0.971
    23   6 C    3.952 --    24 C    1.467    22 C    1.391    50 H    0.970
    24   6 C    3.922 --    23 C    1.467    25 C    1.341    51 H    0.965
    25   6 C    3.939 --    24 C    1.341    20 C    1.286    26 C    1.067
    26   6 C    3.881 --    27 O    1.652    17 N    1.078    25 C    1.067
    27   8 O    1.945 --    26 C    1.652    17 N    0.127
    28   8 O    1.971 --    18 C    1.631    19 N    0.133    17 N    0.130
    29   8 O    1.955 --     8 C    1.626
    30   1 H    0.991 --     3 C    0.960
    31   1 H    0.997 --     4 C    0.966
    32   1 H    0.997 --     6 C    0.960
    33   1 H    0.996 --     7 C    0.967
    34   1 H    0.993 --     9 C    0.947
    35   1 H    0.995 --    10 C    0.973
    36   1 H    0.996 --    10 C    0.970
    37   1 H    0.984 --    11 C    0.950
    38   1 H    0.994 --    11 C    0.966
    39   1 H    0.995 --    13 C    0.969
    40   1 H    0.984 --    13 C    0.952
    41   1 H    0.994 --    14 C    0.972
    42   1 H    0.996 --    14 C    0.973
    43   1 H    0.996 --    15 C    0.969
    44   1 H    0.978 --    15 C    0.953
    45   1 H    0.993 --    16 C    0.961
    46   1 H    0.991 --    16 C    0.966
    47   1 H    0.959 --    19 N    0.927
    48   1 H    0.998 --    21 C    0.967
    49   1 H    0.997 --    22 C    0.971
    50   1 H    0.997 --    23 C    0.970
    51   1 H    0.995 --    24 C    0.965
 ---------------------------------------------------------------------------

Topologies differ in total number of bonds
Writing topology from bond orders to xtbtopo.mol

molecular dipole:
                 x           y           z       tot (Debye)
 q only:       -2.353      -0.074      -0.889
   full:       -2.788       0.088      -1.196       7.714
molecular quadrupole (traceless):
                xx          xy          yy          xz          yz          zz
 q only:       -8.361      -9.277      -5.648      -3.596      -6.140      14.009
  q+dip:       -6.218      -4.397      -6.516      -0.786      -8.396      12.734
   full:       -6.719      -4.350      -9.800      -3.165      -8.925      16.519


           -------------------------------------------------
          | TOTAL ENERGY              -83.996261158631 Eh   |
          | GRADIENT NORM               0.098215843040 Eh/α |
          | HOMO-LUMO GAP               0.063781574982 eV   |
           -------------------------------------------------

------------------------------------------------------------------------
 * finished run on 2025/05/15 at 16:28:36.323     
------------------------------------------------------------------------
 total:
 * wall-time:     0 d,  0 h,  0 min,  0.209 sec
 *  cpu-time:     0 d,  0 h,  0 min,  0.156 sec
 * ratio c/w:     0.747 speedup
 SCF:
 * wall-time:     0 d,  0 h,  0 min,  0.192 sec
 *  cpu-time:     0 d,  0 h,  0 min,  0.142 sec
 * ratio c/w:     0.736 speedup


