48
 energy: -69.044369824148 gnorm: 0.000421001411 xtb: 6.7.1 (edcfbbe)
O           -0.91678517836772        1.69125675949674       -2.37714390290135
C           -0.44297105731500        0.77552110033119       -1.41589069077907
C           -1.58107808379168        0.45259941400134       -0.42233567135810
N           -2.15687931032197        1.70212584233709        0.08133939927590
C           -3.45120883273936        1.40995018821011        0.68033967549326
C           -3.31732110471693        0.31293796101255        1.75766789636658
C           -1.29646271270039        2.31930429065857        1.07988382165876
C           -1.17204065681897        1.44230158692359        2.34899920608526
C            0.23722233858576        1.27313189989905        2.84058627835548
C            1.20271130803290        2.16916237375491        2.74776749556268
C           -1.82352617603842        0.08994898591158        2.01509073206226
C           -1.17007008871891       -0.46152661721820        0.74387296163821
C           -0.00118487212636       -0.49374534712510       -2.10141030463546
C           -0.75864378108956       -0.96858541204843       -3.14608092090305
C           -0.41029515600671       -2.17529449236709       -3.76533282106534
N            0.60435171651516       -2.90694491813017       -3.39744151427387
C            1.37824697091820       -2.46530518737349       -2.39039173300253
C            1.13606279388926       -1.24270335985536       -1.69895636128853
C            2.03064916295159       -0.85876807265954       -0.67610942936807
C            3.09510437483572       -1.65586309026425       -0.33340323523194
O            4.00339456889510       -1.37437178449306        0.64002642473802
C            3.85737252728967       -0.18477657043651        1.37573425998314
C            3.31352595344645       -2.87775091325495       -1.01084002464470
C            2.48124309592630       -3.26496383777652       -2.01396010841270
H           -1.53050382430031        2.28087604826144       -1.91537484699084
H            0.40219072631332        1.22983310429798       -0.87966128744213
H           -2.37085915697910       -0.02739730012922       -1.01252540425582
H           -4.13470914546847        1.10140967792296       -0.11442122356319
H           -3.83371055216525        2.33882180655938        1.10908757177330
H           -3.81695871277024        0.61306561667603        2.67983274631301
H           -3.76935358654770       -0.62104166554099        1.42024560947873
H           -0.31679349467356        2.48177956218832        0.63059706133994
H           -1.71821155127852        3.29878127088305        1.31877941348301
H           -1.74475250441616        1.89992010308037        3.16628748329347
H            0.43002433562275        0.33209952591619        3.34285144280056
H            1.05967097394103        3.12874615386452        2.28006946326142
H            2.18395113860754        1.98746492677631        3.15315333174712
H           -1.68580418292463       -0.61040277923132        2.84404073479482
H           -0.08709266340172       -0.47153224040612        0.86937207987680
H           -1.49123266479545       -1.48695872821132        0.55674773205613
H           -1.61128363491260       -0.40487540786004       -3.48982972679214
H           -0.99919731966348       -2.55999949892242       -4.58837370929662
H            1.88181140089376        0.08273968990427       -0.17271734890785
H            4.67253571252233       -0.18249322422173        2.09763621928221
H            3.94063450377719        0.69866481489976        0.73420391412069
H            2.90079743499782       -0.15666396773365        1.90759227661729
H            4.16054918106605       -3.47394102520244       -0.71010503807638
H            2.63697978601829       -4.18613726330558       -2.55249992826477
