29
 energy: -55.284559098880 gnorm: 0.000341022768 xtb: 6.7.1 (edcfbbe)
O           -3.04262749030962        2.74081065785483        0.88952058484994
C           -2.56525793047794        1.47886125614101        1.26232856468911
C           -2.32289891766479        0.57690852798760        0.05330674405572
C           -1.91063375325277       -0.86270142435113        0.42060587256604
C           -1.03303345253622       -1.25446223814134       -0.78898634218122
C           -0.38955230974821        0.10023921922204       -1.15393264898861
N            0.89137358545704        0.22842614985482       -0.48834026899767
C            1.35833366233300        1.18412059489521        0.33876378357640
N            2.58096080560676        0.89899699654540        0.70327025586497
C            2.84557358403926       -0.27151934259811        0.06462628887128
C            4.14907177827415       -0.97197892060210        0.18994020944715
N            5.01115843063184       -0.27976444929049        0.96510537914687
O            4.40470102561538       -2.03019479475514       -0.33738492347273
N            1.83493090771562       -0.69732493665961       -0.66365777578045
O           -1.25078940650616        1.11079400644179       -0.73522244317358
O           -1.88957062780357       -1.72732850428676       -1.79455379673392
O           -2.97485672807634       -1.71977748278285        0.64356434957583
H           -2.45292895197150        3.09817044778354        0.21473697499707
H           -3.33074155114767        1.02684221865156        1.89632296671073
H           -1.63013554177152        1.56595141527204        1.83671683487625
H           -3.22868869630625        0.55327972521744       -0.56872881598324
H           -1.30712646203383       -0.85423235365165        1.33480848957387
H           -0.26264963913995       -1.99057182092966       -0.53626107737975
H           -0.21915151917232        0.18633641151878       -2.23790261616738
H            0.79415574440926        2.04379626131845        0.63220030266558
H            4.72184937984235        0.59233499530952        1.37394471592483
H            5.93310245730309       -0.64484539048877        1.13238421834642
H           -1.37024350803076       -2.12055982666149       -2.50333875584887
H           -3.34462487527822       -1.96080739881513       -0.21853707103053
