33
 energy: -50.365209310573 gnorm: 0.000823285507 xtb: 6.7.1 (edcfbbe)
C           -3.04858123392187       -1.77756927415001       -0.15226980258880
N           -2.14072073912300       -0.74523244927842        0.27588233732956
C           -2.22356081764985        0.57636766607187       -0.01160359606404
N           -1.27023475116960        1.34074395459732        0.59539264322876
C           -0.99652871108771        2.67934608376529        0.14114969537534
C           -0.18189670736128        2.72641987767749       -1.15171930474412
S            1.53016833911825        2.12120892581803       -0.97019666410431
C            1.32872161538524        0.28379252022692       -1.09471317498089
C            1.66749349507408       -0.38983038291679        0.17842439573581
C            2.91555224061427       -0.68792133726459        0.66994464909659
C            4.26815972259131       -0.45082290662262        0.11112657186592
N            2.69623084423447       -1.27097895322688        1.88955181355445
C            1.36059196997873       -1.30110940114223        2.09145510153962
N            0.71631155272750       -0.77746526643517        1.08467777767278
N           -3.10138854383730        1.18062429245231       -0.74076238120348
C           -4.12045386426432        0.73119062615957       -1.39417492419088
N           -5.05133583519387        0.49505843904949       -2.03620590692961
H           -2.55328179430161       -2.46844033621595       -0.84097664303475
H           -3.40716582424972       -2.34138618238033        0.71225092307352
H           -3.90323859412042       -1.33462035662291       -0.65974252735568
H           -1.28963119084392       -1.03905816437992        0.74571328921866
H           -0.49030686565725        0.82325514733243        0.98502911596524
H           -1.95599754429724        3.17080627524604       -0.04174041347581
H           -0.46199749453243        3.20709681118598        0.93426222691169
H           -0.07301491274817        3.75768518147185       -1.48501781596610
H           -0.66620630559430        2.14695730734125       -1.93697230019053
H            0.30052264142000        0.08969207336868       -1.38799949828769
H            2.00813036066332       -0.03128483816623       -1.88654368506125
H            4.53548455654695        0.60199660700349        0.20303653639411
H            5.01076513777754       -1.04881141010589        0.63459097836868
H            4.28981198146908       -0.70605214119729       -0.94629859427992
H            3.40969389577515       -1.60762963653257        2.51546764819393
H            0.89770337657748       -1.70552875214729        2.96868152891649
