----- Optimization -----
      -----------------------------------------------------------      
     |                   =====================                   |     
     |                           x T B                           |     
     |                   =====================                   |     
     |                         S. Grimme                         |     
     |          Mulliken Center for Theoretical Chemistry        |     
     |                    University of Bonn                     |     
      -----------------------------------------------------------      

   * xtb version 6.7.1 (edcfbbe) compiled by 'conda@3ef47c1a292c' on 2024-11-25

   xtb is free software: you can redistribute it and/or modify it under
   the terms of the GNU Lesser General Public License as published by
   the Free Software Foundation, either version 3 of the License, or
   (at your option) any later version.
   
   xtb is distributed in the hope that it will be useful,
   but WITHOUT ANY WARRANTY; without even the implied warranty of
   MERCHANTABILITY or FITNESS FOR A PARTICULAR PURPOSE.  See the
   GNU Lesser General Public License for more details.
   
   Cite this work as:
   * C. Bannwarth, E. Caldeweyher, S. Ehlert, A. Hansen, P. Pracht,
     J. Seibert, S. Spicher, S. Grimme, WIREs Comput. Mol. Sci., 2020, 11,
     e01493. DOI: 10.1002/wcms.1493
   
   for GFN2-xTB:
   * C. Bannwarth, S. Ehlert and S. Grimme., J. Chem. Theory Comput., 2019,
     15, 1652-1671. DOI: 10.1021/acs.jctc.8b01176
   for GFN1-xTB:
   * S. Grimme, C. Bannwarth, P. Shushkov, J. Chem. Theory Comput., 2017,
     13, 1989-2009. DOI: 10.1021/acs.jctc.7b00118
   for GFN0-xTB:
   * P. Pracht, E. Caldeweyher, S. Ehlert, S. Grimme, ChemRxiv, 2019, preprint.
     DOI: 10.26434/chemrxiv.8326202.v1
   for GFN-FF:
   * S. Spicher and S. Grimme, Angew. Chem. Int. Ed., 2020, 59, 15665-15673.
     DOI: 10.1002/anie.202004239
   
   for ALPB and GBSA implicit solvation:
   * S. Ehlert, M. Stahn, S. Spicher, S. Grimme, J. Chem. Theory Comput.,
     2021, 17, 4250-4261. DOI: 10.1021/acs.jctc.1c00471
   
   for ddCOSMO and CPCM-X implicit solvation:
   * M. Stahn, S. Ehlert, S. Grimme, J. Phys. Chem. A,
     2023, XX, XXXX-XXXX. DOI: 10.1021/acs.jpca.3c04382
   
   for DFT-D4:
   * E. Caldeweyher, C. Bannwarth and S. Grimme, J. Chem. Phys., 2017,
     147, 034112. DOI: 10.1063/1.4993215
   * E. Caldeweyher, S. Ehlert, A. Hansen, H. Neugebauer, S. Spicher,
     C. Bannwarth and S. Grimme, J. Chem. Phys., 2019, 150, 154122.
     DOI: 10.1063/1.5090222
   * E. Caldeweyher, J.-M. Mewes, S. Ehlert and S. Grimme, Phys. Chem. Chem. Phys.
     2020, 22, 8499-8512. DOI: 10.1039/D0CP00502A
   
   for sTDA-xTB:
   * S. Grimme and C. Bannwarth, J. Chem. Phys., 2016, 145, 054103.
     DOI: 10.1063/1.4959605
   
   in the mass-spec context:
   * V. Asgeirsson, C. Bauer and S. Grimme, Chem. Sci., 2017, 8, 4879.
     DOI: 10.1039/c7sc00601b
   * J. Koopman and S. Grimme, ACS Omega 2019, 4, 12, 15120-15133.
     DOI: 10.1021/acsomega.9b02011
   
   for metadynamics refer to:
   * S. Grimme, J. Chem. Theory Comput., 2019, 155, 2847-2862
     DOI: 10.1021/acs.jctc.9b00143
   
   for SPH calculations refer to:
   * S. Spicher and S. Grimme, J. Chem. Theory Comput., 2021, 17, 1701-1714
     DOI: 10.1021/acs.jctc.0c01306
   
   for ONIOM refer to:
   * C. Plett, A. Katbashev, S. Ehlert, S. Grimme, M. Bursch,
     Phys. Chem. Chem. Phys., 2023, 25, 17860-17868. DOI: 10.1039/D3CP02178E
   
   for DIPRO refer to:
   * J. Kohn, N. Gildemeister, S. Grimme, D. Fazzi, A. Hansen,
     J. Chem. Phys., 2023, just accepted.
   
   for PTB refer to:
   * S. Grimme, M. Mueller, A. Hansen, J. Chem. Phys., 2023, 158, 124111.
     DOI: 10.1063/5.0137838
   
   with help from (in alphabetical order)
   P. Atkinson, C. Bannwarth, F. Bohle, G. Brandenburg, E. Caldeweyher
   M. Checinski, S. Dohm, S. Ehlert, S. Ehrlich, I. Gerasimov, C. Hölzer
   A. Katbashev, J. Kohn, J. Koopman, C. Lavigne, S. Lehtola, F. März, M. Müller,
   F. Musil, H. Neugebauer, J. Pisarek, C. Plett, P. Pracht, F. Pultar,
   J. Seibert, P. Shushkov, S. Spicher, M. Stahn, M. Steiner, T. Strunk,
   J. Stückrath, T. Rose, and J. Unsleber
   
 * started run on 2025/05/15 at 16:20:22.789     
   ID    Z sym.   atoms
    1    6 C      1, 3, 5, 6, 8-11, 13, 16
    2    7 N      2, 4, 12, 14, 15, 17
    3   16 S      7
    4    1 H      18-33

           -------------------------------------------------
          |                Calculation Setup                |
           -------------------------------------------------

          program call               : xtb /rds/general/user/hgt20/home/callum/QDESCP/Cimetadine_rdkit_conf_3/Cimetadine_rdkit_conf_3.xyz --opt normal --acc 1 --gfn 2 --chrg 0 --uhf 0 -P 1
          hostname                   : login-c
          coordinate file            : /rds/general/user/hgt20/home/callum/QDESCP/Cimetadine_rdkit_conf_3/Cimetadine_rdkit_conf_3.xyz
          omp threads                :                     1


           -------------------------------------------------
          |                 G F N 2 - x T B                 |
           -------------------------------------------------

        Reference                      10.1021/acs.jctc.8b01176
      * Hamiltonian:
        H0-scaling (s, p, d)           1.850000    2.230000    2.230000
        zeta-weighting                 0.500000
      * Dispersion:
        s8                             2.700000
        a1                             0.520000
        a2                             5.000000
        s9                             5.000000
      * Repulsion:
        kExp                           1.500000    1.000000
        rExp                           1.000000
      * Coulomb:
        alpha                          2.000000
        third order                    shell-resolved
        anisotropic                    true
        a3                             3.000000
        a5                             4.000000
        cn-shift                       1.200000
        cn-exp                         4.000000
        max-rad                        5.000000


          ...................................................
          :                      SETUP                      :
          :.................................................:
          :  # basis functions                  90          :
          :  # atomic orbitals                  89          :
          :  # shells                           51          :
          :  # electrons                        92          :
          :  max. iterations                   250          :
          :  Hamiltonian                  GFN2-xTB          :
          :  restarted?                      false          :
          :  GBSA solvation                  false          :
          :  PC potential                    false          :
          :  electronic temp.          300.0000000     K    :
          :  accuracy                    1.0000000          :
          :  -> integral cutoff          0.2500000E+02      :
          :  -> integral neglect         0.1000000E-07      :
          :  -> SCF convergence          0.1000000E-05 Eh   :
          :  -> wf. convergence          0.1000000E-03 e    :
          :  Broyden damping             0.4000000          :
          :  net charge                          0          :
          :  unpaired electrons                  0          :
          ...................................................

 iter      E             dE          RMSdq      gap      omega  full diag
   1    -50.9003744 -0.509004E+02  0.432E+00    3.82       0.0  T
   2    -50.9949997 -0.946254E-01  0.270E+00    3.69       1.0  T
   3    -50.9926958  0.230397E-02  0.156E+00    3.58       1.0  T
   4    -51.0111710 -0.184753E-01  0.724E-01    3.44       1.0  T
   5    -51.0224306 -0.112596E-01  0.187E-01    3.46       1.0  T
   6    -51.0224677 -0.371056E-04  0.104E-01    3.47       1.0  T
   7    -51.0226053 -0.137619E-03  0.348E-02    3.47       1.0  T
   8    -51.0226206 -0.153099E-04  0.138E-02    3.47       1.3  T
   9    -51.0226219 -0.130334E-05  0.530E-03    3.47       3.3  T
  10    -51.0226220 -0.593455E-07  0.200E-03    3.47       8.7  T
  11    -51.0226220 -0.342194E-07  0.839E-04    3.47      20.8  T
  12    -51.0226220 -0.774879E-08  0.347E-04    3.47      50.2  T

   *** convergence criteria satisfied after 12 iterations ***

         #    Occupation            Energy/Eh            Energy/eV
      -------------------------------------------------------------
         1        2.0000           -0.7170595             -19.5122
       ...           ...                  ...                  ...
        40        2.0000           -0.4160458             -11.3212
        41        2.0000           -0.3994368             -10.8692
        42        2.0000           -0.3861989             -10.5090
        43        2.0000           -0.3829822             -10.4215
        44        2.0000           -0.3674411              -9.9986
        45        2.0000           -0.3645198              -9.9191
        46        2.0000           -0.3599066              -9.7936 (HOMO)
        47                         -0.2324091              -6.3242 (LUMO)
        48                         -0.2208747              -6.0103
        49                         -0.2083611              -5.6698
        50                         -0.1948660              -5.3026
        51                         -0.1434035              -3.9022
       ...                                ...                  ...
        89                          1.1773329              32.0369
      -------------------------------------------------------------
                  HL-Gap            0.1274974 Eh            3.4694 eV
             Fermi-level           -0.2961578 Eh           -8.0589 eV

 SCC (total)                   0 d,  0 h,  0 min,  0.039 sec
 SCC setup                      ...        0 min,  0.000 sec (  0.669%)
 Dispersion                     ...        0 min,  0.000 sec (  0.727%)
 classical contributions        ...        0 min,  0.000 sec (  0.237%)
 integral evaluation            ...        0 min,  0.006 sec ( 14.240%)
 iterations                     ...        0 min,  0.017 sec ( 44.283%)
 molecular gradient             ...        0 min,  0.015 sec ( 39.513%)
 printout                       ...        0 min,  0.000 sec (  0.315%)

         :::::::::::::::::::::::::::::::::::::::::::::::::::::
         ::                     SUMMARY                     ::
         :::::::::::::::::::::::::::::::::::::::::::::::::::::
         :: total energy             -50.349584449258 Eh    ::
         :: gradient norm              0.063490480123 Eh/a0 ::
         :: HOMO-LUMO gap              3.469381990083 eV    ::
         ::.................................................::
         :: SCC energy               -51.022368313268 Eh    ::
         :: -> isotropic ES            0.058943720041 Eh    ::
         :: -> anisotropic ES          0.007523855055 Eh    ::
         :: -> anisotropic XC          0.044040061982 Eh    ::
         :: -> dispersion             -0.033343627971 Eh    ::
         :: repulsion energy           0.672783864010 Eh    ::
         :: add. restraining           0.000000000000 Eh    ::
         :: total charge              -0.000000000000 e     ::
         :::::::::::::::::::::::::::::::::::::::::::::::::::::

      ----------------------------------------------------------- 
     |                   =====================                   |
     |                        A N C O P T                        |
     |                   =====================                   |
     |               Approximate Normal Coordinate               |
     |                Rational Function Optimizer                |
      ----------------------------------------------------------- 
      ----------------------------------------------------------- 
     |                   =====================                   |
     |                        A N C O P T                        |
     |                   =====================                   |
     |               Approximate Normal Coordinate               |
     |                Rational Function Optimizer                |
      ----------------------------------------------------------- 

          ...................................................
          :                      SETUP                      :
          :.................................................:
          :   optimization level            normal          :
          :   max. optcycles                   200          :
          :   ANC micro-cycles                  20          :
          :   degrees of freedom                93          :
          :.................................................:
          :   RF solver                   davidson          :
          :   write xtbopt.log                true          :
          :   linear?                        false          :
          :   energy convergence         0.5000000E-05 Eh   :
          :   grad. convergence          0.1000000E-02 Eh/α :
          :   maxmium RF displ.          1.0000000          :
          :   Hlow (freq-cutoff)         0.1000000E-01      :
          :   Hmax (freq-cutoff)         5.0000000          :
          :   S6 in model hess.         20.0000000          :
          ...................................................

generating ANC from exact Hessian ...
Using Lindh-Hessian (1995)
 Shifting diagonal of input Hessian by    9.6297247501630334E-003
 Lowest  eigenvalues of input Hessian
    0.000000    0.000000    0.000000    0.000000    0.000000    0.000000
    0.010000    0.010223    0.010878    0.011140    0.011955    0.012399
    0.012775    0.015603    0.016300    0.017251    0.018602    0.019490
 Highest eigenvalues
    1.868220    2.028164    2.057300    2.121328    2.275457    2.734105


........................................................................
.............................. CYCLE    1 ..............................
........................................................................

 iter      E             dE          RMSdq      gap      omega  full diag
   1    -51.0226220 -0.510226E+02  0.109E-04    3.47       0.0  T
   2    -51.0226220 -0.861817E-10  0.593E-05    3.47     293.7  T
   3    -51.0226220 -0.121219E-10  0.365E-05    3.47     477.4  T
     SCC iter.                  ...        0 min,  0.005 sec
     gradient                   ...        0 min,  0.016 sec
 * total energy  :   -50.3495844 Eh     change       -0.7097398E-09 Eh
   gradient norm :     0.0634897 Eh/α   predicted     0.0000000E+00 (-100.00%)
   displ. norm   :     0.3640357 α      lambda       -0.1119468E-01
   maximum displ.:     0.1192270 α      in ANC's #4, #22, #11, ...

........................................................................
.............................. CYCLE    2 ..............................
........................................................................

 iter      E             dE          RMSdq      gap      omega  full diag
   1    -51.0471538 -0.510472E+02  0.415E-01    3.59       0.0  T
   2    -51.0473446 -0.190748E-03  0.238E-01    3.54       1.0  T
   3    -51.0469476  0.397013E-03  0.137E-01    3.54       1.0  T
   4    -51.0474465 -0.498964E-03  0.213E-02    3.53       1.0  T
   5    -51.0474553 -0.878389E-05  0.685E-03    3.53       2.5  T
   6    -51.0474555 -0.172480E-06  0.333E-03    3.53       5.2  T
   7    -51.0474556 -0.136058E-06  0.118E-03    3.53      14.8  T
   8    -51.0474556 -0.181383E-07  0.442E-04    3.53      39.4  T
   9    -51.0474556 -0.761354E-09  0.173E-04    3.53     100.4  T
     SCC iter.                  ...        0 min,  0.013 sec
     gradient                   ...        0 min,  0.015 sec
 * total energy  :   -50.3556287 Eh     change       -0.6044270E-02 Eh
   gradient norm :     0.0420460 Eh/α   predicted    -0.6339746E-02 (   4.89%)
   displ. norm   :     0.5309410 α      lambda       -0.1183504E-01
   maximum displ.:     0.1607695 α      in ANC's #4, #10, #6, ...

........................................................................
.............................. CYCLE    3 ..............................
........................................................................

 iter      E             dE          RMSdq      gap      omega  full diag
   1    -51.0922624 -0.510923E+02  0.614E-01    3.38       0.0  T
   2    -51.0925684 -0.305944E-03  0.348E-01    3.33       1.0  T
   3    -51.0918559  0.712475E-03  0.208E-01    3.35       1.0  T
   4    -51.0928557 -0.999821E-03  0.211E-02    3.34       1.0  T
   5    -51.0928612 -0.552310E-05  0.879E-03    3.34       2.0  T
   6    -51.0928613 -0.277040E-07  0.363E-03    3.35       4.8  T
   7    -51.0928615 -0.222238E-06  0.118E-03    3.35      14.7  T
   8    -51.0928615 -0.150656E-07  0.455E-04    3.35      38.2  T
   9    -51.0928615 -0.131714E-08  0.187E-04    3.35      93.2  T
     SCC iter.                  ...        0 min,  0.047 sec
     gradient                   ...        0 min,  0.015 sec
 * total energy  :   -50.3546706 Eh     change        0.9580764E-03 Eh
   gradient norm :     0.0734863 Eh/α   predicted    -0.7585659E-02 (-891.76%)
   displ. norm   :     0.2068064 α      lambda       -0.6946595E-02
   maximum displ.:     0.0739491 α      in ANC's #20, #4, #19, ...

........................................................................
.............................. CYCLE    4 ..............................
........................................................................

 iter      E             dE          RMSdq      gap      omega  full diag
   1    -51.0734839 -0.510735E+02  0.240E-01    3.38       0.0  T
   2    -51.0735197 -0.358405E-04  0.141E-01    3.37       1.0  T
   3    -51.0733680  0.151754E-03  0.925E-02    3.34       1.0  T
   4    -51.0735766 -0.208651E-03  0.101E-02    3.34       1.7  T
   5    -51.0735777 -0.105070E-05  0.498E-03    3.34       3.5  T
   6    -51.0735778 -0.170320E-06  0.197E-03    3.34       8.8  T
   7    -51.0735779 -0.413237E-07  0.757E-04    3.34      23.0  T
   8    -51.0735779 -0.481809E-08  0.336E-04    3.34      51.7  T
     SCC iter.                  ...        0 min,  0.011 sec
     gradient                   ...        0 min,  0.015 sec
 * total energy  :   -50.3592568 Eh     change       -0.4586191E-02 Eh
   gradient norm :     0.0189732 Eh/α   predicted    -0.3621929E-02 ( -21.03%)
   displ. norm   :     0.2450210 α      lambda       -0.1976131E-02
   maximum displ.:     0.1487592 α      in ANC's #4, #6, #3, ...

........................................................................
.............................. CYCLE    5 ..............................
........................................................................

 iter      E             dE          RMSdq      gap      omega  full diag
   1    -51.0635332 -0.510635E+02  0.260E-01    3.37       0.0  T
   2    -51.0635902 -0.570574E-04  0.147E-01    3.33       1.0  T
   3    -51.0635663  0.239164E-04  0.364E-02    3.30       1.0  T
   4    -51.0636022 -0.358717E-04  0.116E-02    3.30       1.5  T
   5    -51.0636049 -0.274781E-05  0.395E-03    3.30       4.4  T
   6    -51.0636050 -0.757678E-07  0.195E-03    3.30       8.9  T
   7    -51.0636050 -0.408942E-07  0.607E-04    3.30      28.7  T
   8    -51.0636050 -0.334064E-08  0.320E-04    3.30      54.4  T
     SCC iter.                  ...        0 min,  0.040 sec
     gradient                   ...        0 min,  0.015 sec
 * total energy  :   -50.3602202 Eh     change       -0.9633383E-03 Eh
   gradient norm :     0.0206954 Eh/α   predicted    -0.1047392E-02 (   8.73%)
   displ. norm   :     0.1325117 α      lambda       -0.5331873E-03
   maximum displ.:     0.0781974 α      in ANC's #3, #1, #11, ...

........................................................................
.............................. CYCLE    6 ..............................
........................................................................

 iter      E             dE          RMSdq      gap      omega  full diag
   1    -51.0668073 -0.510668E+02  0.776E-02    3.29       0.0  T
   2    -51.0668135 -0.620644E-05  0.432E-02    3.27       1.0  T
   3    -51.0668031  0.103456E-04  0.245E-02    3.27       1.0  T
   4    -51.0668165 -0.134158E-04  0.443E-03    3.27       3.9  T
   5    -51.0668169 -0.376760E-06  0.143E-03    3.27      12.2  T
   6    -51.0668169 -0.499262E-08  0.527E-04    3.27      33.1  T
   7    -51.0668169 -0.245173E-08  0.185E-04    3.27      94.1  T
     SCC iter.                  ...        0 min,  0.010 sec
     gradient                   ...        0 min,  0.015 sec
 * total energy  :   -50.3606532 Eh     change       -0.4330562E-03 Eh
   gradient norm :     0.0134225 Eh/α   predicted    -0.2712834E-03 ( -37.36%)
   displ. norm   :     0.3428651 α      lambda       -0.8218870E-03
   maximum displ.:     0.2104444 α      in ANC's #3, #4, #1, ...

........................................................................
.............................. CYCLE    7 ..............................
........................................................................

 iter      E             dE          RMSdq      gap      omega  full diag
   1    -51.0698572 -0.510699E+02  0.173E-01    3.26       0.0  T
   2    -51.0698820 -0.248196E-04  0.971E-02    3.23       1.0  T
   3    -51.0698542  0.278386E-04  0.385E-02    3.22       1.0  T
   4    -51.0698894 -0.352390E-04  0.879E-03    3.21       2.0  T
   5    -51.0698908 -0.134535E-05  0.312E-03    3.21       5.6  T
   6    -51.0698908 -0.469932E-07  0.115E-03    3.21      15.2  T
   7    -51.0698908 -0.122770E-07  0.423E-04    3.21      41.2  T
   8    -51.0698908 -0.241506E-09  0.184E-04    3.21      94.5  T
     SCC iter.                  ...        0 min,  0.046 sec
     gradient                   ...        0 min,  0.016 sec
 * total energy  :   -50.3612029 Eh     change       -0.5497036E-03 Eh
   gradient norm :     0.0100706 Eh/α   predicted    -0.4592546E-03 ( -16.45%)
   displ. norm   :     0.2467355 α      lambda       -0.3276488E-03
   maximum displ.:     0.1698167 α      in ANC's #3, #4, #1, ...

........................................................................
.............................. CYCLE    8 ..............................
........................................................................

 iter      E             dE          RMSdq      gap      omega  full diag
   1    -51.0731784 -0.510732E+02  0.103E-01    3.22       0.0  T
   2    -51.0731825 -0.413478E-05  0.576E-02    3.22       1.0  T
   3    -51.0731823  0.201353E-06  0.942E-03    3.21       1.8  T
   4    -51.0731839 -0.164618E-05  0.399E-03    3.21       4.4  T
   5    -51.0731841 -0.170680E-06  0.119E-03    3.21      14.6  T
   6    -51.0731841 -0.159255E-07  0.426E-04    3.21      40.8  T
   7    -51.0731841 -0.864638E-09  0.220E-04    3.21      79.2  T
     SCC iter.                  ...        0 min,  0.010 sec
     gradient                   ...        0 min,  0.015 sec
 * total energy  :   -50.3614489 Eh     change       -0.2459521E-03 Eh
   gradient norm :     0.0047155 Eh/α   predicted    -0.1738026E-03 ( -29.33%)
   displ. norm   :     0.3096944 α      lambda       -0.2782693E-03
   maximum displ.:     0.2161964 α      in ANC's #3, #4, #1, ...

........................................................................
.............................. CYCLE    9 ..............................
........................................................................

 iter      E             dE          RMSdq      gap      omega  full diag
   1    -51.0731800 -0.510732E+02  0.129E-01    3.23       0.0  T
   2    -51.0731874 -0.734092E-05  0.717E-02    3.23       1.0  T
   3    -51.0731849  0.241513E-05  0.145E-02    3.23       1.2  T
   4    -51.0731898 -0.487227E-05  0.557E-03    3.23       3.1  T
   5    -51.0731902 -0.397843E-06  0.194E-03    3.23       9.0  T
   6    -51.0731902 -0.262459E-07  0.649E-04    3.23      26.8  T
   7    -51.0731902 -0.546164E-08  0.326E-04    3.23      53.4  T
     SCC iter.                  ...        0 min,  0.010 sec
     gradient                   ...        0 min,  0.048 sec
 * total energy  :   -50.3616542 Eh     change       -0.2052710E-03 Eh
   gradient norm :     0.0062364 Eh/α   predicted    -0.1524794E-03 ( -25.72%)
   displ. norm   :     0.3122589 α      lambda       -0.2721886E-03
   maximum displ.:     0.2224505 α      in ANC's #3, #4, #1, ...

........................................................................
.............................. CYCLE   10 ..............................
........................................................................

 iter      E             dE          RMSdq      gap      omega  full diag
   1    -51.0764382 -0.510764E+02  0.935E-02    3.25       0.0  T
   2    -51.0764450 -0.680458E-05  0.516E-02    3.26       1.0  T
   3    -51.0764446  0.392947E-06  0.104E-02    3.26       1.7  T
   4    -51.0764464 -0.181047E-05  0.469E-03    3.26       3.7  T
   5    -51.0764466 -0.215554E-06  0.217E-03    3.26       8.0  T
   6    -51.0764467 -0.612962E-07  0.790E-04    3.26      22.0  T
   7    -51.0764467 -0.805612E-08  0.378E-04    3.26      46.0  T
     SCC iter.                  ...        0 min,  0.010 sec
     gradient                   ...        0 min,  0.015 sec
 * total energy  :   -50.3618308 Eh     change       -0.1766484E-03 Eh
   gradient norm :     0.0084579 Eh/α   predicted    -0.1493646E-03 ( -15.45%)
   displ. norm   :     0.3393349 α      lambda       -0.1869346E-03
   maximum displ.:     0.2469352 α      in ANC's #3, #4, #1, ...

........................................................................
.............................. CYCLE   11 ..............................
........................................................................

 iter      E             dE          RMSdq      gap      omega  full diag
   1    -51.0736536 -0.510737E+02  0.120E-01    3.28       0.0  T
   2    -51.0736606 -0.697654E-05  0.668E-02    3.28       1.0  T
   3    -51.0736487  0.118293E-04  0.241E-02    3.27       1.0  T
   4    -51.0736643 -0.155668E-04  0.539E-03    3.27       3.2  T
   5    -51.0736645 -0.208517E-06  0.214E-03    3.28       8.1  T
   6    -51.0736646 -0.519297E-07  0.727E-04    3.27      23.9  T
   7    -51.0736646 -0.755676E-08  0.338E-04    3.28      51.5  T
     SCC iter.                  ...        0 min,  0.010 sec
     gradient                   ...        0 min,  0.044 sec
 * total energy  :   -50.3619570 Eh     change       -0.1262218E-03 Eh
   gradient norm :     0.0062963 Eh/α   predicted    -0.1042345E-03 ( -17.42%)
   displ. norm   :     0.1854689 α      lambda       -0.1242218E-03
   maximum displ.:     0.1360163 α      in ANC's #3, #1, #5, ...

........................................................................
.............................. CYCLE   12 ..............................
........................................................................

 iter      E             dE          RMSdq      gap      omega  full diag
   1    -51.0741661 -0.510742E+02  0.615E-02    3.28       0.0  T
   2    -51.0741681 -0.202011E-05  0.333E-02    3.28       1.0  T
   3    -51.0741682 -0.633961E-07  0.590E-03    3.28       3.0  T
   4    -51.0741687 -0.558490E-06  0.275E-03    3.29       6.3  T
   5    -51.0741688 -0.680100E-07  0.115E-03    3.28      15.1  T
   6    -51.0741688 -0.207629E-07  0.368E-04    3.28      47.3  T
   7    -51.0741688 -0.220386E-08  0.184E-04    3.28      94.4  T
     SCC iter.                  ...        0 min,  0.010 sec
     gradient                   ...        0 min,  0.015 sec
 * total energy  :   -50.3620599 Eh     change       -0.1028828E-03 Eh
   gradient norm :     0.0044700 Eh/α   predicted    -0.6424812E-04 ( -37.55%)
   displ. norm   :     0.2955984 α      lambda       -0.1769912E-03
   maximum displ.:     0.2125276 α      in ANC's #3, #1, #5, ...

........................................................................
.............................. CYCLE   13 ..............................
........................................................................

 iter      E             dE          RMSdq      gap      omega  full diag
   1    -51.0736015 -0.510736E+02  0.105E-01    3.29       0.0  T
   2    -51.0736075 -0.599834E-05  0.564E-02    3.29       1.0  T
   3    -51.0736081 -0.523219E-06  0.946E-03    3.30       1.8  T
   4    -51.0736092 -0.108822E-05  0.487E-03    3.30       3.6  T
   5    -51.0736094 -0.260147E-06  0.206E-03    3.30       8.4  T
   6    -51.0736095 -0.656689E-07  0.576E-04    3.30      30.2  T
   7    -51.0736095 -0.642049E-08  0.258E-04    3.30      67.5  T
     SCC iter.                  ...        0 min,  0.010 sec
     gradient                   ...        0 min,  0.015 sec
 * total energy  :   -50.3621893 Eh     change       -0.1293886E-03 Eh
   gradient norm :     0.0035933 Eh/α   predicted    -0.9623105E-04 ( -25.63%)
   displ. norm   :     0.2778007 α      lambda       -0.1131948E-03
   maximum displ.:     0.2004414 α      in ANC's #3, #1, #5, ...

........................................................................
.............................. CYCLE   14 ..............................
........................................................................

 iter      E             dE          RMSdq      gap      omega  full diag
   1    -51.0727629 -0.510728E+02  0.102E-01    3.30       0.0  T
   2    -51.0727678 -0.495337E-05  0.549E-02    3.30       1.0  T
   3    -51.0727672  0.668288E-06  0.112E-02    3.30       1.5  T
   4    -51.0727694 -0.218973E-05  0.536E-03    3.30       3.2  T
   5    -51.0727697 -0.329076E-06  0.149E-03    3.30      11.7  T
   6    -51.0727697 -0.317075E-07  0.452E-04    3.30      38.5  T
   7    -51.0727697 -0.283594E-08  0.220E-04    3.30      79.0  T
     SCC iter.                  ...        0 min,  0.010 sec
     gradient                   ...        0 min,  0.015 sec
 * total energy  :   -50.3622689 Eh     change       -0.7963768E-04 Eh
   gradient norm :     0.0048111 Eh/α   predicted    -0.6096687E-04 ( -23.44%)
   displ. norm   :     0.2638447 α      lambda       -0.9529269E-04
   maximum displ.:     0.1864864 α      in ANC's #3, #1, #9, ...

........................................................................
.............................. CYCLE   15 ..............................
........................................................................

 iter      E             dE          RMSdq      gap      omega  full diag
   1    -51.0727210 -0.510727E+02  0.834E-02    3.31       0.0  T
   2    -51.0727241 -0.305478E-05  0.437E-02    3.31       1.0  T
   3    -51.0727235  0.505231E-06  0.945E-03    3.31       1.8  T
   4    -51.0727249 -0.130982E-05  0.500E-03    3.31       3.5  T
   5    -51.0727251 -0.265709E-06  0.112E-03    3.31      15.6  T
   6    -51.0727251 -0.273615E-07  0.352E-04    3.31      49.4  T
   7    -51.0727251 -0.901231E-09  0.171E-04    3.31     101.6  T
     SCC iter.                  ...        0 min,  0.010 sec
     gradient                   ...        0 min,  0.016 sec
 * total energy  :   -50.3623361 Eh     change       -0.6721058E-04 Eh
   gradient norm :     0.0049381 Eh/α   predicted    -0.5096367E-04 ( -24.17%)
   displ. norm   :     0.2856030 α      lambda       -0.1065084E-03
   maximum displ.:     0.2014954 α      in ANC's #3, #1, #2, ...

........................................................................
.............................. CYCLE   16 ..............................
........................................................................

 iter      E             dE          RMSdq      gap      omega  full diag
   1    -51.0732747 -0.510733E+02  0.957E-02    3.31       0.0  T
   2    -51.0732791 -0.443435E-05  0.499E-02    3.31       1.0  T
   3    -51.0732800 -0.891439E-06  0.773E-03    3.31       2.3  T
   4    -51.0732801 -0.118425E-06  0.420E-03    3.31       4.1  T
   5    -51.0732803 -0.186870E-06  0.146E-03    3.31      11.9  T
   6    -51.0732803 -0.466740E-07  0.417E-04    3.31      41.7  T
   7    -51.0732803 -0.225224E-08  0.206E-04    3.31      84.5  T
     SCC iter.                  ...        0 min,  0.043 sec
     gradient                   ...        0 min,  0.016 sec
 * total energy  :   -50.3624144 Eh     change       -0.7820592E-04 Eh
   gradient norm :     0.0034587 Eh/α   predicted    -0.5760317E-04 ( -26.34%)
   displ. norm   :     0.2801873 α      lambda       -0.1061149E-03
   maximum displ.:     0.1912667 α      in ANC's #3, #2, #1, ...

........................................................................
.............................. CYCLE   17 ..............................
........................................................................

 iter      E             dE          RMSdq      gap      omega  full diag
   1    -51.0738877 -0.510739E+02  0.866E-02    3.32       0.0  T
   2    -51.0738919 -0.418835E-05  0.452E-02    3.32       1.0  T
   3    -51.0738913  0.532503E-06  0.101E-02    3.31       1.7  T
   4    -51.0738926 -0.123546E-05  0.551E-03    3.31       3.2  T
   5    -51.0738929 -0.357793E-06  0.208E-03    3.31       8.4  T
   6    -51.0738930 -0.529926E-07  0.453E-04    3.31      38.5  T
   7    -51.0738930 -0.337133E-08  0.207E-04    3.31      84.0  T
     SCC iter.                  ...        0 min,  0.010 sec
     gradient                   ...        0 min,  0.015 sec
 * total energy  :   -50.3624917 Eh     change       -0.7738155E-04 Eh
   gradient norm :     0.0032771 Eh/α   predicted    -0.5722377E-04 ( -26.05%)
   displ. norm   :     0.2344446 α      lambda       -0.8952330E-04
   maximum displ.:     0.1525228 α      in ANC's #3, #2, #6, ...

........................................................................
.............................. CYCLE   18 ..............................
........................................................................

 iter      E             dE          RMSdq      gap      omega  full diag
   1    -51.0751978 -0.510752E+02  0.753E-02    3.32       0.0  T
   2    -51.0752013 -0.347646E-05  0.394E-02    3.32       1.0  T
   3    -51.0752015 -0.236893E-06  0.727E-03    3.31       2.4  T
   4    -51.0752018 -0.294111E-06  0.415E-03    3.31       4.2  T
   5    -51.0752020 -0.166338E-06  0.188E-03    3.31       9.3  T
   6    -51.0752020 -0.583811E-07  0.396E-04    3.31      44.0  T
   7    -51.0752020 -0.278042E-08  0.183E-04    3.31      94.9  T
     SCC iter.                  ...        0 min,  0.041 sec
     gradient                   ...        0 min,  0.015 sec
 * total energy  :   -50.3625581 Eh     change       -0.6636420E-04 Eh
   gradient norm :     0.0038098 Eh/α   predicted    -0.4722431E-04 ( -28.84%)
   displ. norm   :     0.3779851 α      lambda       -0.9436604E-04
   maximum displ.:     0.2666176 α      in ANC's #3, #2, #1, ...

........................................................................
.............................. CYCLE   19 ..............................
........................................................................

 iter      E             dE          RMSdq      gap      omega  full diag
   1    -51.0715761 -0.510716E+02  0.119E-01    3.32       0.0  T
   2    -51.0715827 -0.659440E-05  0.632E-02    3.32       1.0  T
   3    -51.0715744  0.833046E-05  0.218E-02    3.31       1.0  T
   4    -51.0715856 -0.112081E-04  0.716E-03    3.31       2.4  T
   5    -51.0715859 -0.304634E-06  0.229E-03    3.31       7.6  T
   6    -51.0715860 -0.844489E-07  0.570E-04    3.31      30.6  T
   7    -51.0715860 -0.428980E-08  0.287E-04    3.31      60.6  T
     SCC iter.                  ...        0 min,  0.010 sec
     gradient                   ...        0 min,  0.016 sec
 * total energy  :   -50.3626043 Eh     change       -0.4617879E-04 Eh
   gradient norm :     0.0078040 Eh/α   predicted    -0.5392460E-04 (  16.77%)
   displ. norm   :     0.2593542 α      lambda       -0.1584985E-03
   maximum displ.:     0.1814099 α      in ANC's #2, #3, #6, ...

........................................................................
.............................. CYCLE   20 ..............................
........................................................................

 iter      E             dE          RMSdq      gap      omega  full diag
   1    -51.0752735 -0.510753E+02  0.802E-02    3.31       0.0  T
   2    -51.0752769 -0.339398E-05  0.437E-02    3.31       1.0  T
   3    -51.0752657  0.112076E-04  0.234E-02    3.30       1.0  T
   4    -51.0752799 -0.142460E-04  0.462E-03    3.30       3.8  T
   5    -51.0752800 -0.736764E-07  0.146E-03    3.30      11.9  T
   6    -51.0752800 -0.170291E-07  0.489E-04    3.30      35.6  T
   7    -51.0752800 -0.450582E-08  0.201E-04    3.30      86.8  T
     SCC iter.                  ...        0 min,  0.010 sec
     gradient                   ...        0 min,  0.042 sec
 * total energy  :   -50.3627042 Eh     change       -0.9990505E-04 Eh
   gradient norm :     0.0053090 Eh/α   predicted    -0.8458244E-04 ( -15.34%)
   displ. norm   :     0.2347517 α      lambda       -0.9398031E-04
   maximum displ.:     0.1425088 α      in ANC's #3, #2, #7, ...
 * RMSD in coord.:     0.7373286 α      energy gain  -0.1311973E-01 Eh

generating ANC from exact Hessian ...
Using Lindh-Hessian (1995)
 Shifting diagonal of input Hessian by    9.7938853880680157E-003
 Lowest  eigenvalues of input Hessian
    0.000000    0.000000    0.000000    0.000000    0.000000    0.000000
    0.010000    0.010265    0.010500    0.010940    0.011661    0.012785
    0.012900    0.016706    0.016991    0.017375    0.017941    0.018840
 Highest eigenvalues
    1.921942    2.085239    2.191792    2.192417    2.302211    2.885142


........................................................................
.............................. CYCLE   21 ..............................
........................................................................

 iter      E             dE          RMSdq      gap      omega  full diag
   1    -51.0752233 -0.510752E+02  0.639E-02    3.31       0.0  T
   2    -51.0752252 -0.194558E-05  0.331E-02    3.31       1.0  T
   3    -51.0752234  0.185575E-05  0.107E-02    3.30       1.6  T
   4    -51.0752260 -0.259491E-05  0.387E-03    3.30       4.5  T
   5    -51.0752261 -0.670569E-07  0.122E-03    3.30      14.3  T
   6    -51.0752261 -0.226451E-07  0.365E-04    3.30      47.7  T
   7    -51.0752261 -0.279478E-08  0.140E-04    3.30     123.9  T
     SCC iter.                  ...        0 min,  0.010 sec
     gradient                   ...        0 min,  0.015 sec
 * total energy  :   -50.3627826 Eh     change       -0.7841442E-04 Eh
   gradient norm :     0.0040674 Eh/α   predicted     0.0000000E+00 (-100.00%)
   displ. norm   :     0.0600770 α      lambda       -0.7869962E-04
   maximum displ.:     0.0284475 α      in ANC's #6, #4, #8, ...

........................................................................
.............................. CYCLE   22 ..............................
........................................................................

 iter      E             dE          RMSdq      gap      omega  full diag
   1    -51.0750039 -0.510750E+02  0.685E-02    3.30       0.0  T
   2    -51.0750060 -0.218090E-05  0.382E-02    3.30       1.0  T
   3    -51.0750055  0.558554E-06  0.727E-03    3.30       2.4  T
   4    -51.0750070 -0.149556E-05  0.140E-03    3.30      12.5  T
   5    -51.0750070 -0.121892E-07  0.650E-04    3.30      26.8  T
   6    -51.0750070 -0.207309E-08  0.194E-04    3.30      89.9  T
     SCC iter.                  ...        0 min,  0.008 sec
     gradient                   ...        0 min,  0.044 sec
 * total energy  :   -50.3627817 Eh     change        0.9437490E-06 Eh
   gradient norm :     0.0041522 Eh/α   predicted    -0.3959043E-04 (*******%)
   displ. norm   :     0.0772833 α      lambda       -0.1306431E-03
   maximum displ.:     0.0475222 α      in ANC's #5, #6, #1, ...

........................................................................
.............................. CYCLE   23 ..............................
........................................................................

 iter      E             dE          RMSdq      gap      omega  full diag
   1    -51.0756036 -0.510756E+02  0.589E-02    3.32       0.0  T
   2    -51.0756056 -0.203278E-05  0.329E-02    3.31       1.0  T
   3    -51.0756057 -0.683673E-07  0.474E-03    3.31       3.7  T
   4    -51.0756062 -0.499158E-06  0.209E-03    3.31       8.3  T
   5    -51.0756063 -0.896645E-07  0.745E-04    3.31      23.4  T
   6    -51.0756063 -0.108978E-08  0.261E-04    3.31      66.6  T
     SCC iter.                  ...        0 min,  0.008 sec
     gradient                   ...        0 min,  0.016 sec
 * total energy  :   -50.3628580 Eh     change       -0.7638786E-04 Eh
   gradient norm :     0.0019236 Eh/α   predicted    -0.6571488E-04 ( -13.97%)
   displ. norm   :     0.1052188 α      lambda       -0.3704365E-04
   maximum displ.:     0.0613656 α      in ANC's #5, #6, #2, ...

........................................................................
.............................. CYCLE   24 ..............................
........................................................................

 iter      E             dE          RMSdq      gap      omega  full diag
   1    -51.0753516 -0.510754E+02  0.287E-02    3.32       0.0  T
   2    -51.0753521 -0.536257E-06  0.162E-02    3.32       1.1  T
   3    -51.0753521  0.250711E-07  0.290E-03    3.32       6.0  T
   4    -51.0753522 -0.130330E-06  0.130E-03    3.32      13.4  T
   5    -51.0753522 -0.245534E-07  0.576E-04    3.32      30.2  T
   6    -51.0753522 -0.236727E-08  0.216E-04    3.32      80.6  T
     SCC iter.                  ...        0 min,  0.009 sec
     gradient                   ...        0 min,  0.016 sec
 * total energy  :   -50.3629002 Eh     change       -0.4215657E-04 Eh
   gradient norm :     0.0019317 Eh/α   predicted    -0.1861475E-04 ( -55.84%)
   displ. norm   :     0.2307479 α      lambda       -0.5991802E-04
   maximum displ.:     0.1306488 α      in ANC's #5, #6, #2, ...

........................................................................
.............................. CYCLE   25 ..............................
........................................................................

 iter      E             dE          RMSdq      gap      omega  full diag
   1    -51.0744609 -0.510745E+02  0.458E-02    3.33       0.0  T
   2    -51.0744620 -0.106682E-05  0.258E-02    3.33       1.0  T
   3    -51.0744619  0.915449E-07  0.475E-03    3.34       3.7  T
   4    -51.0744621 -0.194260E-06  0.261E-03    3.34       6.7  T
   5    -51.0744622 -0.110629E-06  0.980E-04    3.34      17.8  T
   6    -51.0744622 -0.901046E-08  0.326E-04    3.34      53.4  T
     SCC iter.                  ...        0 min,  0.008 sec
     gradient                   ...        0 min,  0.015 sec
 * total energy  :   -50.3629616 Eh     change       -0.6140540E-04 Eh
   gradient norm :     0.0030102 Eh/α   predicted    -0.3066820E-04 ( -50.06%)
   displ. norm   :     0.1439207 α      lambda       -0.4362375E-04
   maximum displ.:     0.0827547 α      in ANC's #5, #2, #6, ...

........................................................................
.............................. CYCLE   26 ..............................
........................................................................

 iter      E             dE          RMSdq      gap      omega  full diag
   1    -51.0741085 -0.510741E+02  0.288E-02    3.34       0.0  T
   2    -51.0741089 -0.364341E-06  0.158E-02    3.35       1.1  T
   3    -51.0741088  0.956276E-07  0.350E-03    3.35       5.0  T
   4    -51.0741089 -0.131340E-06  0.199E-03    3.35       8.8  T
   5    -51.0741090 -0.604607E-07  0.524E-04    3.35      33.2  T
   6    -51.0741090 -0.218966E-08  0.202E-04    3.35      86.1  T
     SCC iter.                  ...        0 min,  0.009 sec
     gradient                   ...        0 min,  0.015 sec
 * total energy  :   -50.3629982 Eh     change       -0.3656463E-04 Eh
   gradient norm :     0.0030636 Eh/α   predicted    -0.2226488E-04 ( -39.11%)
   displ. norm   :     0.2935160 α      lambda       -0.8867893E-04
   maximum displ.:     0.1689947 α      in ANC's #5, #2, #9, ...

........................................................................
.............................. CYCLE   27 ..............................
........................................................................

 iter      E             dE          RMSdq      gap      omega  full diag
   1    -51.0736149 -0.510736E+02  0.608E-02    3.35       0.0  T
   2    -51.0736164 -0.146687E-05  0.329E-02    3.36       1.0  T
   3    -51.0736162  0.198605E-06  0.677E-03    3.36       2.6  T
   4    -51.0736166 -0.397156E-06  0.402E-03    3.36       4.3  T
   5    -51.0736168 -0.235079E-06  0.956E-04    3.36      18.2  T
   6    -51.0736168 -0.112545E-07  0.400E-04    3.36      43.6  T
     SCC iter.                  ...        0 min,  0.042 sec
     gradient                   ...        0 min,  0.015 sec
 * total energy  :   -50.3630611 Eh     change       -0.6297597E-04 Eh
   gradient norm :     0.0041826 Eh/α   predicted    -0.4816181E-04 ( -23.52%)
   displ. norm   :     0.2135773 α      lambda       -0.7515633E-04
   maximum displ.:     0.1203673 α      in ANC's #5, #2, #9, ...

........................................................................
.............................. CYCLE   28 ..............................
........................................................................

 iter      E             dE          RMSdq      gap      omega  full diag
   1    -51.0740260 -0.510740E+02  0.493E-02    3.36       0.0  T
   2    -51.0740271 -0.114208E-05  0.262E-02    3.36       1.0  T
   3    -51.0740272 -0.606099E-07  0.497E-03    3.36       3.5  T
   4    -51.0740273 -0.112755E-06  0.298E-03    3.36       5.8  T
   5    -51.0740274 -0.120011E-06  0.925E-04    3.36      18.8  T
   6    -51.0740275 -0.129576E-07  0.311E-04    3.36      55.9  T
     SCC iter.                  ...        0 min,  0.009 sec
     gradient                   ...        0 min,  0.015 sec
 * total energy  :   -50.3631188 Eh     change       -0.5768473E-04 Eh
   gradient norm :     0.0040014 Eh/α   predicted    -0.3929333E-04 ( -31.88%)
   displ. norm   :     0.2623295 α      lambda       -0.8857080E-04
   maximum displ.:     0.1505923 α      in ANC's #5, #2, #9, ...

........................................................................
.............................. CYCLE   29 ..............................
........................................................................

 iter      E             dE          RMSdq      gap      omega  full diag
   1    -51.0743765 -0.510744E+02  0.623E-02    3.36       0.0  T
   2    -51.0743781 -0.161190E-05  0.332E-02    3.36       1.0  T
   3    -51.0743783 -0.151721E-06  0.602E-03    3.35       2.9  T
   4    -51.0743784 -0.144516E-06  0.351E-03    3.35       5.0  T
   5    -51.0743786 -0.177641E-06  0.788E-04    3.35      22.1  T
   6    -51.0743786 -0.804689E-08  0.323E-04    3.35      53.9  T
     SCC iter.                  ...        0 min,  0.048 sec
     gradient                   ...        0 min,  0.015 sec
 * total energy  :   -50.3631872 Eh     change       -0.6833092E-04 Eh
   gradient norm :     0.0038309 Eh/α   predicted    -0.4733635E-04 ( -30.72%)
   displ. norm   :     0.2645896 α      lambda       -0.9810143E-04
   maximum displ.:     0.1470100 α      in ANC's #5, #2, #4, ...

........................................................................
.............................. CYCLE   30 ..............................
........................................................................

 iter      E             dE          RMSdq      gap      omega  full diag
   1    -51.0757544 -0.510758E+02  0.683E-02    3.35       0.0  T
   2    -51.0757568 -0.236875E-05  0.362E-02    3.34       1.0  T
   3    -51.0757556  0.120800E-05  0.102E-02    3.34       1.7  T
   4    -51.0757573 -0.177874E-05  0.456E-03    3.34       3.8  T
   5    -51.0757575 -0.198654E-06  0.135E-03    3.34      12.9  T
   6    -51.0757575 -0.149452E-07  0.479E-04    3.34      36.4  T
   7    -51.0757576 -0.484463E-08  0.189E-04    3.34      92.2  T
     SCC iter.                  ...        0 min,  0.010 sec
     gradient                   ...        0 min,  0.015 sec
 * total energy  :   -50.3632527 Eh     change       -0.6554816E-04 Eh
   gradient norm :     0.0028137 Eh/α   predicted    -0.5248517E-04 ( -19.93%)
   displ. norm   :     0.5631399 α      lambda       -0.1200644E-03
   maximum displ.:     0.3370874 α      in ANC's #5, #2, #9, ...

........................................................................
.............................. CYCLE   31 ..............................
........................................................................

 iter      E             dE          RMSdq      gap      omega  full diag
   1    -51.0701366 -0.510701E+02  0.132E-01    3.32       0.0  T
   2    -51.0701460 -0.938108E-05  0.715E-02    3.32       1.0  T
   3    -51.0701430  0.301645E-05  0.183E-02    3.32       1.0  T
   4    -51.0701476 -0.462649E-05  0.915E-03    3.32       1.9  T
   5    -51.0701486 -0.996582E-06  0.302E-03    3.32       5.8  T
   6    -51.0701486 -0.579542E-07  0.111E-03    3.32      15.7  T
   7    -51.0701487 -0.267240E-07  0.426E-04    3.32      40.9  T
   8    -51.0701487 -0.480419E-09  0.151E-04    3.32     115.6  T
     SCC iter.                  ...        0 min,  0.011 sec
     gradient                   ...        0 min,  0.046 sec
 * total energy  :   -50.3631203 Eh     change        0.1324435E-03 Eh
   gradient norm :     0.0118694 Eh/α   predicted    -0.7907068E-04 (-159.70%)
   displ. norm   :     0.2604741 α      lambda       -0.4590497E-03
   maximum displ.:     0.1499919 α      in ANC's #5, #2, #9, ...

........................................................................
.............................. CYCLE   32 ..............................
........................................................................

 iter      E             dE          RMSdq      gap      omega  full diag
   1    -51.0757608 -0.510758E+02  0.694E-02    3.32       0.0  T
   2    -51.0757650 -0.412561E-05  0.379E-02    3.32       1.0  T
   3    -51.0757652 -0.182038E-06  0.782E-03    3.32       2.2  T
   4    -51.0757655 -0.369876E-06  0.376E-03    3.32       4.6  T
   5    -51.0757656 -0.122789E-06  0.169E-03    3.32      10.3  T
   6    -51.0757657 -0.367962E-07  0.446E-04    3.32      39.0  T
   7    -51.0757657 -0.246295E-08  0.220E-04    3.32      79.1  T
     SCC iter.                  ...        0 min,  0.010 sec
     gradient                   ...        0 min,  0.015 sec
 * total energy  :   -50.3633198 Eh     change       -0.1995746E-03 Eh
   gradient norm :     0.0020144 Eh/α   predicted    -0.2450992E-03 (  22.81%)
   displ. norm   :     0.0871045 α      lambda       -0.2730408E-04
   maximum displ.:     0.0504325 α      in ANC's #5, #2, #1, ...

........................................................................
.............................. CYCLE   33 ..............................
........................................................................

 iter      E             dE          RMSdq      gap      omega  full diag
   1    -51.0758614 -0.510759E+02  0.232E-02    3.32       0.0  T
   2    -51.0758617 -0.263826E-06  0.129E-02    3.32       1.4  T
   3    -51.0758615  0.200991E-06  0.361E-03    3.32       4.8  T
   4    -51.0758618 -0.277664E-06  0.139E-03    3.32      12.5  T
   5    -51.0758618 -0.222676E-07  0.476E-04    3.32      36.5  T
   6    -51.0758618 -0.215044E-08  0.150E-04    3.32     115.8  T
     SCC iter.                  ...        0 min,  0.009 sec
     gradient                   ...        0 min,  0.015 sec
 * total energy  :   -50.3633456 Eh     change       -0.2577434E-04 Eh
   gradient norm :     0.0019137 Eh/α   predicted    -0.1375686E-04 ( -46.63%)
   displ. norm   :     0.8763699 α      lambda       -0.1725607E-03
   maximum displ.:     0.5103730 α      in ANC's #5, #2, #1, ...

........................................................................
.............................. CYCLE   34 ..............................
........................................................................

 iter      E             dE          RMSdq      gap      omega  full diag
   1    -51.0688338 -0.510688E+02  0.242E-01    3.31       0.0  T
   2    -51.0688581 -0.243481E-04  0.134E-01    3.31       1.0  T
   3    -51.0688628 -0.467801E-05  0.186E-02    3.31       1.0  T
   4    -51.0688644 -0.160864E-05  0.104E-02    3.31       1.7  T
   5    -51.0688659 -0.148326E-05  0.356E-03    3.31       4.9  T
   6    -51.0688661 -0.165722E-06  0.146E-03    3.31      11.9  T
   7    -51.0688661 -0.345284E-07  0.666E-04    3.31      26.1  T
   8    -51.0688661 -0.273859E-08  0.184E-04    3.31      94.5  T
     SCC iter.                  ...        0 min,  0.027 sec
     gradient                   ...        0 min,  0.015 sec
 * total energy  :   -50.3633564 Eh     change       -0.1080268E-04 Eh
   gradient norm :     0.0115195 Eh/α   predicted    -0.1157242E-03 ( 971.25%)
   displ. norm   :     0.2078859 α      lambda       -0.2658931E-03
   maximum displ.:     0.1251529 α      in ANC's #5, #2, #7, ...

........................................................................
.............................. CYCLE   35 ..............................
........................................................................

 iter      E             dE          RMSdq      gap      omega  full diag
   1    -51.0742394 -0.510742E+02  0.533E-02    3.32       0.0  T
   2    -51.0742417 -0.221603E-05  0.294E-02    3.32       1.0  T
   3    -51.0742415  0.204600E-06  0.673E-03    3.32       2.6  T
   4    -51.0742419 -0.489004E-06  0.343E-03    3.32       5.1  T
   5    -51.0742421 -0.122265E-06  0.151E-03    3.32      11.5  T
   6    -51.0742421 -0.265429E-07  0.499E-04    3.32      34.9  T
   7    -51.0742421 -0.474791E-08  0.193E-04    3.32      90.0  T
     SCC iter.                  ...        0 min,  0.010 sec
     gradient                   ...        0 min,  0.015 sec
 * total energy  :   -50.3634985 Eh     change       -0.1421130E-03 Eh
   gradient norm :     0.0044913 Eh/α   predicted    -0.1387067E-03 (  -2.40%)
   displ. norm   :     0.1201528 α      lambda       -0.6108903E-04
   maximum displ.:     0.0731268 α      in ANC's #1, #5, #2, ...

........................................................................
.............................. CYCLE   36 ..............................
........................................................................

 iter      E             dE          RMSdq      gap      omega  full diag
   1    -51.0754459 -0.510754E+02  0.432E-02    3.32       0.0  T
   2    -51.0754467 -0.866771E-06  0.239E-02    3.32       1.0  T
   3    -51.0754470 -0.241165E-06  0.280E-03    3.32       6.2  T
   4    -51.0754470 -0.186656E-07  0.144E-03    3.31      12.1  T
   5    -51.0754470 -0.978360E-08  0.766E-04    3.31      22.7  T
   6    -51.0754470 -0.120933E-07  0.179E-04    3.31      97.1  T
     SCC iter.                  ...        0 min,  0.009 sec
     gradient                   ...        0 min,  0.046 sec
 * total energy  :   -50.3635532 Eh     change       -0.5465010E-04 Eh
   gradient norm :     0.0031390 Eh/α   predicted    -0.3098443E-04 ( -43.30%)
   displ. norm   :     0.5827929 α      lambda       -0.2343126E-03
   maximum displ.:     0.3485782 α      in ANC's #1, #5, #2, ...

........................................................................
.............................. CYCLE   37 ..............................
........................................................................

 iter      E             dE          RMSdq      gap      omega  full diag
   1    -51.0747808 -0.510748E+02  0.206E-01    3.32       0.0  T
   2    -51.0748014 -0.206444E-04  0.114E-01    3.32       1.0  T
   3    -51.0747845  0.169738E-04  0.322E-02    3.32       1.0  T
   4    -51.0748095 -0.250906E-04  0.923E-03    3.32       1.9  T
   5    -51.0748102 -0.626031E-06  0.328E-03    3.32       5.3  T
   6    -51.0748102 -0.448413E-07  0.812E-04    3.32      21.4  T
   7    -51.0748102 -0.336559E-08  0.438E-04    3.32      39.7  T
     SCC iter.                  ...        0 min,  0.010 sec
     gradient                   ...        0 min,  0.016 sec
 * total energy  :   -50.3637563 Eh     change       -0.2031337E-03 Eh
   gradient norm :     0.0049519 Eh/α   predicted    -0.1568065E-03 ( -22.81%)
   displ. norm   :     0.7473120 α      lambda       -0.2733874E-03
   maximum displ.:     0.4237402 α      in ANC's #1, #5, #2, ...

........................................................................
.............................. CYCLE   38 ..............................
........................................................................

 iter      E             dE          RMSdq      gap      omega  full diag
   1    -51.0681285 -0.510681E+02  0.251E-01    3.32       0.0  T
   2    -51.0681719 -0.433713E-04  0.140E-01    3.34       1.0  T
   3    -51.0681064  0.654904E-04  0.573E-02    3.33       1.0  T
   4    -51.0681890 -0.826057E-04  0.133E-02    3.34       1.3  T
   5    -51.0681909 -0.189701E-05  0.542E-03    3.34       3.2  T
   6    -51.0681910 -0.882806E-07  0.147E-03    3.34      11.8  T
   7    -51.0681910 -0.329532E-07  0.607E-04    3.34      28.7  T
   8    -51.0681910 -0.796184E-09  0.287E-04    3.34      60.7  T
     SCC iter.                  ...        0 min,  0.011 sec
     gradient                   ...        0 min,  0.048 sec
 * total energy  :   -50.3638817 Eh     change       -0.1254310E-03 Eh
   gradient norm :     0.0131574 Eh/α   predicted    -0.2127715E-03 (  69.63%)
   displ. norm   :     0.1100199 α      lambda       -0.2337198E-03
   maximum displ.:     0.0794628 α      in ANC's #7, #4, #6, ...

........................................................................
.............................. CYCLE   39 ..............................
........................................................................

 iter      E             dE          RMSdq      gap      omega  full diag
   1    -51.0761440 -0.510761E+02  0.497E-02    3.34       0.0  T
   2    -51.0761475 -0.350276E-05  0.318E-02    3.34       1.0  T
   3    -51.0761469  0.544695E-06  0.200E-02    3.34       1.0  T
   4    -51.0761536 -0.668969E-05  0.354E-03    3.34       4.9  T
   5    -51.0761538 -0.158323E-06  0.136E-03    3.34      12.8  T
   6    -51.0761538 -0.889010E-08  0.468E-04    3.34      37.2  T
   7    -51.0761538 -0.206322E-08  0.157E-04    3.34     111.1  T
     SCC iter.                  ...        0 min,  0.010 sec
     gradient                   ...        0 min,  0.015 sec
 * total energy  :   -50.3639677 Eh     change       -0.8591495E-04 Eh
   gradient norm :     0.0102467 Eh/α   predicted    -0.1183718E-03 (  37.78%)
   displ. norm   :     0.2283710 α      lambda       -0.1954036E-03
   maximum displ.:     0.1659760 α      in ANC's #1, #5, #2, ...

........................................................................
.............................. CYCLE   40 ..............................
........................................................................

 iter      E             dE          RMSdq      gap      omega  full diag
   1    -51.0747863 -0.510748E+02  0.106E-01    3.34       0.0  T
   2    -51.0747930 -0.667186E-05  0.592E-02    3.34       1.0  T
   3    -51.0747910  0.201945E-05  0.125E-02    3.34       1.4  T
   4    -51.0747948 -0.384653E-05  0.420E-03    3.34       4.1  T
   5    -51.0747951 -0.296471E-06  0.186E-03    3.34       9.4  T
   6    -51.0747951 -0.246393E-07  0.572E-04    3.34      30.4  T
   7    -51.0747952 -0.349673E-08  0.187E-04    3.34      92.9  T
     SCC iter.                  ...        0 min,  0.010 sec
     gradient                   ...        0 min,  0.049 sec
 * total energy  :   -50.3640793 Eh     change       -0.1116696E-03 Eh
   gradient norm :     0.0077142 Eh/α   predicted    -0.1028074E-03 (  -7.94%)
   displ. norm   :     0.4505982 α      lambda       -0.1763604E-03
   maximum displ.:     0.2484903 α      in ANC's #5, #1, #2, ...

........................................................................
.............................. CYCLE   41 ..............................
........................................................................

 iter      E             dE          RMSdq      gap      omega  full diag
   1    -51.0706805 -0.510707E+02  0.137E-01    3.34       0.0  T
   2    -51.0706910 -0.105814E-04  0.768E-02    3.35       1.0  T
   3    -51.0706755  0.155312E-04  0.278E-02    3.35       1.0  T
   4    -51.0706952 -0.197396E-04  0.705E-03    3.35       2.5  T
   5    -51.0706957 -0.455415E-06  0.299E-03    3.35       5.8  T
   6    -51.0706958 -0.648007E-07  0.853E-04    3.35      20.4  T
   7    -51.0706958 -0.104329E-07  0.353E-04    3.35      49.3  T
     SCC iter.                  ...        0 min,  0.010 sec
     gradient                   ...        0 min,  0.015 sec
 * total energy  :   -50.3641935 Eh     change       -0.1141453E-03 Eh
   gradient norm :     0.0098037 Eh/α   predicted    -0.1061061E-03 (  -7.04%)
   displ. norm   :     0.2372688 α      lambda       -0.1577555E-03
   maximum displ.:     0.1339530 α      in ANC's #5, #2, #1, ...

........................................................................
.............................. CYCLE   42 ..............................
........................................................................

 iter      E             dE          RMSdq      gap      omega  full diag
   1    -51.0729301 -0.510729E+02  0.548E-02    3.35       0.0  T
   2    -51.0729320 -0.193871E-05  0.324E-02    3.35       1.0  T
   3    -51.0729242  0.784571E-05  0.212E-02    3.35       1.0  T
   4    -51.0729349 -0.106954E-04  0.302E-03    3.35       5.8  T
   5    -51.0729350 -0.802484E-07  0.128E-03    3.35      13.6  T
   6    -51.0729350 -0.248654E-08  0.383E-04    3.35      45.5  T
   7    -51.0729350 -0.173080E-08  0.183E-04    3.35      95.1  T
     SCC iter.                  ...        0 min,  0.010 sec
     gradient                   ...        0 min,  0.055 sec
 * total energy  :   -50.3643027 Eh     change       -0.1092446E-03 Eh
   gradient norm :     0.0053034 Eh/α   predicted    -0.8332138E-04 ( -23.73%)
   displ. norm   :     0.4000480 α      lambda       -0.1684018E-03
   maximum displ.:     0.2219909 α      in ANC's #1, #5, #2, ...
 * RMSD in coord.:     0.8483393 α      energy gain  -0.1598535E-02 Eh

generating ANC from exact Hessian ...
Using Lindh-Hessian (1995)
 Shifting diagonal of input Hessian by    9.8280842795505849E-003
 Lowest  eigenvalues of input Hessian
    0.000000    0.000000    0.000000    0.000000    0.000000    0.000000
    0.010000    0.010034    0.010305    0.010899    0.011704    0.012493
    0.013087    0.016400    0.017174    0.017286    0.018308    0.018853
 Highest eigenvalues
    1.918761    2.084797    2.164788    2.189600    2.297210    2.871779


........................................................................
.............................. CYCLE   43 ..............................
........................................................................

 iter      E             dE          RMSdq      gap      omega  full diag
   1    -51.0734293 -0.510734E+02  0.123E-01    3.34       0.0  T
   2    -51.0734352 -0.593394E-05  0.696E-02    3.34       1.0  T
   3    -51.0734346  0.551243E-06  0.104E-02    3.34       1.7  T
   4    -51.0734370 -0.235945E-05  0.487E-03    3.34       3.6  T
   5    -51.0734373 -0.305659E-06  0.216E-03    3.34       8.1  T
   6    -51.0734373 -0.414050E-07  0.583E-04    3.34      29.9  T
   7    -51.0734373 -0.366091E-08  0.254E-04    3.34      68.5  T
     SCC iter.                  ...        0 min,  0.010 sec
     gradient                   ...        0 min,  0.016 sec
 * total energy  :   -50.3644242 Eh     change       -0.1214729E-03 Eh
   gradient norm :     0.0056690 Eh/α   predicted     0.0000000E+00 (-100.00%)
   displ. norm   :     0.0576611 α      lambda       -0.8818606E-04
   maximum displ.:     0.0428596 α      in ANC's #1, #4, #11, ...

........................................................................
.............................. CYCLE   44 ..............................
........................................................................

 iter      E             dE          RMSdq      gap      omega  full diag
   1    -51.0759509 -0.510760E+02  0.742E-02    3.34       0.0  T
   2    -51.0759530 -0.210556E-05  0.414E-02    3.34       1.0  T
   3    -51.0759518  0.127417E-05  0.861E-03    3.34       2.0  T
   4    -51.0759539 -0.216162E-05  0.199E-03    3.34       8.8  T
   5    -51.0759540 -0.481340E-07  0.789E-04    3.34      22.1  T
   6    -51.0759540 -0.277191E-08  0.252E-04    3.34      69.0  T
     SCC iter.                  ...        0 min,  0.048 sec
     gradient                   ...        0 min,  0.015 sec
 * total energy  :   -50.3644637 Eh     change       -0.3948900E-04 Eh
   gradient norm :     0.0033038 Eh/α   predicted    -0.4679380E-04 (  18.50%)
   displ. norm   :     0.0997704 α      lambda       -0.1506100E-03
   maximum displ.:     0.0496341 α      in ANC's #3, #1, #5, ...

........................................................................
.............................. CYCLE   45 ..............................
........................................................................

 iter      E             dE          RMSdq      gap      omega  full diag
   1    -51.0807728 -0.510808E+02  0.518E-02    3.34       0.0  T
   2    -51.0807746 -0.179546E-05  0.289E-02    3.34       1.0  T
   3    -51.0807732  0.145662E-05  0.907E-03    3.34       1.9  T
   4    -51.0807751 -0.196267E-05  0.267E-03    3.34       6.5  T
   5    -51.0807753 -0.127767E-06  0.983E-04    3.34      17.7  T
   6    -51.0807753 -0.202721E-08  0.389E-04    3.34      44.7  T
     SCC iter.                  ...        0 min,  0.008 sec
     gradient                   ...        0 min,  0.015 sec
 * total energy  :   -50.3644606 Eh     change        0.3041853E-05 Eh
   gradient norm :     0.0089575 Eh/α   predicted    -0.7605544E-04 (*******%)
   displ. norm   :     0.0283386 α      lambda       -0.1126277E-03
   maximum displ.:     0.0134103 α      in ANC's #1, #5, #2, ...

........................................................................
.............................. CYCLE   46 ..............................
........................................................................

 iter      E             dE          RMSdq      gap      omega  full diag
   1    -51.0775460 -0.510775E+02  0.375E-02    3.34       0.0  T
   2    -51.0775469 -0.884900E-06  0.209E-02    3.34       1.0  T
   3    -51.0775458  0.104637E-05  0.715E-03    3.34       2.4  T
   4    -51.0775472 -0.136890E-05  0.143E-03    3.34      12.2  T
   5    -51.0775472 -0.342915E-07  0.571E-04    3.34      30.5  T
   6    -51.0775472  0.191264E-09  0.264E-04    3.34      66.0  T
     SCC iter.                  ...        0 min,  0.042 sec
     gradient                   ...        0 min,  0.016 sec
 * total energy  :   -50.3645296 Eh     change       -0.6892708E-04 Eh
   gradient norm :     0.0017016 Eh/α   predicted    -0.5635943E-04 ( -18.23%)
   displ. norm   :     0.0961126 α      lambda       -0.3249626E-04
   maximum displ.:     0.0747174 α      in ANC's #1, #3, #4, ...

........................................................................
.............................. CYCLE   47 ..............................
........................................................................

 iter      E             dE          RMSdq      gap      omega  full diag
   1    -51.0759566 -0.510760E+02  0.522E-02    3.33       0.0  T
   2    -51.0759576 -0.104229E-05  0.291E-02    3.33       1.0  T
   3    -51.0759571  0.536657E-06  0.602E-03    3.33       2.9  T
   4    -51.0759580 -0.962155E-06  0.142E-03    3.33      12.3  T
   5    -51.0759580 -0.132872E-07  0.543E-04    3.33      32.1  T
   6    -51.0759580 -0.542236E-09  0.189E-04    3.33      91.9  T
     SCC iter.                  ...        0 min,  0.008 sec
     gradient                   ...        0 min,  0.016 sec
 * total energy  :   -50.3645659 Eh     change       -0.3635203E-04 Eh
   gradient norm :     0.0025771 Eh/α   predicted    -0.1633839E-04 ( -55.06%)
   displ. norm   :     0.1790439 α      lambda       -0.6111581E-04
   maximum displ.:     0.1333017 α      in ANC's #1, #3, #4, ...

........................................................................
.............................. CYCLE   48 ..............................
........................................................................

 iter      E             dE          RMSdq      gap      omega  full diag
   1    -51.0751322 -0.510751E+02  0.692E-02    3.33       0.0  T
   2    -51.0751338 -0.163788E-05  0.387E-02    3.33       1.0  T
   3    -51.0751335  0.327651E-06  0.639E-03    3.33       2.7  T
   4    -51.0751345 -0.932811E-06  0.225E-03    3.33       7.7  T
   5    -51.0751345 -0.592817E-07  0.788E-04    3.33      22.1  T
   6    -51.0751345 -0.320939E-08  0.253E-04    3.33      68.7  T
     SCC iter.                  ...        0 min,  0.008 sec
     gradient                   ...        0 min,  0.016 sec
 * total energy  :   -50.3646166 Eh     change       -0.5065816E-04 Eh
   gradient norm :     0.0037263 Eh/α   predicted    -0.3154059E-04 ( -37.74%)
   displ. norm   :     0.3779218 α      lambda       -0.1038715E-03
   maximum displ.:     0.2771862 α      in ANC's #1, #3, #5, ...

........................................................................
.............................. CYCLE   49 ..............................
........................................................................

 iter      E             dE          RMSdq      gap      omega  full diag
   1    -51.0735673 -0.510736E+02  0.133E-01    3.32       0.0  T
   2    -51.0735731 -0.577751E-05  0.743E-02    3.32       1.0  T
   3    -51.0735703  0.276308E-05  0.142E-02    3.32       1.2  T
   4    -51.0735754 -0.509962E-05  0.435E-03    3.31       4.0  T
   5    -51.0735756 -0.196306E-06  0.156E-03    3.31      11.2  T
   6    -51.0735756 -0.127632E-07  0.539E-04    3.31      32.3  T
   7    -51.0735756 -0.206109E-08  0.243E-04    3.31      71.7  T
     SCC iter.                  ...        0 min,  0.010 sec
     gradient                   ...        0 min,  0.016 sec
 * total energy  :   -50.3646858 Eh     change       -0.6927191E-04 Eh
   gradient norm :     0.0061322 Eh/α   predicted    -0.5936704E-04 ( -14.30%)
   displ. norm   :     0.2022980 α      lambda       -0.6084979E-04
   maximum displ.:     0.1419216 α      in ANC's #1, #3, #5, ...

........................................................................
.............................. CYCLE   50 ..............................
........................................................................

 iter      E             dE          RMSdq      gap      omega  full diag
   1    -51.0743023 -0.510743E+02  0.545E-02    3.31       0.0  T
   2    -51.0743033 -0.946269E-06  0.306E-02    3.31       1.0  T
   3    -51.0743027  0.634161E-06  0.625E-03    3.31       2.8  T
   4    -51.0743036 -0.966295E-06  0.238E-03    3.31       7.3  T
   5    -51.0743037 -0.809905E-07  0.813E-04    3.31      21.4  T
   6    -51.0743037 -0.514776E-08  0.309E-04    3.31      56.4  T
     SCC iter.                  ...        0 min,  0.008 sec
     gradient                   ...        0 min,  0.016 sec
 * total energy  :   -50.3647378 Eh     change       -0.5196301E-04 Eh
   gradient norm :     0.0043338 Eh/α   predicted    -0.3167142E-04 ( -39.05%)
   displ. norm   :     0.3296372 α      lambda       -0.1246638E-03
   maximum displ.:     0.2309485 α      in ANC's #1, #3, #5, ...

........................................................................
.............................. CYCLE   51 ..............................
........................................................................

 iter      E             dE          RMSdq      gap      omega  full diag
   1    -51.0766117 -0.510766E+02  0.867E-02    3.31       0.0  T
   2    -51.0766143 -0.256677E-05  0.493E-02    3.30       1.0  T
   3    -51.0766042  0.101141E-04  0.206E-02    3.30       1.0  T
   4    -51.0766164 -0.121793E-04  0.341E-03    3.30       5.1  T
   5    -51.0766165 -0.103883E-06  0.155E-03    3.30      11.2  T
   6    -51.0766165 -0.237001E-07  0.498E-04    3.30      35.0  T
   7    -51.0766165 -0.237523E-08  0.239E-04    3.30      72.8  T
     SCC iter.                  ...        0 min,  0.037 sec
     gradient                   ...        0 min,  0.015 sec
 * total energy  :   -50.3648347 Eh     change       -0.9691973E-04 Eh
   gradient norm :     0.0021694 Eh/α   predicted    -0.6910436E-04 ( -28.70%)
   displ. norm   :     0.4551358 α      lambda       -0.1108728E-03
   maximum displ.:     0.3247501 α      in ANC's #1, #3, #5, ...

........................................................................
.............................. CYCLE   52 ..............................
........................................................................

 iter      E             dE          RMSdq      gap      omega  full diag
   1    -51.0761962 -0.510762E+02  0.127E-01    3.30       0.0  T
   2    -51.0762009 -0.468980E-05  0.712E-02    3.30       1.0  T
   3    -51.0762018 -0.845900E-06  0.719E-03    3.30       2.4  T
   4    -51.0762025 -0.759734E-06  0.410E-03    3.29       4.2  T
   5    -51.0762027 -0.191862E-06  0.129E-03    3.29      13.5  T
   6    -51.0762027 -0.192335E-07  0.527E-04    3.29      33.0  T
   7    -51.0762027 -0.124147E-08  0.235E-04    3.29      74.1  T
     SCC iter.                  ...        0 min,  0.010 sec
     gradient                   ...        0 min,  0.015 sec
 * total energy  :   -50.3649158 Eh     change       -0.8103384E-04 Eh
   gradient norm :     0.0024869 Eh/α   predicted    -0.6692393E-04 ( -17.41%)
   displ. norm   :     0.3271622 α      lambda       -0.8462978E-04
   maximum displ.:     0.2142428 α      in ANC's #1, #3, #5, ...

........................................................................
.............................. CYCLE   53 ..............................
........................................................................

 iter      E             dE          RMSdq      gap      omega  full diag
   1    -51.0775952 -0.510776E+02  0.772E-02    3.30       0.0  T
   2    -51.0775969 -0.170785E-05  0.442E-02    3.30       1.0  T
   3    -51.0775941  0.273079E-05  0.115E-02    3.30       1.5  T
   4    -51.0775976 -0.348431E-05  0.322E-03    3.30       5.4  T
   5    -51.0775977 -0.981171E-07  0.123E-03    3.30      14.1  T
   6    -51.0775977 -0.121407E-07  0.445E-04    3.30      39.1  T
   7    -51.0775977 -0.209070E-08  0.223E-04    3.30      78.1  T
     SCC iter.                  ...        0 min,  0.010 sec
     gradient                   ...        0 min,  0.043 sec
 * total energy  :   -50.3649691 Eh     change       -0.5335665E-04 Eh
   gradient norm :     0.0046681 Eh/α   predicted    -0.4684358E-04 ( -12.21%)
   displ. norm   :     0.3053578 α      lambda       -0.6013314E-04
   maximum displ.:     0.2142756 α      in ANC's #1, #3, #5, ...

........................................................................
.............................. CYCLE   54 ..............................
........................................................................

 iter      E             dE          RMSdq      gap      omega  full diag
   1    -51.0757667 -0.510758E+02  0.965E-02    3.30       0.0  T
   2    -51.0757696 -0.285394E-05  0.543E-02    3.30       1.0  T
   3    -51.0757646  0.498191E-05  0.151E-02    3.30       1.1  T
   4    -51.0757711 -0.653369E-05  0.291E-03    3.30       6.0  T
   5    -51.0757712 -0.321572E-07  0.123E-03    3.30      14.2  T
   6    -51.0757712 -0.140915E-07  0.368E-04    3.30      47.3  T
   7    -51.0757712 -0.671371E-09  0.169E-04    3.30     103.2  T
     SCC iter.                  ...        0 min,  0.010 sec
     gradient                   ...        0 min,  0.015 sec
 * total energy  :   -50.3650046 Eh     change       -0.3550537E-04 Eh
   gradient norm :     0.0037687 Eh/α   predicted    -0.3287248E-04 (  -7.42%)
   displ. norm   :     0.1160911 α      lambda       -0.5222136E-04
   maximum displ.:     0.0644522 α      in ANC's #7, #5, #2, ...

........................................................................
.............................. CYCLE   55 ..............................
........................................................................

 iter      E             dE          RMSdq      gap      omega  full diag
   1    -51.0775420 -0.510775E+02  0.346E-02    3.31       0.0  T
   2    -51.0775428 -0.790451E-06  0.198E-02    3.32       1.0  T
   3    -51.0775427  0.548370E-07  0.359E-03    3.32       4.8  T
   4    -51.0775429 -0.198104E-06  0.151E-03    3.32      11.5  T
   5    -51.0775429 -0.180238E-07  0.667E-04    3.32      26.1  T
   6    -51.0775430 -0.742435E-08  0.270E-04    3.32      64.5  T
     SCC iter.                  ...        0 min,  0.008 sec
     gradient                   ...        0 min,  0.049 sec
 * total energy  :   -50.3650339 Eh     change       -0.2925197E-04 Eh
   gradient norm :     0.0024825 Eh/α   predicted    -0.2646624E-04 (  -9.52%)
   displ. norm   :     0.1361828 α      lambda       -0.2494702E-04
   maximum displ.:     0.0799918 α      in ANC's #1, #3, #5, ...

........................................................................
.............................. CYCLE   56 ..............................
........................................................................

 iter      E             dE          RMSdq      gap      omega  full diag
   1    -51.0761397 -0.510761E+02  0.358E-02    3.32       0.0  T
   2    -51.0761405 -0.844273E-06  0.208E-02    3.33       1.0  T
   3    -51.0761369  0.364757E-05  0.138E-02    3.33       1.3  T
   4    -51.0761416 -0.477846E-05  0.143E-03    3.33      12.1  T
   5    -51.0761417 -0.189300E-07  0.640E-04    3.33      27.2  T
   6    -51.0761417 -0.900684E-09  0.243E-04    3.33      71.6  T
     SCC iter.                  ...        0 min,  0.008 sec
     gradient                   ...        0 min,  0.015 sec
 * total energy  :   -50.3650493 Eh     change       -0.1544070E-04 Eh
   gradient norm :     0.0022221 Eh/α   predicted    -0.1270563E-04 ( -17.71%)
   displ. norm   :     0.0610278 α      lambda       -0.1903215E-04
   maximum displ.:     0.0352464 α      in ANC's #2, #7, #4, ...

........................................................................
.............................. CYCLE   57 ..............................
........................................................................

 iter      E             dE          RMSdq      gap      omega  full diag
   1    -51.0759420 -0.510759E+02  0.179E-02    3.33       0.0  T
   2    -51.0759421 -0.137181E-06  0.101E-02    3.33       1.7  T
   3    -51.0759418  0.296006E-06  0.377E-03    3.33       4.6  T
   4    -51.0759422 -0.365841E-06  0.902E-04    3.33      19.3  T
[...]
   MERCHANTABILITY or FITNESS FOR A PARTICULAR PURPOSE.  See the
   GNU Lesser General Public License for more details.
   
   Cite this work as:
   * C. Bannwarth, E. Caldeweyher, S. Ehlert, A. Hansen, P. Pracht,
     J. Seibert, S. Spicher, S. Grimme, WIREs Comput. Mol. Sci., 2020, 11,
     e01493. DOI: 10.1002/wcms.1493
   
   for GFN2-xTB:
   * C. Bannwarth, S. Ehlert and S. Grimme., J. Chem. Theory Comput., 2019,
     15, 1652-1671. DOI: 10.1021/acs.jctc.8b01176
   for GFN1-xTB:
   * S. Grimme, C. Bannwarth, P. Shushkov, J. Chem. Theory Comput., 2017,
     13, 1989-2009. DOI: 10.1021/acs.jctc.7b00118
   for GFN0-xTB:
   * P. Pracht, E. Caldeweyher, S. Ehlert, S. Grimme, ChemRxiv, 2019, preprint.
     DOI: 10.26434/chemrxiv.8326202.v1
   for GFN-FF:
   * S. Spicher and S. Grimme, Angew. Chem. Int. Ed., 2020, 59, 15665-15673.
     DOI: 10.1002/anie.202004239
   
   for ALPB and GBSA implicit solvation:
   * S. Ehlert, M. Stahn, S. Spicher, S. Grimme, J. Chem. Theory Comput.,
     2021, 17, 4250-4261. DOI: 10.1021/acs.jctc.1c00471
   
   for ddCOSMO and CPCM-X implicit solvation:
   * M. Stahn, S. Ehlert, S. Grimme, J. Phys. Chem. A,
     2023, XX, XXXX-XXXX. DOI: 10.1021/acs.jpca.3c04382
   
   for DFT-D4:
   * E. Caldeweyher, C. Bannwarth and S. Grimme, J. Chem. Phys., 2017,
     147, 034112. DOI: 10.1063/1.4993215
   * E. Caldeweyher, S. Ehlert, A. Hansen, H. Neugebauer, S. Spicher,
     C. Bannwarth and S. Grimme, J. Chem. Phys., 2019, 150, 154122.
     DOI: 10.1063/1.5090222
   * E. Caldeweyher, J.-M. Mewes, S. Ehlert and S. Grimme, Phys. Chem. Chem. Phys.
     2020, 22, 8499-8512. DOI: 10.1039/D0CP00502A
   
   for sTDA-xTB:
   * S. Grimme and C. Bannwarth, J. Chem. Phys., 2016, 145, 054103.
     DOI: 10.1063/1.4959605
   
   in the mass-spec context:
   * V. Asgeirsson, C. Bauer and S. Grimme, Chem. Sci., 2017, 8, 4879.
     DOI: 10.1039/c7sc00601b
   * J. Koopman and S. Grimme, ACS Omega 2019, 4, 12, 15120-15133.
     DOI: 10.1021/acsomega.9b02011
   
   for metadynamics refer to:
   * S. Grimme, J. Chem. Theory Comput., 2019, 155, 2847-2862
     DOI: 10.1021/acs.jctc.9b00143
   
   for SPH calculations refer to:
   * S. Spicher and S. Grimme, J. Chem. Theory Comput., 2021, 17, 1701-1714
     DOI: 10.1021/acs.jctc.0c01306
   
   for ONIOM refer to:
   * C. Plett, A. Katbashev, S. Ehlert, S. Grimme, M. Bursch,
     Phys. Chem. Chem. Phys., 2023, 25, 17860-17868. DOI: 10.1039/D3CP02178E
   
   for DIPRO refer to:
   * J. Kohn, N. Gildemeister, S. Grimme, D. Fazzi, A. Hansen,
     J. Chem. Phys., 2023, just accepted.
   
   for PTB refer to:
   * S. Grimme, M. Mueller, A. Hansen, J. Chem. Phys., 2023, 158, 124111.
     DOI: 10.1063/5.0137838
   
   with help from (in alphabetical order)
   P. Atkinson, C. Bannwarth, F. Bohle, G. Brandenburg, E. Caldeweyher
   M. Checinski, S. Dohm, S. Ehlert, S. Ehrlich, I. Gerasimov, C. Hölzer
   A. Katbashev, J. Kohn, J. Koopman, C. Lavigne, S. Lehtola, F. März, M. Müller,
   F. Musil, H. Neugebauer, J. Pisarek, C. Plett, P. Pracht, F. Pultar,
   J. Seibert, P. Shushkov, S. Spicher, M. Stahn, M. Steiner, T. Strunk,
   J. Stückrath, T. Rose, and J. Unsleber
   
 * started run on 2025/05/15 at 16:20:27.527     
   ID    Z sym.   atoms
    1    6 C      1, 3, 5, 6, 8-11, 13, 16
    2    7 N      2, 4, 12, 14, 15, 17
    3   16 S      7
    4    1 H      18-33

           -------------------------------------------------
          |                Calculation Setup                |
           -------------------------------------------------

          program call               : xtb /rds/general/user/hgt20/home/callum/QDESCP/Cimetadine_rdkit_conf_3/Cimetadine_rdkit_conf_3.xyz --acc 1 --gfn 2 --chrg 0 --uhf 2 --etemp 300 --input /rds/general/user/hgt20/home/callum/QDESCP/Cimetadine_rdkit_conf_3/Cimetadine_rdkit_conf_3_xtb.inp -P 1
          hostname                   : login-c
          coordinate file            : /rds/general/user/hgt20/home/callum/QDESCP/Cimetadine_rdkit_conf_3/Cimetadine_rdkit_conf_3.xyz
          omp threads                :                     1


           -------------------------------------------------
          |                 G F N 2 - x T B                 |
           -------------------------------------------------

        Reference                      10.1021/acs.jctc.8b01176
      * Hamiltonian:
        H0-scaling (s, p, d)           1.850000    2.230000    2.230000
        zeta-weighting                 0.500000
      * Dispersion:
        s8                             2.700000
        a1                             0.520000
        a2                             5.000000
        s9                             5.000000
      * Repulsion:
        kExp                           1.500000    1.000000
        rExp                           1.000000
      * Coulomb:
        alpha                          2.000000
        third order                    shell-resolved
        anisotropic                    true
        a3                             3.000000
        a5                             4.000000
        cn-shift                       1.200000
        cn-exp                         4.000000
        max-rad                        5.000000


          ...................................................
          :                      SETUP                      :
          :.................................................:
          :  # basis functions                  90          :
          :  # atomic orbitals                  89          :
          :  # shells                           51          :
          :  # electrons                        92          :
          :  max. iterations                   250          :
          :  Hamiltonian                  GFN2-xTB          :
          :  restarted?                      false          :
          :  GBSA solvation                  false          :
          :  PC potential                    false          :
          :  electronic temp.          300.0000000     K    :
          :  accuracy                    1.0000000          :
          :  -> integral cutoff          0.2500000E+02      :
          :  -> integral neglect         0.1000000E-07      :
          :  -> SCF convergence          0.1000000E-05 Eh   :
          :  -> wf. convergence          0.1000000E-03 e    :
          :  Broyden damping             0.4000000          :
          :  net charge                          0          :
          :  unpaired electrons                  2          :
          ...................................................

 iter      E             dE          RMSdq      gap      omega  full diag
   1    -50.6222273 -0.506222E+02  0.435E+00    0.50       0.0  T
   2    -50.6150970  0.713038E-02  0.361E+00    1.66       1.0  T
   3    -50.7232302 -0.108133E+00  0.279E+00    0.29       1.0  T
   4    -50.7333531 -0.101228E-01  0.191E+00    0.64       1.0  T
   5    -50.7122026  0.211505E-01  0.234E+00    0.25       1.0  T
   6    -50.7586013 -0.463987E-01  0.185E+00    0.46       1.0  T
   7    -50.8274672 -0.688658E-01  0.131E+00    0.11       1.0  T
   8    -50.9005560 -0.730888E-01  0.814E-01    0.11       1.0  T
   9    -50.8895543  0.110016E-01  0.711E-01    0.08       1.0  T
  10    -50.8519743  0.375800E-01  0.105E+00    0.13       1.0  T
  11    -50.8866517 -0.346774E-01  0.975E-01    0.07       1.0  T
  12    -50.9153852 -0.287335E-01  0.513E-01    0.10       1.0  T
  13    -50.8971584  0.182268E-01  0.637E-01    0.09       1.0  T
  14    -50.9205439 -0.233855E-01  0.263E-01    0.07       1.0  T
  15    -50.9217231 -0.117915E-02  0.233E-01    0.07       1.0  T
  16    -50.9250458 -0.332274E-02  0.410E-02    0.07       1.0  T
  17    -50.9250151  0.307109E-04  0.405E-02    0.07       1.0  T
  18    -50.9250804 -0.653563E-04  0.152E-02    0.07       1.1  T
  19    -50.9250876 -0.712148E-05  0.100E-02    0.07       1.7  T
  20    -50.9250783  0.924010E-05  0.148E-02    0.07       1.2  T
  21    -50.9250923 -0.140059E-04  0.626E-03    0.07       2.8  T
  22    -50.9250932 -0.827361E-06  0.338E-03    0.07       5.2  T
  23    -50.9250937 -0.591208E-06  0.603E-04    0.07      28.9  T
  24    -50.9250938 -0.160366E-07  0.245E-04    0.07      70.9  T

   *** convergence criteria satisfied after 24 iterations ***

         #    Occupation            Energy/Eh            Energy/eV
      -------------------------------------------------------------
         1        2.0000           -0.7208736             -19.6160
       ...           ...                  ...                  ...
        41        2.0000           -0.3983393             -10.8394
        42        2.0000           -0.3938359             -10.7168
        43        1.9996           -0.3843184             -10.4578
        44        1.9817           -0.3806162             -10.3571
        45        1.8036           -0.3781740             -10.2906
        46        1.2151           -0.3756056             -10.2207
        47        0.7691           -0.2138916              -5.8203 (HOMO)
        48        0.1946           -0.2113991              -5.7525 (LUMO)
        49        0.0362           -0.2096310              -5.7044
        50                         -0.1860306              -5.0622
        51                         -0.1464671              -3.9856
        52                         -0.1436008              -3.9076
       ...                                ...                  ...
        89                          1.2381959              33.6930
      -------------------------------------------------------------
                  HL-Gap            0.0024924 Eh            0.0678 eV
             Fermi-level           -0.2947918 Eh           -8.0217 eV

 transition dipole moment (au) for excitation:          46          47
     X       Y       Z   
   0.8549  -0.1343   0.3612  total (au/Debye):    0.938   2.384
 dE (eV)             :    4.400
 oscillator strength :  0.13407E+00

 SCC (total)                   0 d,  0 h,  0 min,  0.114 sec
 SCC setup                      ...        0 min,  0.000 sec (  0.218%)
 Dispersion                     ...        0 min,  0.000 sec (  0.248%)
 classical contributions        ...        0 min,  0.000 sec (  0.080%)
 integral evaluation            ...        0 min,  0.006 sec (  4.983%)
 iterations                     ...        0 min,  0.034 sec ( 29.854%)
 molecular gradient             ...        0 min,  0.068 sec ( 59.628%)
 printout                       ...        0 min,  0.006 sec (  4.983%)

         :::::::::::::::::::::::::::::::::::::::::::::::::::::
         ::                     SUMMARY                     ::
         :::::::::::::::::::::::::::::::::::::::::::::::::::::
         :: total energy             -50.213303916052 Eh    ::
         :: gradient norm              0.111979480514 Eh/a0 ::
         :: HOMO-LUMO gap              0.067822617666 eV    ::
         ::.................................................::
         :: SCC energy               -50.924643035378 Eh    ::
         :: -> isotropic ES            0.050326856928 Eh    ::
         :: -> anisotropic ES          0.004038897822 Eh    ::
         :: -> anisotropic XC          0.036193349093 Eh    ::
         :: -> dispersion             -0.034480068360 Eh    ::
         :: repulsion energy           0.711339119326 Eh    ::
         :: add. restraining           0.000000000000 Eh    ::
         :: total charge               0.000000000065 e     ::
         :::::::::::::::::::::::::::::::::::::::::::::::::::::

           -------------------------------------------------
          |                Property Printout                |
           -------------------------------------------------

    * Orbital Energies and Occupations

         #    Occupation            Energy/Eh            Energy/eV
      -------------------------------------------------------------
         1        2.0000           -0.7208736             -19.6160
       ...           ...                  ...                  ...
        35        2.0000           -0.4670289             -12.7085
        36        2.0000           -0.4613339             -12.5535
        37        2.0000           -0.4540146             -12.3544
        38        2.0000           -0.4479101             -12.1883
        39        2.0000           -0.4342029             -11.8153
        40        2.0000           -0.4038755             -10.9900
        41        2.0000           -0.3983393             -10.8394
        42        2.0000           -0.3938359             -10.7168
        43        1.9996           -0.3843184             -10.4578
        44        1.9817           -0.3806162             -10.3571
        45        1.8036           -0.3781740             -10.2906
        46        1.2151           -0.3756056             -10.2207
        47        0.7691           -0.2138916              -5.8203 (HOMO)
        48        0.1946           -0.2113991              -5.7525 (LUMO)
        49        0.0362           -0.2096310              -5.7044
        50                         -0.1860306              -5.0622
        51                         -0.1464671              -3.9856
        52                         -0.1436008              -3.9076
        53                         -0.0976072              -2.6560
        54                         -0.0253569              -0.6900
        55                         -0.0140457              -0.3822
        56                         -0.0073114              -0.1990
        57                          0.0046988               0.1279
        58                          0.0186538               0.5076
       ...                                ...                  ...
        89                          1.2381959              33.6930
      -------------------------------------------------------------
                  HL-Gap            0.0024924 Eh            0.0678 eV
             Fermi-level           -0.2947918 Eh           -8.0217 eV

     #   Z          covCN         q      C6AA      α(0)
     1   6 C        3.685    -0.037    21.450     6.631
     2   7 N        2.695    -0.192    25.164     7.450
     3   6 C        2.774     0.191    23.907     8.008
     4   7 N        2.710    -0.184    24.974     7.422
     5   6 C        3.760     0.009    20.469     6.450
     6   6 C        3.794    -0.024    21.009     6.527
     7  16 S        1.988    -0.159   147.757    20.459
     8   6 C        3.795    -0.031    21.135     6.546
     9   6 C        3.216     0.038    26.487     8.372
    10   6 C        3.068     0.013    27.658     8.623
    11   6 C        3.754    -0.109    22.639     6.785
    12   7 N        2.817    -0.114    23.474     7.196
    13   6 C        3.118     0.085    25.957     8.345
    14   7 N        1.917    -0.314    28.980     7.982
    15   7 N        1.841    -0.234    26.971     7.696
    16   6 C        1.851     0.165    27.172     8.420
    17   7 N        0.912    -0.335    28.611     7.736
    18   1 H        0.924     0.046     2.368     2.407
    19   1 H        0.924     0.051     2.313     2.378
    20   1 H        0.925     0.074     2.044     2.236
    21   1 H        0.860     0.193     1.143     1.675
    22   1 H        0.860     0.195     1.131     1.666
    23   1 H        0.924     0.078     1.999     2.211
    24   1 H        0.924     0.059     2.208     2.324
    25   1 H        0.925     0.065     2.137     2.286
    26   1 H        0.925     0.054     2.267     2.354
    27   1 H        0.925     0.044     2.399     2.422
    28   1 H        0.925     0.043     2.408     2.427
    29   1 H        0.925     0.056     2.246     2.343
    30   1 H        0.925     0.040     2.446     2.446
    31   1 H        0.925     0.050     2.318     2.381
    32   1 H        0.860     0.157     1.352     1.821
    33   1 H        0.926     0.025     2.658     2.549

 Mol. C6AA /au·bohr⁶  :      13084.504072
 Mol. C8AA /au·bohr⁸  :     325197.776244
 Mol. α(0) /au        :        176.574229


Wiberg/Mayer (AO) data.
largest (>0.10) Wiberg bond orders for each atom

 ---------------------------------------------------------------------------
     #   Z sym  total        # sym  WBO       # sym  WBO       # sym  WBO
 ---------------------------------------------------------------------------
     1   6 C    3.965 --     2 N    1.018    18 H    0.973    19 H    0.972
                            20 H    0.965
     2   7 N    3.305 --     3 C    1.173     1 C    1.018    21 H    0.902
     3   6 C    3.772 --    15 N    1.308     2 N    1.173     4 N    1.141
     4   7 N    3.336 --     3 C    1.141     5 C    1.024    22 H    0.900
     5   6 C    3.962 --     4 N    1.024    24 H    0.970     6 C    0.965
                            23 H    0.954
     6   6 C    3.945 --     7 S    0.975    26 H    0.967    25 H    0.966
                             5 C    0.965
     7  16 S    2.195 --     6 C    0.975     8 C    0.828
     8   6 C    3.921 --     9 C    1.061    27 H    0.970    28 H    0.967
                             7 S    0.828
     9   6 C    3.907 --    10 C    1.388    14 N    1.241     8 C    1.061
    10   6 C    3.799 --     9 C    1.388    12 N    1.157    11 C    1.035
    11   6 C    3.994 --    10 C    1.035    30 H    0.983    31 H    0.972
                            29 H    0.965
    12   7 N    3.513 --    13 C    1.222    10 C    1.157    32 H    0.945
                            14 N    0.103
    13   6 C    3.888 --    14 N    1.510    12 N    1.222    33 H    0.966
    14   7 N    3.034 --    13 C    1.510     9 C    1.241    12 N    0.103
    15   7 N    3.084 --    16 C    1.390     3 C    1.308    17 N    0.167
    16   6 C    3.873 --    17 N    2.408    15 N    1.390
    17   7 N    2.648 --    16 C    2.408    15 N    0.167
    18   1 H    0.991 --     1 C    0.973
    19   1 H    0.989 --     1 C    0.972
    20   1 H    0.994 --     1 C    0.965
    21   1 H    0.961 --     2 N    0.902
    22   1 H    0.960 --     4 N    0.900
    23   1 H    0.990 --     5 C    0.954
    24   1 H    0.994 --     5 C    0.970
    25   1 H    0.992 --     6 C    0.966
    26   1 H    0.992 --     6 C    0.967
    27   1 H    0.997 --     8 C    0.970
    28   1 H    0.995 --     8 C    0.967
    29   1 H    0.989 --    11 C    0.965
    30   1 H    0.998 --    11 C    0.983
    31   1 H    0.993 --    11 C    0.972
    32   1 H    0.975 --    12 N    0.945
    33   1 H    0.999 --    13 C    0.966
 ---------------------------------------------------------------------------

Topologies differ in total number of bonds
Writing topology from bond orders to xtbtopo.mol

molecular dipole:
                 x           y           z       tot (Debye)
 q only:        2.243      -0.449       1.437
   full:        2.871      -1.129       1.807       9.088
molecular quadrupole (traceless):
                xx          xy          yy          xz          yz          zz
 q only:      -18.250       1.431      14.155     -10.515      -0.619       4.094
  q+dip:      -22.270      -4.045      12.537      -9.138      -2.334       9.733
   full:      -23.537      -3.917      14.218     -10.694      -2.194       9.319


           -------------------------------------------------
          | TOTAL ENERGY              -50.213303916052 Eh   |
          | GRADIENT NORM               0.111979480514 Eh/α |
          | HOMO-LUMO GAP               0.067822617666 eV   |
           -------------------------------------------------

------------------------------------------------------------------------
 * finished run on 2025/05/15 at 16:20:27.701     
------------------------------------------------------------------------
 total:
 * wall-time:     0 d,  0 h,  0 min,  0.174 sec
 *  cpu-time:     0 d,  0 h,  0 min,  0.071 sec
 * ratio c/w:     0.411 speedup
 SCF:
 * wall-time:     0 d,  0 h,  0 min,  0.114 sec
 *  cpu-time:     0 d,  0 h,  0 min,  0.062 sec
 * ratio c/w:     0.543 speedup


