38
 energy: -65.473575776021 gnorm: 0.000178443411 xtb: 6.7.1 (edcfbbe)
O           -4.13125936091189        2.14340075453860       -0.68337157757089
C           -2.99715696257682        1.87125535662014        0.11318775016675
C           -2.18479560361621        0.74506196932110       -0.53353255992845
O           -1.02139994988537        0.61129544486731        0.25001301150889
C           -0.11718128436897       -0.36019828673834       -0.23279047705949
C           -0.76847347069515       -1.74934006188293       -0.27825341645883
C           -2.05224276988241       -1.69037014922088       -1.10583851717033
C           -2.97029478501620       -0.57503832333340       -0.58944651989533
O           -4.07372645147196       -0.51347637595646       -1.45739310900318
O           -2.67663143032199       -2.94749360958782       -1.03186352616065
O            0.16642128193164       -2.63281466183803       -0.83507066293788
O            0.95924063133631       -0.45856556176385        0.62296889023289
C            1.98762300429166        0.45697933354809        0.51453723757525
C            1.81246365339284        1.75680312928453        0.06878670315227
C            2.89738983147628        2.61652624717172        0.01558219172031
C            4.14970781135081        2.18166206258611        0.40678708598687
C            4.32056202224395        0.87877116797828        0.84627220083300
C            3.25166525024013        0.00039352248126        0.90481585423656
C            3.41312054768279       -1.43605383755720        1.34428155393642
O            3.12257456910011       -2.36230146305440        0.32664265980409
H           -4.60667862094570        2.89153269693668       -0.30726775193231
H           -3.29036297544730        1.55681038113826        1.12281018758363
H           -2.35100321432020        2.75256094850653        0.19797067669771
H           -1.92371921583063        1.03396094584320       -1.56617470016913
H            0.21176224066342       -0.08418312583345       -1.25523964362220
H           -1.01720075829140       -2.04476863331204        0.75220932915491
H           -1.79096007408696       -1.46393578008762       -2.15358382012934
H           -3.29775574830781       -0.83443505496280        0.43193989657737
H           -4.47416401949296        0.36433442934152       -1.37245135796762
H           -3.56125420894062       -2.84629736701249       -1.40463338995292
H           -0.28396907725852       -3.47503129296486       -0.97925330251284
H            0.82904872177989        2.09724011773841       -0.21493912099214
H            2.75635811783337        3.62982247667399       -0.33004975858224
H            4.99412092146037        2.85299390933159        0.36652274958653
H            5.30036068353837        0.53371312048125        1.14146001341813
H            4.45218928915052       -1.62267037431410        1.62719348844192
H            2.77121647544590       -1.61305698691307        2.22094563392036
H            2.19450492874864       -2.26488706805620        0.06772609750912
