----- Optimization -----
      -----------------------------------------------------------      
     |                   =====================                   |     
     |                           x T B                           |     
     |                   =====================                   |     
     |                         S. Grimme                         |     
     |          Mulliken Center for Theoretical Chemistry        |     
     |                    University of Bonn                     |     
      -----------------------------------------------------------      

   * xtb version 6.7.1 (edcfbbe) compiled by 'conda@3ef47c1a292c' on 2024-11-25

   xtb is free software: you can redistribute it and/or modify it under
   the terms of the GNU Lesser General Public License as published by
   the Free Software Foundation, either version 3 of the License, or
   (at your option) any later version.
   
   xtb is distributed in the hope that it will be useful,
   but WITHOUT ANY WARRANTY; without even the implied warranty of
   MERCHANTABILITY or FITNESS FOR A PARTICULAR PURPOSE.  See the
   GNU Lesser General Public License for more details.
   
   Cite this work as:
   * C. Bannwarth, E. Caldeweyher, S. Ehlert, A. Hansen, P. Pracht,
     J. Seibert, S. Spicher, S. Grimme, WIREs Comput. Mol. Sci., 2020, 11,
     e01493. DOI: 10.1002/wcms.1493
   
   for GFN2-xTB:
   * C. Bannwarth, S. Ehlert and S. Grimme., J. Chem. Theory Comput., 2019,
     15, 1652-1671. DOI: 10.1021/acs.jctc.8b01176
   for GFN1-xTB:
   * S. Grimme, C. Bannwarth, P. Shushkov, J. Chem. Theory Comput., 2017,
     13, 1989-2009. DOI: 10.1021/acs.jctc.7b00118
   for GFN0-xTB:
   * P. Pracht, E. Caldeweyher, S. Ehlert, S. Grimme, ChemRxiv, 2019, preprint.
     DOI: 10.26434/chemrxiv.8326202.v1
   for GFN-FF:
   * S. Spicher and S. Grimme, Angew. Chem. Int. Ed., 2020, 59, 15665-15673.
     DOI: 10.1002/anie.202004239
   
   for ALPB and GBSA implicit solvation:
   * S. Ehlert, M. Stahn, S. Spicher, S. Grimme, J. Chem. Theory Comput.,
     2021, 17, 4250-4261. DOI: 10.1021/acs.jctc.1c00471
   
   for ddCOSMO and CPCM-X implicit solvation:
   * M. Stahn, S. Ehlert, S. Grimme, J. Phys. Chem. A,
     2023, XX, XXXX-XXXX. DOI: 10.1021/acs.jpca.3c04382
   
   for DFT-D4:
   * E. Caldeweyher, C. Bannwarth and S. Grimme, J. Chem. Phys., 2017,
     147, 034112. DOI: 10.1063/1.4993215
   * E. Caldeweyher, S. Ehlert, A. Hansen, H. Neugebauer, S. Spicher,
     C. Bannwarth and S. Grimme, J. Chem. Phys., 2019, 150, 154122.
     DOI: 10.1063/1.5090222
   * E. Caldeweyher, J.-M. Mewes, S. Ehlert and S. Grimme, Phys. Chem. Chem. Phys.
     2020, 22, 8499-8512. DOI: 10.1039/D0CP00502A
   
   for sTDA-xTB:
   * S. Grimme and C. Bannwarth, J. Chem. Phys., 2016, 145, 054103.
     DOI: 10.1063/1.4959605
   
   in the mass-spec context:
   * V. Asgeirsson, C. Bauer and S. Grimme, Chem. Sci., 2017, 8, 4879.
     DOI: 10.1039/c7sc00601b
   * J. Koopman and S. Grimme, ACS Omega 2019, 4, 12, 15120-15133.
     DOI: 10.1021/acsomega.9b02011
   
   for metadynamics refer to:
   * S. Grimme, J. Chem. Theory Comput., 2019, 155, 2847-2862
     DOI: 10.1021/acs.jctc.9b00143
   
   for SPH calculations refer to:
   * S. Spicher and S. Grimme, J. Chem. Theory Comput., 2021, 17, 1701-1714
     DOI: 10.1021/acs.jctc.0c01306
   
   for ONIOM refer to:
   * C. Plett, A. Katbashev, S. Ehlert, S. Grimme, M. Bursch,
     Phys. Chem. Chem. Phys., 2023, 25, 17860-17868. DOI: 10.1039/D3CP02178E
   
   for DIPRO refer to:
   * J. Kohn, N. Gildemeister, S. Grimme, D. Fazzi, A. Hansen,
     J. Chem. Phys., 2023, just accepted.
   
   for PTB refer to:
   * S. Grimme, M. Mueller, A. Hansen, J. Chem. Phys., 2023, 158, 124111.
     DOI: 10.1063/5.0137838
   
   with help from (in alphabetical order)
   P. Atkinson, C. Bannwarth, F. Bohle, G. Brandenburg, E. Caldeweyher
   M. Checinski, S. Dohm, S. Ehlert, S. Ehrlich, I. Gerasimov, C. Hölzer
   A. Katbashev, J. Kohn, J. Koopman, C. Lavigne, S. Lehtola, F. März, M. Müller,
   F. Musil, H. Neugebauer, J. Pisarek, C. Plett, P. Pracht, F. Pultar,
   J. Seibert, P. Shushkov, S. Spicher, M. Stahn, M. Steiner, T. Strunk,
   J. Stückrath, T. Rose, and J. Unsleber
   
 * started run on 2025/05/15 at 16:10:50.182     
   ID    Z sym.   atoms
    1    8 O      1, 4, 9-12, 20
    2    6 C      2, 3, 5-8, 13-19
    3    1 H      21-38

           -------------------------------------------------
          |                Calculation Setup                |
           -------------------------------------------------

          program call               : xtb /rds/general/user/hgt20/home/callum/QDESCP/Salicin_rdkit_conf_9/Salicin_rdkit_conf_9.xyz --opt normal --acc 1 --gfn 2 --chrg 0 --uhf 0 -P 1
          hostname                   : login-c
          coordinate file            : /rds/general/user/hgt20/home/callum/QDESCP/Salicin_rdkit_conf_9/Salicin_rdkit_conf_9.xyz
          omp threads                :                     1


           -------------------------------------------------
          |                 G F N 2 - x T B                 |
           -------------------------------------------------

        Reference                      10.1021/acs.jctc.8b01176
      * Hamiltonian:
        H0-scaling (s, p, d)           1.850000    2.230000    2.230000
        zeta-weighting                 0.500000
      * Dispersion:
        s8                             2.700000
        a1                             0.520000
        a2                             5.000000
        s9                             5.000000
      * Repulsion:
        kExp                           1.500000    1.000000
        rExp                           1.000000
      * Coulomb:
        alpha                          2.000000
        third order                    shell-resolved
        anisotropic                    true
        a3                             3.000000
        a5                             4.000000
        cn-shift                       1.200000
        cn-exp                         4.000000
        max-rad                        5.000000


          ...................................................
          :                      SETUP                      :
          :.................................................:
          :  # basis functions                  98          :
          :  # atomic orbitals                  98          :
          :  # shells                           58          :
          :  # electrons                       112          :
          :  max. iterations                   250          :
          :  Hamiltonian                  GFN2-xTB          :
          :  restarted?                      false          :
          :  GBSA solvation                  false          :
          :  PC potential                    false          :
          :  electronic temp.          300.0000000     K    :
          :  accuracy                    1.0000000          :
          :  -> integral cutoff          0.2500000E+02      :
          :  -> integral neglect         0.1000000E-07      :
          :  -> SCF convergence          0.1000000E-05 Eh   :
          :  -> wf. convergence          0.1000000E-03 e    :
          :  Broyden damping             0.4000000          :
          :  net charge                          0          :
          :  unpaired electrons                  0          :
          ...................................................

 iter      E             dE          RMSdq      gap      omega  full diag
   1    -66.0021204 -0.660021E+02  0.467E+00    4.35       0.0  T
   2    -66.0651668 -0.630464E-01  0.261E+00    4.37       1.0  T
   3    -66.0621549  0.301192E-02  0.908E-01    4.16       1.0  T
   4    -66.0683003 -0.614540E-02  0.299E-01    4.24       1.0  T
   5    -66.0701180 -0.181770E-02  0.921E-02    4.29       1.0  T
   6    -66.0701555 -0.375381E-04  0.435E-02    4.30       1.0  T
   7    -66.0701645 -0.897363E-05  0.157E-02    4.31       1.0  T
   8    -66.0701671 -0.257852E-05  0.526E-03    4.30       3.1  T
   9    -66.0701674 -0.291820E-06  0.220E-03    4.30       7.4  T
  10    -66.0701674 -0.357890E-07  0.895E-04    4.30      18.1  T
  11    -66.0701674 -0.108608E-07  0.389E-04    4.30      41.7  T

   *** convergence criteria satisfied after 11 iterations ***

         #    Occupation            Energy/Eh            Energy/eV
      -------------------------------------------------------------
         1        2.0000           -0.7314288             -19.9032
       ...           ...                  ...                  ...
        50        2.0000           -0.4289664             -11.6728
        51        2.0000           -0.4262481             -11.5988
        52        2.0000           -0.4218515             -11.4792
        53        2.0000           -0.4173703             -11.3572
        54        2.0000           -0.4015176             -10.9258
        55        2.0000           -0.3929615             -10.6930
        56        2.0000           -0.3861493             -10.5077 (HOMO)
        57                         -0.2281506              -6.2083 (LUMO)
        58                         -0.2262387              -6.1563
        59                         -0.1075708              -2.9272
        60                         -0.0783125              -2.1310
        61                         -0.0381225              -1.0374
       ...                                ...                  ...
        98                          0.6296919              17.1348
      -------------------------------------------------------------
                  HL-Gap            0.1579987 Eh            4.2994 eV
             Fermi-level           -0.3071500 Eh           -8.3580 eV

 SCC (total)                   0 d,  0 h,  0 min,  0.045 sec
 SCC setup                      ...        0 min,  0.000 sec (  0.751%)
 Dispersion                     ...        0 min,  0.000 sec (  0.889%)
 classical contributions        ...        0 min,  0.000 sec (  0.269%)
 integral evaluation            ...        0 min,  0.006 sec ( 14.319%)
 iterations                     ...        0 min,  0.019 sec ( 42.435%)
 molecular gradient             ...        0 min,  0.019 sec ( 40.954%)
 printout                       ...        0 min,  0.000 sec (  0.369%)

         :::::::::::::::::::::::::::::::::::::::::::::::::::::
         ::                     SUMMARY                     ::
         :::::::::::::::::::::::::::::::::::::::::::::::::::::
         :: total energy             -65.457675917325 Eh    ::
         :: gradient norm              0.080114378353 Eh/a0 ::
         :: HOMO-LUMO gap              4.299363560860 eV    ::
         ::.................................................::
         :: SCC energy               -66.069912371225 Eh    ::
         :: -> isotropic ES            0.157737731866 Eh    ::
         :: -> anisotropic ES         -0.006470421860 Eh    ::
         :: -> anisotropic XC          0.000027760074 Eh    ::
         :: -> dispersion             -0.036796035091 Eh    ::
         :: repulsion energy           0.612236453900 Eh    ::
         :: add. restraining           0.000000000000 Eh    ::
         :: total charge               0.000000000000 e     ::
         :::::::::::::::::::::::::::::::::::::::::::::::::::::

      ----------------------------------------------------------- 
     |                   =====================                   |
     |                        A N C O P T                        |
     |                   =====================                   |
     |               Approximate Normal Coordinate               |
     |                Rational Function Optimizer                |
      ----------------------------------------------------------- 
      ----------------------------------------------------------- 
     |                   =====================                   |
     |                        A N C O P T                        |
     |                   =====================                   |
     |               Approximate Normal Coordinate               |
     |                Rational Function Optimizer                |
      ----------------------------------------------------------- 

          ...................................................
          :                      SETUP                      :
          :.................................................:
          :   optimization level            normal          :
          :   max. optcycles                   200          :
          :   ANC micro-cycles                  20          :
          :   degrees of freedom               108          :
          :.................................................:
          :   RF solver                   davidson          :
          :   write xtbopt.log                true          :
          :   linear?                        false          :
          :   energy convergence         0.5000000E-05 Eh   :
          :   grad. convergence          0.1000000E-02 Eh/α :
          :   maxmium RF displ.          1.0000000          :
          :   Hlow (freq-cutoff)         0.1000000E-01      :
          :   Hmax (freq-cutoff)         5.0000000          :
          :   S6 in model hess.         20.0000000          :
          ...................................................

generating ANC from exact Hessian ...
Using Lindh-Hessian (1995)
 Shifting diagonal of input Hessian by    9.5281609798437694E-003
 Lowest  eigenvalues of input Hessian
    0.000000    0.000000    0.000000    0.000000    0.000000    0.000000
    0.010000    0.010446    0.011235    0.012821    0.012966    0.014381
    0.015171    0.016251    0.018663    0.019574    0.020764    0.021940
 Highest eigenvalues
    1.525264    1.574473    1.699079    1.838144    1.956219    2.019101


........................................................................
.............................. CYCLE    1 ..............................
........................................................................

 iter      E             dE          RMSdq      gap      omega  full diag
   1    -66.0701674 -0.660702E+02  0.136E-04    4.30       0.0  T
   2    -66.0701674 -0.828351E-10  0.825E-05    4.30     196.6  T
   3    -66.0701674 -0.753175E-11  0.419E-05    4.30     387.1  T
     SCC iter.                  ...        0 min,  0.006 sec
     gradient                   ...        0 min,  0.019 sec
 * total energy  :   -65.4576759 Eh     change       -0.2947360E-08 Eh
   gradient norm :     0.0801163 Eh/α   predicted     0.0000000E+00 (-100.00%)
   displ. norm   :     0.2858013 α      lambda       -0.1156012E-01
   maximum displ.:     0.0905997 α      in ANC's #4, #22, #17, ...

........................................................................
.............................. CYCLE    2 ..............................
........................................................................

 iter      E             dE          RMSdq      gap      omega  full diag
   1    -66.0998815 -0.660999E+02  0.171E-01    4.36       0.0  T
   2    -66.0999222 -0.406767E-04  0.104E-01    4.35       1.0  T
   3    -66.0998891  0.331138E-04  0.350E-02    4.36       1.0  T
   4    -66.0999334 -0.443222E-04  0.872E-03    4.35       1.9  T
   5    -66.0999350 -0.164940E-05  0.396E-03    4.35       4.1  T
   6    -66.0999351 -0.732005E-07  0.178E-03    4.35       9.1  T
   7    -66.0999351 -0.161682E-07  0.712E-04    4.35      22.8  T
   8    -66.0999351 -0.613603E-08  0.253E-04    4.35      64.2  T
     SCC iter.                  ...        0 min,  0.056 sec
     gradient                   ...        0 min,  0.019 sec
 * total energy  :   -65.4658488 Eh     change       -0.8172860E-02 Eh
   gradient norm :     0.0415404 Eh/α   predicted    -0.6253717E-02 ( -23.48%)
   displ. norm   :     0.2946159 α      lambda       -0.4679019E-02
   maximum displ.:     0.1371211 α      in ANC's #4, #3, #17, ...

........................................................................
.............................. CYCLE    3 ..............................
........................................................................

 iter      E             dE          RMSdq      gap      omega  full diag
   1    -66.1160542 -0.661161E+02  0.134E-01    4.36       0.0  T
   2    -66.1160826 -0.283347E-04  0.803E-02    4.36       1.0  T
   3    -66.1160720  0.105445E-04  0.250E-02    4.36       1.0  T
   4    -66.1160883 -0.162559E-04  0.721E-03    4.36       2.3  T
   5    -66.1160894 -0.111937E-05  0.337E-03    4.36       4.8  T
   6    -66.1160895 -0.889469E-07  0.141E-03    4.36      11.5  T
   7    -66.1160895 -0.601732E-08  0.615E-04    4.36      26.4  T
   8    -66.1160895 -0.448803E-08  0.180E-04    4.36      90.2  T
     SCC iter.                  ...        0 min,  0.013 sec
     gradient                   ...        0 min,  0.055 sec
 * total energy  :   -65.4686427 Eh     change       -0.2793931E-02 Eh
   gradient norm :     0.0117323 Eh/α   predicted    -0.2544087E-02 (  -8.94%)
   displ. norm   :     0.2168286 α      lambda       -0.8070658E-03
   maximum displ.:     0.1357053 α      in ANC's #4, #3, #8, ...

........................................................................
.............................. CYCLE    4 ..............................
........................................................................

 iter      E             dE          RMSdq      gap      omega  full diag
   1    -66.1162900 -0.661163E+02  0.725E-02    4.36       0.0  T
   2    -66.1162937 -0.366795E-05  0.432E-02    4.37       1.0  T
   3    -66.1162931  0.643755E-06  0.684E-03    4.37       2.4  T
   4    -66.1162942 -0.117032E-05  0.265E-03    4.37       6.1  T
   5    -66.1162944 -0.149989E-06  0.115E-03    4.37      14.2  T
   6    -66.1162944 -0.146713E-07  0.491E-04    4.37      33.0  T
   7    -66.1162944 -0.413692E-09  0.188E-04    4.37      86.2  T
     SCC iter.                  ...        0 min,  0.012 sec
     gradient                   ...        0 min,  0.019 sec
 * total energy  :   -65.4692492 Eh     change       -0.6064966E-03 Eh
   gradient norm :     0.0073566 Eh/α   predicted    -0.4225151E-03 ( -30.34%)
   displ. norm   :     0.3347291 α      lambda       -0.7320961E-03
   maximum displ.:     0.2139806 α      in ANC's #4, #3, #7, ...

........................................................................
.............................. CYCLE    5 ..............................
........................................................................

 iter      E             dE          RMSdq      gap      omega  full diag
   1    -66.1144338 -0.661144E+02  0.102E-01    4.36       0.0  T
   2    -66.1144390 -0.526925E-05  0.613E-02    4.37       1.0  T
   3    -66.1144351  0.390360E-05  0.120E-02    4.37       1.4  T
   4    -66.1144403 -0.513644E-05  0.328E-03    4.37       4.9  T
   5    -66.1144404 -0.176562E-06  0.141E-03    4.37      11.5  T
   6    -66.1144404 -0.111157E-07  0.618E-04    4.37      26.2  T
   7    -66.1144404 -0.106355E-08  0.238E-04    4.37      68.0  T
     SCC iter.                  ...        0 min,  0.056 sec
     gradient                   ...        0 min,  0.018 sec
 * total energy  :   -65.4697706 Eh     change       -0.5213703E-03 Eh
   gradient norm :     0.0077983 Eh/α   predicted    -0.4070646E-03 ( -21.92%)
   displ. norm   :     0.2986010 α      lambda       -0.4186235E-03
   maximum displ.:     0.1964578 α      in ANC's #3, #4, #7, ...

........................................................................
.............................. CYCLE    6 ..............................
........................................................................

 iter      E             dE          RMSdq      gap      omega  full diag
   1    -66.1137082 -0.661137E+02  0.847E-02    4.37       0.0  T
   2    -66.1137112 -0.299275E-05  0.506E-02    4.38       1.0  T
   3    -66.1137076  0.362453E-05  0.113E-02    4.38       1.4  T
   4    -66.1137122 -0.461704E-05  0.240E-03    4.38       6.8  T
   5    -66.1137123 -0.657293E-07  0.116E-03    4.38      14.0  T
   6    -66.1137123 -0.634648E-08  0.493E-04    4.38      32.9  T
   7    -66.1137123 -0.116302E-08  0.163E-04    4.38      99.8  T
     SCC iter.                  ...        0 min,  0.011 sec
     gradient                   ...        0 min,  0.019 sec
 * total energy  :   -65.4701082 Eh     change       -0.3376471E-03 Eh
   gradient norm :     0.0079077 Eh/α   predicted    -0.2279747E-03 ( -32.48%)
   displ. norm   :     0.3557537 α      lambda       -0.4574294E-03
   maximum displ.:     0.2391043 α      in ANC's #3, #4, #7, ...

........................................................................
.............................. CYCLE    7 ..............................
........................................................................

 iter      E             dE          RMSdq      gap      omega  full diag
   1    -66.1141389 -0.661141E+02  0.975E-02    4.38       0.0  T
   2    -66.1141424 -0.344468E-05  0.579E-02    4.39       1.0  T
   3    -66.1141373  0.503152E-05  0.135E-02    4.39       1.2  T
   4    -66.1141437 -0.638899E-05  0.256E-03    4.39       6.3  T
   5    -66.1141438 -0.551151E-07  0.131E-03    4.39      12.4  T
   6    -66.1141438 -0.763671E-08  0.535E-04    4.39      30.3  T
   7    -66.1141438 -0.186465E-08  0.155E-04    4.39     104.9  T
     SCC iter.                  ...        0 min,  0.011 sec
     gradient                   ...        0 min,  0.019 sec
 * total energy  :   -65.4704853 Eh     change       -0.3771188E-03 Eh
   gradient norm :     0.0064734 Eh/α   predicted    -0.2576617E-03 ( -31.68%)
   displ. norm   :     0.4260095 α      lambda       -0.4908224E-03
   maximum displ.:     0.2940210 α      in ANC's #3, #4, #7, ...

........................................................................
.............................. CYCLE    8 ..............................
........................................................................

 iter      E             dE          RMSdq      gap      omega  full diag
   1    -66.1152417 -0.661152E+02  0.114E-01    4.40       0.0  T
   2    -66.1152458 -0.412830E-05  0.674E-02    4.40       1.0  T
   3    -66.1152387  0.714458E-05  0.161E-02    4.40       1.0  T
   4    -66.1152477 -0.901991E-05  0.283E-03    4.40       5.7  T
   5    -66.1152478 -0.477385E-07  0.148E-03    4.40      10.9  T
   6    -66.1152478 -0.960377E-08  0.595E-04    4.40      27.3  T
   7    -66.1152478 -0.296238E-08  0.150E-04    4.40     108.1  T
     SCC iter.                  ...        0 min,  0.011 sec
     gradient                   ...        0 min,  0.058 sec
 * total energy  :   -65.4708882 Eh     change       -0.4028515E-03 Eh
   gradient norm :     0.0058890 Eh/α   predicted    -0.2899504E-03 ( -28.03%)
   displ. norm   :     0.4657080 α      lambda       -0.4743770E-03
   maximum displ.:     0.3291488 α      in ANC's #3, #4, #1, ...

........................................................................
.............................. CYCLE    9 ..............................
........................................................................

 iter      E             dE          RMSdq      gap      omega  full diag
   1    -66.1164164 -0.661164E+02  0.120E-01    4.41       0.0  T
   2    -66.1164210 -0.460100E-05  0.713E-02    4.41       1.0  T
   3    -66.1164119  0.911893E-05  0.180E-02    4.41       1.0  T
   4    -66.1164233 -0.114001E-04  0.297E-03    4.41       5.5  T
   5    -66.1164234 -0.424793E-07  0.158E-03    4.41      10.3  T
   6    -66.1164234 -0.123716E-07  0.636E-04    4.41      25.5  T
   7    -66.1164234 -0.366720E-08  0.144E-04    4.41     112.4  T
     SCC iter.                  ...        0 min,  0.011 sec
     gradient                   ...        0 min,  0.018 sec
 * total energy  :   -65.4712846 Eh     change       -0.3963867E-03 Eh
   gradient norm :     0.0067734 Eh/α   predicted    -0.2886322E-03 ( -27.18%)
   displ. norm   :     0.5004579 α      lambda       -0.4823652E-03
   maximum displ.:     0.3591309 α      in ANC's #3, #4, #1, ...

........................................................................
.............................. CYCLE   10 ..............................
........................................................................

 iter      E             dE          RMSdq      gap      omega  full diag
   1    -66.1174885 -0.661175E+02  0.126E-01    4.41       0.0  T
   2    -66.1174939 -0.542119E-05  0.747E-02    4.42       1.0  T
   3    -66.1174820  0.119407E-04  0.203E-02    4.42       1.0  T
   4    -66.1174968 -0.147632E-04  0.313E-03    4.42       5.2  T
   5    -66.1174968 -0.461783E-07  0.168E-03    4.42       9.6  T
   6    -66.1174968 -0.169545E-07  0.676E-04    4.42      24.0  T
   7    -66.1174968 -0.385822E-08  0.154E-04    4.42     105.2  T
     SCC iter.                  ...        0 min,  0.050 sec
     gradient                   ...        0 min,  0.018 sec
 * total energy  :   -65.4716914 Eh     change       -0.4068375E-03 Eh
   gradient norm :     0.0072827 Eh/α   predicted    -0.3015905E-03 ( -25.87%)
   displ. norm   :     0.5265425 α      lambda       -0.4837193E-03
   maximum displ.:     0.3825127 α      in ANC's #3, #1, #6, ...

........................................................................
.............................. CYCLE   11 ..............................
........................................................................

 iter      E             dE          RMSdq      gap      omega  full diag
   1    -66.1179019 -0.661179E+02  0.131E-01    4.42       0.0  T
   2    -66.1179086 -0.667306E-05  0.782E-02    4.42       1.0  T
   3    -66.1178935  0.150612E-04  0.225E-02    4.42       1.0  T
   4    -66.1179120 -0.185111E-04  0.334E-03    4.42       4.9  T
   5    -66.1179121 -0.609844E-07  0.178E-03    4.42       9.1  T
   6    -66.1179121 -0.205436E-07  0.741E-04    4.42      21.9  T
   7    -66.1179121 -0.427310E-08  0.181E-04    4.42      89.9  T
     SCC iter.                  ...        0 min,  0.011 sec
     gradient                   ...        0 min,  0.058 sec
 * total energy  :   -65.4720865 Eh     change       -0.3951256E-03 Eh
   gradient norm :     0.0070497 Eh/α   predicted    -0.3089201E-03 ( -21.82%)
   displ. norm   :     0.4890315 α      lambda       -0.4086147E-03
   maximum displ.:     0.3620554 α      in ANC's #3, #1, #6, ...

........................................................................
.............................. CYCLE   12 ..............................
........................................................................

 iter      E             dE          RMSdq      gap      omega  full diag
   1    -66.1182228 -0.661182E+02  0.123E-01    4.41       0.0  T
   2    -66.1182295 -0.669855E-05  0.734E-02    4.42       1.0  T
   3    -66.1182149  0.145322E-04  0.222E-02    4.42       1.0  T
   4    -66.1182328 -0.178525E-04  0.320E-03    4.42       5.1  T
   5    -66.1182329 -0.670350E-07  0.169E-03    4.42       9.6  T
   6    -66.1182329 -0.195036E-07  0.732E-04    4.42      22.1  T
   7    -66.1182329 -0.377038E-08  0.190E-04    4.42      85.3  T
     SCC iter.                  ...        0 min,  0.011 sec
     gradient                   ...        0 min,  0.018 sec
 * total energy  :   -65.4724023 Eh     change       -0.3157575E-03 Eh
   gradient norm :     0.0063492 Eh/α   predicted    -0.2531683E-03 ( -19.82%)
   displ. norm   :     0.4050492 α      lambda       -0.2836079E-03
   maximum displ.:     0.3053655 α      in ANC's #3, #1, #6, ...

........................................................................
.............................. CYCLE   13 ..............................
........................................................................

 iter      E             dE          RMSdq      gap      omega  full diag
   1    -66.1180418 -0.661180E+02  0.104E-01    4.40       0.0  T
   2    -66.1180470 -0.519873E-05  0.624E-02    4.41       1.0  T
   3    -66.1180366  0.104140E-04  0.186E-02    4.41       1.0  T
   4    -66.1180493 -0.127435E-04  0.272E-03    4.41       6.0  T
   5    -66.1180494 -0.621361E-07  0.139E-03    4.41      11.7  T
   6    -66.1180494 -0.103369E-07  0.636E-04    4.41      25.5  T
   7    -66.1180494 -0.281321E-08  0.176E-04    4.41      92.2  T
     SCC iter.                  ...        0 min,  0.011 sec
     gradient                   ...        0 min,  0.059 sec
 * total energy  :   -65.4726151 Eh     change       -0.2128140E-03 Eh
   gradient norm :     0.0055834 Eh/α   predicted    -0.1650713E-03 ( -22.43%)
   displ. norm   :     0.3264985 α      lambda       -0.2064204E-03
   maximum displ.:     0.2433623 α      in ANC's #3, #1, #10, ...

........................................................................
.............................. CYCLE   14 ..............................
........................................................................

 iter      E             dE          RMSdq      gap      omega  full diag
   1    -66.1200013 -0.661200E+02  0.854E-02    4.40       0.0  T
   2    -66.1200046 -0.332715E-05  0.511E-02    4.41       1.0  T
   3    -66.1199985  0.612881E-05  0.152E-02    4.41       1.1  T
   4    -66.1200061 -0.757968E-05  0.221E-03    4.41       7.3  T
   5    -66.1200061 -0.364814E-07  0.115E-03    4.41      14.1  T
   6    -66.1200061 -0.963284E-08  0.496E-04    4.41      32.7  T
   7    -66.1200061 -0.146031E-08  0.139E-04    4.41     117.0  T
     SCC iter.                  ...        0 min,  0.011 sec
     gradient                   ...        0 min,  0.019 sec
 * total energy  :   -65.4727540 Eh     change       -0.1388511E-03 Eh
   gradient norm :     0.0054809 Eh/α   predicted    -0.1142163E-03 ( -17.74%)
   displ. norm   :     0.4330630 α      lambda       -0.1930628E-03
   maximum displ.:     0.3228916 α      in ANC's #3, #1, #4, ...

........................................................................
.............................. CYCLE   15 ..............................
........................................................................

 iter      E             dE          RMSdq      gap      omega  full diag
   1    -66.1149756 -0.661150E+02  0.117E-01    4.37       0.0  T
   2    -66.1149804 -0.487785E-05  0.699E-02    4.37       1.0  T
   3    -66.1149730  0.741557E-05  0.148E-02    4.37       1.1  T
   4    -66.1149821 -0.907628E-05  0.297E-03    4.37       5.5  T
   5    -66.1149822 -0.117100E-06  0.139E-03    4.37      11.7  T
   6    -66.1149822 -0.338815E-08  0.534E-04    4.37      30.4  T
   7    -66.1149822 -0.166459E-08  0.159E-04    4.37     102.0  T
     SCC iter.                  ...        0 min,  0.050 sec
     gradient                   ...        0 min,  0.019 sec
 * total energy  :   -65.4728109 Eh     change       -0.5696248E-04 Eh
   gradient norm :     0.0075761 Eh/α   predicted    -0.1146414E-03 ( 101.26%)
   displ. norm   :     0.1050655 α      lambda       -0.1632173E-03
   maximum displ.:     0.0590413 α      in ANC's #4, #6, #1, ...

........................................................................
.............................. CYCLE   16 ..............................
........................................................................

 iter      E             dE          RMSdq      gap      omega  full diag
   1    -66.1197818 -0.661198E+02  0.319E-02    4.39       0.0  T
   2    -66.1197822 -0.443662E-06  0.193E-02    4.39       1.0  T
   3    -66.1197818  0.380816E-06  0.385E-03    4.39       4.2  T
   4    -66.1197823 -0.520354E-06  0.903E-04    4.39      18.0  T
   5    -66.1197824 -0.610250E-08  0.506E-04    4.39      32.1  T
     SCC iter.                  ...        0 min,  0.008 sec
     gradient                   ...        0 min,  0.060 sec
 * total energy  :   -65.4729087 Eh     change       -0.9775717E-04 Eh
   gradient norm :     0.0047969 Eh/α   predicted    -0.8251008E-04 ( -15.60%)
   displ. norm   :     0.1498100 α      lambda       -0.1196337E-03
   maximum displ.:     0.1016600 α      in ANC's #1, #3, #2, ...

........................................................................
.............................. CYCLE   17 ..............................
........................................................................

 iter      E             dE          RMSdq      gap      omega  full diag
   1    -66.1206770 -0.661207E+02  0.437E-02    4.39       0.0  T
   2    -66.1206776 -0.622302E-06  0.262E-02    4.39       1.0  T
   3    -66.1206772  0.348601E-06  0.442E-03    4.39       3.7  T
   4    -66.1206778 -0.553331E-06  0.119E-03    4.39      13.6  T
   5    -66.1206778 -0.951646E-08  0.612E-04    4.39      26.5  T
   6    -66.1206778 -0.238158E-08  0.177E-04    4.39      91.5  T
     SCC iter.                  ...        0 min,  0.012 sec
     gradient                   ...        0 min,  0.018 sec
 * total energy  :   -65.4729565 Eh     change       -0.4784699E-04 Eh
   gradient norm :     0.0057227 Eh/α   predicted    -0.6116599E-04 (  27.84%)
   displ. norm   :     0.1661426 α      lambda       -0.1041653E-03
   maximum displ.:     0.1198963 α      in ANC's #1, #3, #2, ...

........................................................................
.............................. CYCLE   18 ..............................
........................................................................

 iter      E             dE          RMSdq      gap      omega  full diag
   1    -66.1209780 -0.661210E+02  0.411E-02    4.38       0.0  T
   2    -66.1209784 -0.411402E-06  0.246E-02    4.38       1.0  T
   3    -66.1209785 -0.260891E-07  0.227E-03    4.38       7.1  T
   4    -66.1209786 -0.985073E-07  0.103E-03    4.38      15.8  T
   5    -66.1209786 -0.572265E-08  0.556E-04    4.38      29.2  T
   6    -66.1209786 -0.328403E-08  0.130E-04    4.38     124.4  T
     SCC iter.                  ...        0 min,  0.010 sec
     gradient                   ...        0 min,  0.060 sec
 * total energy  :   -65.4730335 Eh     change       -0.7700393E-04 Eh
   gradient norm :     0.0034409 Eh/α   predicted    -0.5352350E-04 ( -30.49%)
   displ. norm   :     0.1536019 α      lambda       -0.8642946E-04
   maximum displ.:     0.1154629 α      in ANC's #1, #2, #6, ...

........................................................................
.............................. CYCLE   19 ..............................
........................................................................

 iter      E             dE          RMSdq      gap      omega  full diag
   1    -66.1207120 -0.661207E+02  0.382E-02    4.37       0.0  T
   2    -66.1207124 -0.358621E-06  0.230E-02    4.37       1.0  T
   3    -66.1207122  0.165587E-06  0.306E-03    4.37       5.3  T
   4    -66.1207125 -0.281939E-06  0.930E-04    4.37      17.4  T
   5    -66.1207125 -0.528374E-08  0.493E-04    4.37      32.9  T
     SCC iter.                  ...        0 min,  0.008 sec
     gradient                   ...        0 min,  0.018 sec
 * total energy  :   -65.4730956 Eh     change       -0.6211052E-04 Eh
   gradient norm :     0.0035800 Eh/α   predicted    -0.4423696E-04 ( -28.78%)
   displ. norm   :     0.1303730 α      lambda       -0.5810196E-04
   maximum displ.:     0.1020609 α      in ANC's #1, #2, #6, ...

........................................................................
.............................. CYCLE   20 ..............................
........................................................................

 iter      E             dE          RMSdq      gap      omega  full diag
   1    -66.1198242 -0.661198E+02  0.310E-02    4.37       0.0  T
   2    -66.1198244 -0.176766E-06  0.186E-02    4.37       1.0  T
   3    -66.1198243  0.307259E-07  0.176E-03    4.37       9.2  T
   4    -66.1198244 -0.981185E-07  0.742E-04    4.37      21.9  T
   5    -66.1198244 -0.397401E-08  0.381E-04    4.37      42.6  T
     SCC iter.                  ...        0 min,  0.048 sec
     gradient                   ...        0 min,  0.018 sec
 * total energy  :   -65.4731423 Eh     change       -0.4662960E-04 Eh
   gradient norm :     0.0033544 Eh/α   predicted    -0.2954593E-04 ( -36.64%)
   displ. norm   :     0.1564540 α      lambda       -0.6487678E-04
   maximum displ.:     0.1220546 α      in ANC's #1, #2, #6, ...
 * RMSD in coord.:     0.8124851 α      energy gain  -0.1546636E-01 Eh

generating ANC from exact Hessian ...
Using Lindh-Hessian (1995)
 Shifting diagonal of input Hessian by    9.6593604002140499E-003
 Lowest  eigenvalues of input Hessian
    0.000000    0.000000    0.000000    0.000000    0.000000    0.000000
    0.010000    0.010520    0.010781    0.012030    0.013245    0.014073
    0.015011    0.015373    0.016456    0.018985    0.019974    0.020331
 Highest eigenvalues
    1.620107    1.636089    1.788469    1.899668    2.018028    2.083460


........................................................................
.............................. CYCLE   21 ..............................
........................................................................

 iter      E             dE          RMSdq      gap      omega  full diag
   1    -66.1195874 -0.661196E+02  0.375E-02    4.37       0.0  T
   2    -66.1195877 -0.251958E-06  0.224E-02    4.37       1.0  T
   3    -66.1195876  0.791774E-07  0.244E-03    4.37       6.6  T
   4    -66.1195877 -0.169576E-06  0.881E-04    4.37      18.4  T
   5    -66.1195878 -0.535418E-08  0.424E-04    4.37      38.2  T
     SCC iter.                  ...        0 min,  0.008 sec
     gradient                   ...        0 min,  0.049 sec
 * total energy  :   -65.4731953 Eh     change       -0.5304423E-04 Eh
   gradient norm :     0.0028156 Eh/α   predicted     0.0000000E+00 (-100.00%)
   displ. norm   :     0.0393406 α      lambda       -0.3290337E-04
   maximum displ.:     0.0284630 α      in ANC's #1, #3, #9, ...

........................................................................
.............................. CYCLE   22 ..............................
........................................................................

 iter      E             dE          RMSdq      gap      omega  full diag
   1    -66.1201606 -0.661202E+02  0.140E-02    4.38       0.0  T
   2    -66.1201607 -0.115890E-06  0.833E-03    4.38       1.9  T
   3    -66.1201605  0.171621E-06  0.291E-03    4.38       5.6  T
   4    -66.1201607 -0.219285E-06  0.382E-04    4.38      42.5  T
   5    -66.1201607 -0.136669E-08  0.199E-04    4.38      81.4  T
     SCC iter.                  ...        0 min,  0.008 sec
     gradient                   ...        0 min,  0.018 sec
 * total energy  :   -65.4732232 Eh     change       -0.2789738E-04 Eh
   gradient norm :     0.0012439 Eh/α   predicted    -0.1685800E-04 ( -39.57%)
   displ. norm   :     0.1473672 α      lambda       -0.5197171E-04
   maximum displ.:     0.1025555 α      in ANC's #1, #3, #4, ...

........................................................................
.............................. CYCLE   23 ..............................
........................................................................

 iter      E             dE          RMSdq      gap      omega  full diag
   1    -66.1208543 -0.661209E+02  0.491E-02    4.39       0.0  T
   2    -66.1208553 -0.991854E-06  0.292E-02    4.39       1.0  T
   3    -66.1208535  0.185362E-05  0.889E-03    4.39       1.8  T
   4    -66.1208558 -0.229933E-05  0.116E-03    4.39      13.9  T
   5    -66.1208558 -0.984272E-08  0.625E-04    4.39      25.9  T
   6    -66.1208558 -0.200441E-08  0.271E-04    4.39      59.9  T
     SCC iter.                  ...        0 min,  0.053 sec
     gradient                   ...        0 min,  0.018 sec
 * total energy  :   -65.4732684 Eh     change       -0.4522951E-04 Eh
   gradient norm :     0.0026514 Eh/α   predicted    -0.2623704E-04 ( -41.99%)
   displ. norm   :     0.0598592 α      lambda       -0.2101110E-04
   maximum displ.:     0.0431678 α      in ANC's #1, #3, #4, ...

........................................................................
.............................. CYCLE   24 ..............................
........................................................................

 iter      E             dE          RMSdq      gap      omega  full diag
   1    -66.1207469 -0.661207E+02  0.173E-02    4.39       0.0  T
   2    -66.1207470 -0.479682E-07  0.103E-02    4.39       1.6  T
   3    -66.1207469  0.975427E-07  0.189E-03    4.39       8.6  T
   4    -66.1207470 -0.122972E-06  0.336E-04    4.39      48.3  T
   5    -66.1207470 -0.395758E-09  0.139E-04    4.39     116.7  T
     SCC iter.                  ...        0 min,  0.008 sec
     gradient                   ...        0 min,  0.063 sec
 * total energy  :   -65.4732881 Eh     change       -0.1968894E-04 Eh
   gradient norm :     0.0022465 Eh/α   predicted    -0.1054574E-04 ( -46.44%)
   displ. norm   :     0.1184360 α      lambda       -0.4513270E-04
   maximum displ.:     0.0821859 α      in ANC's #1, #3, #4, ...

........................................................................
.............................. CYCLE   25 ..............................
........................................................................

 iter      E             dE          RMSdq      gap      omega  full diag
   1    -66.1204062 -0.661204E+02  0.328E-02    4.38       0.0  T
   2    -66.1204064 -0.147950E-06  0.195E-02    4.39       1.0  T
   3    -66.1204062  0.201354E-06  0.278E-03    4.39       5.8  T
   4    -66.1204064 -0.275029E-06  0.667E-04    4.39      24.3  T
   5    -66.1204064 -0.197974E-08  0.264E-04    4.39      61.6  T
     SCC iter.                  ...        0 min,  0.008 sec
     gradient                   ...        0 min,  0.018 sec
 * total energy  :   -65.4733260 Eh     change       -0.3789056E-04 Eh
   gradient norm :     0.0009673 Eh/α   predicted    -0.2288506E-04 ( -39.60%)
   displ. norm   :     0.2310972 α      lambda       -0.4186513E-04
   maximum displ.:     0.1651976 α      in ANC's #1, #3, #4, ...

........................................................................
.............................. CYCLE   26 ..............................
........................................................................

 iter      E             dE          RMSdq      gap      omega  full diag
   1    -66.1196731 -0.661197E+02  0.615E-02    4.38       0.0  T
   2    -66.1196737 -0.557196E-06  0.365E-02    4.38       1.0  T
   3    -66.1196729  0.742297E-06  0.552E-03    4.38       2.9  T
   4    -66.1196739 -0.101667E-05  0.130E-03    4.38      12.4  T
   5    -66.1196740 -0.732865E-08  0.503E-04    4.38      32.3  T
   6    -66.1196740 -0.868070E-09  0.190E-04    4.38      85.6  T
     SCC iter.                  ...        0 min,  0.061 sec
     gradient                   ...        0 min,  0.018 sec
 * total energy  :   -65.4733687 Eh     change       -0.4266441E-04 Eh
   gradient norm :     0.0020975 Eh/α   predicted    -0.2143048E-04 ( -49.77%)
   displ. norm   :     0.0689998 α      lambda       -0.1658335E-04
   maximum displ.:     0.0556545 α      in ANC's #1, #3, #4, ...

........................................................................
.............................. CYCLE   27 ..............................
........................................................................

 iter      E             dE          RMSdq      gap      omega  full diag
   1    -66.1200012 -0.661200E+02  0.164E-02    4.38       0.0  T
   2    -66.1200012 -0.463104E-07  0.973E-03    4.38       1.7  T
   3    -66.1200011  0.777434E-07  0.188E-03    4.38       8.6  T
   4    -66.1200012 -0.101862E-06  0.360E-04    4.38      45.0  T
   5    -66.1200012 -0.290669E-09  0.161E-04    4.38     100.5  T
     SCC iter.                  ...        0 min,  0.008 sec
     gradient                   ...        0 min,  0.018 sec
 * total energy  :   -65.4733841 Eh     change       -0.1541994E-04 Eh
   gradient norm :     0.0017304 Eh/α   predicted    -0.8331543E-05 ( -45.97%)
   displ. norm   :     0.0915733 α      lambda       -0.2051141E-04
   maximum displ.:     0.0774462 α      in ANC's #1, #3, #8, ...

........................................................................
.............................. CYCLE   28 ..............................
........................................................................

 iter      E             dE          RMSdq      gap      omega  full diag
   1    -66.1209551 -0.661210E+02  0.196E-02    4.39       0.0  T
   2    -66.1209552 -0.918712E-07  0.116E-02    4.39       1.4  T
   3    -66.1209551  0.128450E-06  0.253E-03    4.39       6.4  T
   4    -66.1209552 -0.170104E-06  0.489E-04    4.39      33.2  T
   5    -66.1209552 -0.758476E-09  0.259E-04    4.39      62.8  T
     SCC iter.                  ...        0 min,  0.008 sec
     gradient                   ...        0 min,  0.018 sec
 * total energy  :   -65.4734096 Eh     change       -0.2551376E-04 Eh
   gradient norm :     0.0007663 Eh/α   predicted    -0.1029424E-04 ( -59.65%)
   displ. norm   :     0.0979537 α      lambda       -0.1661816E-04
   maximum displ.:     0.0820698 α      in ANC's #1, #3, #5, ...

........................................................................
.............................. CYCLE   29 ..............................
........................................................................

 iter      E             dE          RMSdq      gap      omega  full diag
   1    -66.1211355 -0.661211E+02  0.207E-02    4.39       0.0  T
   2    -66.1211355 -0.729708E-07  0.123E-02    4.39       1.3  T
   3    -66.1211354  0.826747E-07  0.201E-03    4.39       8.1  T
   4    -66.1211356 -0.119504E-06  0.503E-04    4.39      32.2  T
   5    -66.1211356 -0.530662E-09  0.206E-04    4.39      78.6  T
     SCC iter.                  ...        0 min,  0.008 sec
     gradient                   ...        0 min,  0.058 sec
 * total energy  :   -65.4734317 Eh     change       -0.2209826E-04 Eh
   gradient norm :     0.0010352 Eh/α   predicted    -0.8345699E-05 ( -62.23%)
   displ. norm   :     0.0856568 α      lambda       -0.1330145E-04
   maximum displ.:     0.0712297 α      in ANC's #1, #3, #5, ...

........................................................................
.............................. CYCLE   30 ..............................
........................................................................

 iter      E             dE          RMSdq      gap      omega  full diag
   1    -66.1211155 -0.661211E+02  0.183E-02    4.39       0.0  T
   2    -66.1211156 -0.451632E-07  0.109E-02    4.39       1.5  T
   3    -66.1211155  0.302514E-07  0.123E-03    4.39      13.2  T
   4    -66.1211156 -0.526955E-07  0.420E-04    4.39      38.6  T
   5    -66.1211156 -0.726928E-09  0.135E-04    4.39     119.9  T
     SCC iter.                  ...        0 min,  0.008 sec
     gradient                   ...        0 min,  0.019 sec
 * total energy  :   -65.4734501 Eh     change       -0.1836909E-04 Eh
   gradient norm :     0.0010215 Eh/α   predicted    -0.6673869E-05 ( -63.67%)
   displ. norm   :     0.0802181 α      lambda       -0.1196454E-04
   maximum displ.:     0.0665811 α      in ANC's #1, #3, #4, ...

........................................................................
.............................. CYCLE   31 ..............................
........................................................................

 iter      E             dE          RMSdq      gap      omega  full diag
   1    -66.1209315 -0.661209E+02  0.183E-02    4.39       0.0  T
   2    -66.1209316 -0.438891E-07  0.109E-02    4.39       1.5  T
   3    -66.1209315  0.343672E-07  0.118E-03    4.38      13.8  T
   4    -66.1209316 -0.556551E-07  0.409E-04    4.39      39.6  T
   5    -66.1209316 -0.947779E-09  0.154E-04    4.39     105.2  T
     SCC iter.                  ...        0 min,  0.008 sec
     gradient                   ...        0 min,  0.058 sec
 * total energy  :   -65.4734667 Eh     change       -0.1658013E-04 Eh
   gradient norm :     0.0006460 Eh/α   predicted    -0.6000599E-05 ( -63.81%)
   displ. norm   :     0.0791920 α      lambda       -0.1095239E-04
   maximum displ.:     0.0660398 α      in ANC's #1, #3, #4, ...

........................................................................
.............................. CYCLE   32 ..............................
........................................................................

 iter      E             dE          RMSdq      gap      omega  full diag
   1    -66.1207709 -0.661208E+02  0.194E-02    4.38       0.0  T
   2    -66.1207709 -0.459820E-07  0.115E-02    4.38       1.4  T
   3    -66.1207709  0.442626E-07  0.131E-03    4.38      12.4  T
   4    -66.1207710 -0.673409E-07  0.413E-04    4.38      39.3  T
   5    -66.1207710 -0.720377E-09  0.158E-04    4.38     102.4  T
     SCC iter.                  ...        0 min,  0.008 sec
     gradient                   ...        0 min,  0.018 sec
 * total energy  :   -65.4734818 Eh     change       -0.1514587E-04 Eh
   gradient norm :     0.0003267 Eh/α   predicted    -0.5493843E-05 ( -63.73%)
   displ. norm   :     0.0768643 α      lambda       -0.9676955E-05
   maximum displ.:     0.0644292 α      in ANC's #1, #3, #2, ...

........................................................................
.............................. CYCLE   33 ..............................
........................................................................

 iter      E             dE          RMSdq      gap      omega  full diag
   1    -66.1206503 -0.661207E+02  0.198E-02    4.38       0.0  T
   2    -66.1206503 -0.549481E-07  0.118E-02    4.38       1.4  T
   3    -66.1206503  0.737710E-07  0.160E-03    4.38      10.2  T
   4    -66.1206504 -0.998380E-07  0.407E-04    4.38      39.9  T
   5    -66.1206504 -0.807916E-09  0.187E-04    4.38      87.0  T
     SCC iter.                  ...        0 min,  0.008 sec
     gradient                   ...        0 min,  0.057 sec
 * total energy  :   -65.4734952 Eh     change       -0.1340378E-04 Eh
   gradient norm :     0.0003952 Eh/α   predicted    -0.4853956E-05 ( -63.79%)
   displ. norm   :     0.0728585 α      lambda       -0.8432925E-05
   maximum displ.:     0.0614367 α      in ANC's #1, #3, #2, ...

........................................................................
.............................. CYCLE   34 ..............................
........................................................................

 iter      E             dE          RMSdq      gap      omega  full diag
   1    -66.1206318 -0.661206E+02  0.194E-02    4.38       0.0  T
   2    -66.1206318 -0.550662E-07  0.115E-02    4.38       1.4  T
   3    -66.1206317  0.879785E-07  0.178E-03    4.38       9.1  T
   4    -66.1206319 -0.114975E-06  0.379E-04    4.38      42.8  T
   5    -66.1206319 -0.500776E-09  0.178E-04    4.38      90.9  T
     SCC iter.                  ...        0 min,  0.008 sec
     gradient                   ...        0 min,  0.019 sec
 * total energy  :   -65.4735070 Eh     change       -0.1174755E-04 Eh
   gradient norm :     0.0004983 Eh/α   predicted    -0.4229361E-05 ( -64.00%)
   displ. norm   :     0.0680267 α      lambda       -0.7443390E-05
   maximum displ.:     0.0575491 α      in ANC's #1, #2, #3, ...

........................................................................
.............................. CYCLE   35 ..............................
........................................................................

 iter      E             dE          RMSdq      gap      omega  full diag
   1    -66.1206444 -0.661206E+02  0.182E-02    4.38       0.0  T
   2    -66.1206445 -0.590385E-07  0.108E-02    4.38       1.5  T
   3    -66.1206444  0.106549E-06  0.193E-03    4.38       8.4  T
   4    -66.1206445 -0.133937E-06  0.348E-04    4.38      46.6  T
   5    -66.1206445 -0.603649E-09  0.173E-04    4.38      94.0  T
     SCC iter.                  ...        0 min,  0.008 sec
     gradient                   ...        0 min,  0.052 sec
 * total energy  :   -65.4735174 Eh     change       -0.1037929E-04 Eh
   gradient norm :     0.0005116 Eh/α   predicted    -0.3729836E-05 ( -64.06%)
   displ. norm   :     0.0655567 α      lambda       -0.6860991E-05
   maximum displ.:     0.0554197 α      in ANC's #1, #2, #3, ...

........................................................................
.............................. CYCLE   36 ..............................
........................................................................

 iter      E             dE          RMSdq      gap      omega  full diag
   1    -66.1207245 -0.661207E+02  0.172E-02    4.38       0.0  T
   2    -66.1207246 -0.594273E-07  0.102E-02    4.38       1.6  T
   3    -66.1207244  0.108378E-06  0.202E-03    4.38       8.0  T
   4    -66.1207246 -0.136446E-06  0.343E-04    4.38      47.3  T
   5    -66.1207246 -0.504727E-09  0.170E-04    4.38      95.6  T
     SCC iter.                  ...        0 min,  0.008 sec
     gradient                   ...        0 min,  0.019 sec
 * total energy  :   -65.4735271 Eh     change       -0.9702672E-05 Eh
   gradient norm :     0.0004053 Eh/α   predicted    -0.3437800E-05 ( -64.57%)
   displ. norm   :     0.0649190 α      lambda       -0.6606357E-05
   maximum displ.:     0.0546274 α      in ANC's #1, #2, #3, ...

........................................................................
.............................. CYCLE   37 ..............................
........................................................................

 iter      E             dE          RMSdq      gap      omega  full diag
   1    -66.1208124 -0.661208E+02  0.164E-02    4.38       0.0  T
   2    -66.1208125 -0.603281E-07  0.970E-03    4.38       1.7  T
   3    -66.1208124  0.111270E-06  0.204E-03    4.38       7.9  T
   4    -66.1208125 -0.139888E-06  0.346E-04    4.38      46.9  T
   5    -66.1208125 -0.528004E-09  0.169E-04    4.38      96.2  T
     SCC iter.                  ...        0 min,  0.008 sec
     gradient                   ...        0 min,  0.046 sec
 * total energy  :   -65.4735365 Eh     change       -0.9414041E-05 Eh
   gradient norm :     0.0003198 Eh/α   predicted    -0.3312837E-05 ( -64.81%)
   displ. norm   :     0.0686003 α      lambda       -0.6775186E-05
   maximum displ.:     0.0570593 α      in ANC's #1, #2, #4, ...

........................................................................
.............................. CYCLE   38 ..............................
........................................................................

 iter      E             dE          RMSdq      gap      omega  full diag
   1    -66.1208908 -0.661209E+02  0.166E-02    4.38       0.0  T
   2    -66.1208909 -0.662109E-07  0.982E-03    4.38       1.7  T
   3    -66.1208908  0.107990E-06  0.209E-03    4.38       7.8  T
   4    -66.1208909 -0.139056E-06  0.388E-04    4.38      41.8  T
   5    -66.1208909 -0.609319E-09  0.182E-04    4.38      89.3  T
     SCC iter.                  ...        0 min,  0.008 sec
     gradient                   ...        0 min,  0.019 sec
 * total energy  :   -65.4735461 Eh     change       -0.9611852E-05 Eh
   gradient norm :     0.0002521 Eh/α   predicted    -0.3396280E-05 ( -64.67%)
   displ. norm   :     0.0730870 α      lambda       -0.6855435E-05
   maximum displ.:     0.0604011 α      in ANC's #1, #2, #4, ...

........................................................................
.............................. CYCLE   39 ..............................
........................................................................

 iter      E             dE          RMSdq      gap      omega  full diag
   1    -66.1209591 -0.661210E+02  0.172E-02    4.38       0.0  T
   2    -66.1209591 -0.738841E-07  0.102E-02    4.38       1.6  T
   3    -66.1209590  0.118469E-06  0.215E-03    4.38       7.5  T
   4    -66.1209592 -0.153289E-06  0.423E-04    4.38      38.4  T
   5    -66.1209592 -0.795254E-09  0.197E-04    4.38      82.5  T
     SCC iter.                  ...        0 min,  0.051 sec
     gradient                   ...        0 min,  0.019 sec
 * total energy  :   -65.4735557 Eh     change       -0.9599526E-05 Eh
   gradient norm :     0.0002326 Eh/α   predicted    -0.3437816E-05 ( -64.19%)
   displ. norm   :     0.0719114 α      lambda       -0.6193404E-05
   maximum displ.:     0.0599467 α      in ANC's #1, #2, #4, ...

........................................................................
.............................. CYCLE   40 ..............................
........................................................................

 iter      E             dE          RMSdq      gap      omega  full diag
   1    -66.1210015 -0.661210E+02  0.162E-02    4.38       0.0  T
   2    -66.1210016 -0.614835E-07  0.961E-03    4.38       1.7  T
   3    -66.1210015  0.852035E-07  0.192E-03    4.38       8.5  T
   4    -66.1210016 -0.114851E-06  0.416E-04    4.38      39.0  T
   5    -66.1210016 -0.629356E-09  0.183E-04    4.38      88.7  T
     SCC iter.                  ...        0 min,  0.008 sec
     gradient                   ...        0 min,  0.019 sec
 * total energy  :   -65.4735643 Eh     change       -0.8617344E-05 Eh
   gradient norm :     0.0002026 Eh/α   predicted    -0.3105192E-05 ( -63.97%)
   displ. norm   :     0.0618283 α      lambda       -0.4794206E-05
   maximum displ.:     0.0525852 α      in ANC's #1, #2, #4, ...

........................................................................
.............................. CYCLE   41 ..............................
........................................................................

 iter      E             dE          RMSdq      gap      omega  full diag
   1    -66.1210343 -0.661210E+02  0.138E-02    4.38       0.0  T
   2    -66.1210344 -0.451128E-07  0.816E-03    4.38       2.0  T
   3    -66.1210343  0.588615E-07  0.155E-03    4.38      10.4  T
   4    -66.1210344 -0.793993E-07  0.354E-04    4.38      45.8  T
   5    -66.1210344 -0.599229E-09  0.161E-04    4.38     100.9  T
     SCC iter.                  ...        0 min,  0.008 sec
     gradient                   ...        0 min,  0.018 sec
 * total energy  :   -65.4735710 Eh     change       -0.6692846E-05 Eh
   gradient norm :     0.0001817 Eh/α   predicted    -0.2401990E-05 ( -64.11%)
   displ. norm   :     0.0467070 α      lambda       -0.3376543E-05
   maximum displ.:     0.0413533 α      in ANC's #1, #2, #4, ...

........................................................................
.............................. CYCLE   42 ..............................
........................................................................

 iter      E             dE          RMSdq      gap      omega  full diag
   1    -66.1210706 -0.661211E+02  0.100E-02    4.38       0.0  T
   2    -66.1210706 -0.205446E-07  0.594E-03    4.38       2.7  T
   3    -66.1210705  0.265743E-07  0.106E-03    4.38      15.3  T
   4    -66.1210706 -0.367705E-07  0.253E-04    4.38      64.2  T
   5    -66.1210706 -0.219188E-09  0.108E-04    4.38     150.5  T
     SCC iter.                  ...        0 min,  0.008 sec
     gradient                   ...        0 min,  0.019 sec
 * total energy  :   -65.4735758 Eh     change       -0.4786604E-05 Eh
   gradient norm :     0.0001785 Eh/α   predicted    -0.1691974E-05 ( -64.65%)
   displ. norm   :     0.0332474 α      lambda       -0.2361082E-05
   maximum displ.:     0.0307855 α      in ANC's #1, #2, #4, ...

   *** GEOMETRY OPTIMIZATION CONVERGED AFTER 42 ITERATIONS ***

------------------------------------------------------------------------
 total energy gain   :        -0.0158999 Eh       -9.9773 kcal/mol
 total RMSD          :         0.9803130 a0        0.5188 Å
 total power (kW/mol):        -0.9939303 (step)  -16.6406 (real)
------------------------------------------------------------------------

 ANCopt (total)                0 d,  0 h,  0 min,  2.509 sec
 optimizer setup                ...        0 min,  0.000 sec (  0.003%)
 model hessian                  ...        0 min,  0.073 sec (  2.897%)
 ANC generation                 ...        0 min,  0.011 sec (  0.454%)
 coordinate transformation      ...        0 min,  0.000 sec (  0.009%)
 single point calculation       ...        0 min,  2.414 sec ( 96.230%)
 optimization log               ...        0 min,  0.006 sec (  0.243%)
 hessian update                 ...        0 min,  0.000 sec (  0.018%)
 rational function              ...        0 min,  0.002 sec (  0.094%)

================
 final structure:
================
38
 xtb: 6.7.1 (edcfbbe)
O           -4.13125936091189        2.14340075453860       -0.68337157757089
C           -2.99715696257682        1.87125535662014        0.11318775016675
C           -2.18479560361621        0.74506196932110       -0.53353255992845
O           -1.02139994988537        0.61129544486731        0.25001301150889
C           -0.11718128436897       -0.36019828673834       -0.23279047705949
C           -0.76847347069515       -1.74934006188293       -0.27825341645883
C           -2.05224276988241       -1.69037014922088       -1.10583851717033
C           -2.97029478501620       -0.57503832333340       -0.58944651989533
O           -4.07372645147196       -0.51347637595646       -1.45739310900318
O           -2.67663143032199       -2.94749360958782       -1.03186352616065
O            0.16642128193164       -2.63281466183803       -0.83507066293788
O            0.95924063133631       -0.45856556176385        0.62296889023289
C            1.98762300429166        0.45697933354809        0.51453723757525
C            1.81246365339284        1.75680312928453        0.06878670315227
C            2.89738983147628        2.61652624717172        0.01558219172031
C            4.14970781135081        2.18166206258611        0.40678708598687
C            4.32056202224395        0.87877116797828        0.84627220083300
C            3.25166525024013        0.00039352248126        0.90481585423656
C            3.41312054768279       -1.43605383755720        1.34428155393642
O            3.12257456910011       -2.36230146305440        0.32664265980409
H           -4.60667862094570        2.89153269693668       -0.30726775193231
H           -3.29036297544730        1.55681038113826        1.12281018758363
H           -2.35100321432020        2.75256094850653        0.19797067669771
H           -1.92371921583063        1.03396094584320       -1.56617470016913
H            0.21176224066342       -0.08418312583345       -1.25523964362220
H           -1.01720075829140       -2.04476863331204        0.75220932915491
H           -1.79096007408696       -1.46393578008762       -2.15358382012934
H           -3.29775574830781       -0.83443505496280        0.43193989657737
H           -4.47416401949296        0.36433442934152       -1.37245135796762
H           -3.56125420894062       -2.84629736701249       -1.40463338995292
H           -0.28396907725852       -3.47503129296486       -0.97925330251284
H            0.82904872177989        2.09724011773841       -0.21493912099214
H            2.75635811783337        3.62982247667399       -0.33004975858224
H            4.99412092146037        2.85299390933159        0.36652274958653
H            5.30036068353837        0.53371312048125        1.14146001341813
H            4.45218928915052       -1.62267037431410        1.62719348844192
H            2.77121647544590       -1.61305698691307        2.22094563392036
H            2.19450492874864       -2.26488706805620        0.06772609750912

 Bond Distances (Angstroems)
 ---------------------------
O1-C2=1.4124         O1-H21=0.9629        C2-O1=1.4124         C2-C3=1.5318         C2-H22=1.0974        C2-H23=1.0961        
C3-C2=1.5318         C3-O4=1.4090         C3-C8=1.5371         C3-H24=1.1036        O4-C3=1.4090         O4-C5=1.4123         
C5-O4=1.4123         C5-C6=1.5349         C5-O12=1.3787        C5-H25=1.1090        C6-C5=1.5349         C6-C7=1.5285         
C6-O11=1.4016        C6-H26=1.1005        C7-C6=1.5285         C7-C8=1.5341         C7-O10=1.4056        C7-H27=1.1033        
C8-C3=1.5371         C8-C7=1.5341         C8-O9=1.4052         C8-H28=1.1035        O9-C8=1.4052         O9-H29=0.9686        
O10-C7=1.4056        O10-H30=0.9653       O11-C6=1.4016        O11-H31=0.9659       O12-C5=1.3787        O12-C13=1.3811       
C13-O12=1.3811       C13-C14=1.3852       C13-C18=1.3995       C14-C13=1.3852       C14-C15=1.3853       C14-H32=1.0787       
C15-C14=1.3853       C15-C16=1.3822       C15-H33=1.0799       C16-C15=1.3822       C16-C17=1.3856       C16-H34=1.0795       
C17-C16=1.3856       C17-C18=1.3847       C17-H35=1.0799       C18-C13=1.3995       C18-C17=1.3847       C18-C19=1.5108       
C19-C18=1.5108       C19-O20=1.4064       C19-H36=1.0929       C19-H37=1.1009       O20-C19=1.4064       O20-H38=0.9684       
H21-O1=0.9629        H22-C2=1.0974        H23-C2=1.0961        H24-C3=1.1036        H25-C5=1.1090        H26-C6=1.1005        
H27-C7=1.1033        H28-C8=1.1035        H29-O9=0.9686        H30-O10=0.9653       H31-O11=0.9659       H32-C14=1.0787       
H33-C15=1.0799       H34-C16=1.0795       H35-C17=1.0799       H36-C19=1.0929       H37-C19=1.1009       H38-O20=0.9684       
 C  H  Rav=1.0942 sigma=0.0105  Rmin=1.0787  Rmax=1.1090    13
 C  C  Rav=1.4583 sigma=0.0716  Rmin=1.3822  Rmax=1.5371    12
 O  H  Rav=0.9662 sigma=0.0021  Rmin=0.9629  Rmax=0.9686     5
 O  C  Rav=1.4014 sigma=0.0119  Rmin=1.3787  Rmax=1.4124     9

 selected bond angles (degree)
 --------------------
H21-O1-C2=109.02               C3-C2-O1=109.23                H22-C2-O1=111.07               H22-C2-C3=108.63               
H23-C2-O1=111.23               H23-C2-C3=108.13               H23-C2-H22=108.47              O4-C3-C2=105.84                
C8-C3-C2=112.07                C8-C3-O4=111.14                H24-C3-C2=109.15               H24-C3-O4=110.48               
H24-C3-C8=108.16               C5-O4-C3=113.82                C6-C5-O4=111.16                O12-C5-O4=109.68               
O12-C5-C6=106.57               H25-C5-O4=109.51               H25-C5-C6=108.89               H25-C5-O12=111.01              
C7-C6-C5=109.72                O11-C6-C5=107.41               O11-C6-C7=111.68               H26-C6-C5=108.13               
H26-C6-C7=109.12               H26-C6-O11=110.70              C8-C7-C6=110.39                O10-C7-C6=108.06               
O10-C7-C8=111.51               H27-C7-C6=108.86               H27-C7-C8=108.19               H27-C7-O10=109.80              
C7-C8-C3=109.32                O9-C8-C3=112.71                O9-C8-C7=107.09                H28-C8-C3=108.65               
H28-C8-C7=108.56               H28-C8-O9=110.42               H29-O9-C8=108.07               H30-O10-C7=107.04              

 selected dihedral angles (degree)
 ---------------------------------
C3-C2-O1-H21=183.87           H22-C2-O1-H21= 64.06          H23-C2-O1-H21=303.15          O4-C3-C2-O1=175.11            
O4-C3-C2-H22=296.40           O4-C3-C2-H23= 53.93           C8-C3-C2-O1=296.41            C8-C3-C2-H22= 57.70           
C8-C3-C2-H23=175.23           H24-C3-C2-O1= 56.19           H24-C3-C2-H22=177.49          H24-C3-C2-H23=295.02          
C5-O4-C3-C2=182.28            C5-O4-C3-C8= 60.38            C5-O4-C3-H24=300.31           C6-C5-O4-C3=300.01            
O12-C5-O4-C3=182.42           H25-C5-O4-C3= 60.37           C7-C6-C5-O4= 55.20            C7-C6-C5-O12=174.67           
C7-C6-C5-H25=294.47           O11-C6-C5-O4=176.78           O11-C6-C5-O12=296.25          O11-C6-C5-H25= 56.05          
H26-C6-C5-O4=296.29           H26-C6-C5-O12= 55.75          H26-C6-C5-H25=175.56          C8-C7-C6-C5=307.05            
C8-C7-C6-O11=188.06           C8-C7-C6-H26= 65.35           O10-C7-C6-C5=184.86           O10-C7-C6-O11= 65.88          
O10-C7-C6-H26=303.16          H27-C7-C6-C5= 65.66           H27-C7-C6-O11=306.67          H27-C7-C6-H26=183.96          
C7-C8-C3-C2=186.04            C7-C8-C3-O4=304.24            C7-C8-C3-H24= 65.68           O9-C8-C3-C2= 67.08            
O9-C8-C3-O4=185.27            O9-C8-C3-H24=306.71           H28-C8-C3-C2=304.36           H28-C8-C3-O4= 62.55           
H28-C8-C3-H24=183.99          C3-C8-C7-C6= 53.11            C3-C8-C7-O10=173.25           C3-C8-C7-H27=294.09           
O9-C8-C7-C6=175.51            O9-C8-C7-O10=295.65           O9-C8-C7-H27= 56.49           H28-C8-C7-C6=294.74           
H28-C8-C7-O10= 54.87          H28-C8-C7-H27=175.72          H29-O9-C8-C3=321.89           H29-O9-C8-C7=201.63           
H29-O9-C8-H28= 83.62          H30-O10-C7-C6=168.90          H30-O10-C7-C8= 47.40          H30-O10-C7-H27=287.50         
           -------------------------------------------------
          |                Final Singlepoint                |
           -------------------------------------------------

          ...................................................
          :                      SETUP                      :
          :.................................................:
          :  # basis functions                  98          :
          :  # atomic orbitals                  98          :
          :  # shells                           58          :
          :  # electrons                       112          :
          :  max. iterations                   250          :
          :  Hamiltonian                  GFN2-xTB          :
          :  restarted?                      false          :
          :  GBSA solvation                  false          :
          :  PC potential                    false          :
          :  electronic temp.          300.0000000     K    :
          :  accuracy                    1.0000000          :
          :  -> integral cutoff          0.2500000E+02      :
          :  -> integral neglect         0.1000000E-07      :
          :  -> SCF convergence          0.1000000E-05 Eh   :
          :  -> wf. convergence          0.1000000E-03 e    :
          :  Broyden damping             0.4000000          :
          :  net charge                          0          :
          :  unpaired electrons                  0          :
          ...................................................

 iter      E             dE          RMSdq      gap      omega  full diag
   1    -66.1210706 -0.661211E+02  0.409E-05    4.38       0.0  T
   2    -66.1210706 -0.117524E-10  0.249E-05    4.38     651.4  T
   3    -66.1210706 -0.267164E-11  0.162E-05    4.38    1001.7  T

   *** convergence criteria satisfied after 3 iterations ***

         #    Occupation            Energy/Eh            Energy/eV
      -------------------------------------------------------------
         1        2.0000           -0.7370622             -20.0565
       ...           ...                  ...                  ...
        50        2.0000           -0.4269739             -11.6186
        51        2.0000           -0.4230925             -11.5129
        52        2.0000           -0.4226385             -11.5006
        53        2.0000           -0.4178069             -11.3691
        54        2.0000           -0.4033561             -10.9759
        55        2.0000           -0.3915551             -10.6548
        56        2.0000           -0.3870885             -10.5332 (HOMO)
        57                         -0.2261590              -6.1541 (LUMO)
        58                         -0.2205506              -6.0015
        59                         -0.0967937              -2.6339
        60                         -0.0501502              -1.3647
        61                         -0.0081744              -0.2224
       ...                                ...                  ...
        98                          0.6611150              17.9899
      -------------------------------------------------------------
                  HL-Gap            0.1609295 Eh            4.3791 eV
             Fermi-level           -0.3066238 Eh           -8.3437 eV

 SCC (total)                   0 d,  0 h,  0 min,  0.066 sec
 SCC setup                      ...        0 min,  0.000 sec (  0.366%)
 Dispersion                     ...        0 min,  0.000 sec (  0.353%)
 classical contributions        ...        0 min,  0.000 sec (  0.171%)
 integral evaluation            ...        0 min,  0.042 sec ( 63.476%)
 iterations                     ...        0 min,  0.005 sec (  7.517%)
 molecular gradient             ...        0 min,  0.019 sec ( 27.919%)
 printout                       ...        0 min,  0.000 sec (  0.188%)

         :::::::::::::::::::::::::::::::::::::::::::::::::::::
         ::                     SUMMARY                     ::
         :::::::::::::::::::::::::::::::::::::::::::::::::::::
         :: total energy             -65.473575776021 Eh    ::
         :: gradient norm              0.000178443411 Eh/a0 ::
         :: HOMO-LUMO gap              4.379115611836 eV    ::
         ::.................................................::
         :: SCC energy               -66.120907912536 Eh    ::
         :: -> isotropic ES            0.151817267351 Eh    ::
         :: -> anisotropic ES         -0.006849019835 Eh    ::
         :: -> anisotropic XC         -0.002923715703 Eh    ::
         :: -> dispersion             -0.036849037334 Eh    ::
         :: repulsion energy           0.647332136515 Eh    ::
         :: add. restraining           0.000000000000 Eh    ::
         :: total charge               0.000000000000 e     ::
         :::::::::::::::::::::::::::::::::::::::::::::::::::::

           -------------------------------------------------
          |                Property Printout                |
           -------------------------------------------------

    * Orbital Energies and Occupations

         #    Occupation            Energy/Eh            Energy/eV
      -------------------------------------------------------------
         1        2.0000           -0.7370622             -20.0565
       ...           ...                  ...                  ...
        44        2.0000           -0.4648252             -12.6485
        45        2.0000           -0.4572323             -12.4419
        46        2.0000           -0.4499281             -12.2432
        47        2.0000           -0.4474625             -12.1761
        48        2.0000           -0.4453143             -12.1176
        49        2.0000           -0.4378576             -11.9147
        50        2.0000           -0.4269739             -11.6186
        51        2.0000           -0.4230925             -11.5129
        52        2.0000           -0.4226385             -11.5006
        53        2.0000           -0.4178069             -11.3691
        54        2.0000           -0.4033561             -10.9759
        55        2.0000           -0.3915551             -10.6548
        56        2.0000           -0.3870885             -10.5332 (HOMO)
        57                         -0.2261590              -6.1541 (LUMO)
        58                         -0.2205506              -6.0015
        59                         -0.0967937              -2.6339
        60                         -0.0501502              -1.3647
        61                         -0.0081744              -0.2224
        62                          0.0062013               0.1687
        63                          0.0269213               0.7326
        64                          0.0411774               1.1205
        65                          0.0489654               1.3324
        66                          0.0644690               1.7543
        67                          0.0782523               2.1294
       ...                                ...                  ...
        98                          0.6611150              17.9899
      -------------------------------------------------------------
                  HL-Gap            0.1609295 Eh            4.3791 eV
             Fermi-level           -0.3066238 Eh           -8.3437 eV

     #   Z          covCN         q      C6AA      α(0)
     1   8 O        1.655    -0.444    21.713     6.290
     2   6 C        3.675     0.077    19.513     6.330
     3   6 C        3.752     0.098    19.015     6.218
     4   8 O        1.702    -0.340    19.709     5.994
     5   6 C        3.651     0.253    16.979     5.918
     6   6 C        3.729     0.095    19.099     6.239
     7   6 C        3.731     0.098    19.053     6.231
     8   6 C        3.727     0.090    19.178     6.252
     9   8 O        1.656    -0.455    21.948     6.324
    10   8 O        1.656    -0.444    21.719     6.291
    11   8 O        1.657    -0.440    21.634     6.279
    12   8 O        1.708    -0.270    18.481     5.804
    13   6 C        2.873     0.139    24.967     8.191
    14   6 C        2.916    -0.059    29.470     8.902
    15   6 C        2.922    -0.032    28.807     8.802
    16   6 C        2.917    -0.038    28.947     8.823
    17   6 C        2.924    -0.035    28.877     8.812
    18   6 C        2.965    -0.016    28.402     8.742
    19   6 C        3.679     0.081    19.433     6.314
    20   8 O        1.655    -0.444    21.721     6.291
    21   1 H        0.805     0.306     0.703     1.317
    22   1 H        0.924     0.043     2.407     2.426
    23   1 H        0.924     0.047     2.358     2.402
    24   1 H        0.923     0.037     2.488     2.467
    25   1 H        0.922     0.014     2.831     2.631
    26   1 H        0.923     0.047     2.354     2.399
    27   1 H        0.923     0.032     2.557     2.501
    28   1 H        0.923     0.033     2.550     2.497
    29   1 H        0.804     0.325     0.649     1.266
    30   1 H        0.805     0.318     0.670     1.286
    31   1 H        0.805     0.325     0.652     1.268
    32   1 H        0.926     0.044     2.391     2.418
    33   1 H        0.926     0.039     2.463     2.454
    34   1 H        0.926     0.040     2.444     2.444
    35   1 H        0.926     0.045     2.378     2.411
    36   1 H        0.924     0.050     2.323     2.383
    37   1 H        0.923     0.030     2.591     2.517
    38   1 H        0.804     0.310     0.692     1.307

 Mol. C6AA /au·bohr⁶  :      14048.611642
 Mol. C8AA /au·bohr⁸  :     316662.238063
 Mol. α(0) /au        :        177.443999


Wiberg/Mayer (AO) data.
largest (>0.10) Wiberg bond orders for each atom

 ---------------------------------------------------------------------------
     #   Z sym  total        # sym  WBO       # sym  WBO       # sym  WBO
 ---------------------------------------------------------------------------
     1   8 O    1.965 --     2 C    0.996    21 H    0.890
     2   6 C    3.953 --     1 O    0.996     3 C    0.984    23 H    0.970
                            22 H    0.969
     3   6 C    3.946 --     2 C    0.984     4 O    0.972     8 C    0.964
                            24 H    0.955
     4   8 O    2.073 --     3 C    0.972     5 C    0.951
     5   6 C    3.930 --    12 O    1.003     6 C    0.957     4 O    0.951
                            25 H    0.944
     6   6 C    3.963 --    11 O    1.004     7 C    0.972     5 C    0.957
                            26 H    0.955
     7   6 C    3.963 --    10 O    1.000     6 C    0.972     8 C    0.968
                            27 H    0.955
     8   6 C    3.964 --     9 O    1.005     7 C    0.968     3 C    0.964
                            28 H    0.955
     9   8 O    1.949 --     8 C    1.005    29 H    0.856
    10   8 O    1.956 --     7 C    1.000    30 H    0.881
[...]
     J. Seibert, S. Spicher, S. Grimme, WIREs Comput. Mol. Sci., 2020, 11,
     e01493. DOI: 10.1002/wcms.1493
   
   for GFN2-xTB:
   * C. Bannwarth, S. Ehlert and S. Grimme., J. Chem. Theory Comput., 2019,
     15, 1652-1671. DOI: 10.1021/acs.jctc.8b01176
   for GFN1-xTB:
   * S. Grimme, C. Bannwarth, P. Shushkov, J. Chem. Theory Comput., 2017,
     13, 1989-2009. DOI: 10.1021/acs.jctc.7b00118
   for GFN0-xTB:
   * P. Pracht, E. Caldeweyher, S. Ehlert, S. Grimme, ChemRxiv, 2019, preprint.
     DOI: 10.26434/chemrxiv.8326202.v1
   for GFN-FF:
   * S. Spicher and S. Grimme, Angew. Chem. Int. Ed., 2020, 59, 15665-15673.
     DOI: 10.1002/anie.202004239
   
   for ALPB and GBSA implicit solvation:
   * S. Ehlert, M. Stahn, S. Spicher, S. Grimme, J. Chem. Theory Comput.,
     2021, 17, 4250-4261. DOI: 10.1021/acs.jctc.1c00471
   
   for ddCOSMO and CPCM-X implicit solvation:
   * M. Stahn, S. Ehlert, S. Grimme, J. Phys. Chem. A,
     2023, XX, XXXX-XXXX. DOI: 10.1021/acs.jpca.3c04382
   
   for DFT-D4:
   * E. Caldeweyher, C. Bannwarth and S. Grimme, J. Chem. Phys., 2017,
     147, 034112. DOI: 10.1063/1.4993215
   * E. Caldeweyher, S. Ehlert, A. Hansen, H. Neugebauer, S. Spicher,
     C. Bannwarth and S. Grimme, J. Chem. Phys., 2019, 150, 154122.
     DOI: 10.1063/1.5090222
   * E. Caldeweyher, J.-M. Mewes, S. Ehlert and S. Grimme, Phys. Chem. Chem. Phys.
     2020, 22, 8499-8512. DOI: 10.1039/D0CP00502A
   
   for sTDA-xTB:
   * S. Grimme and C. Bannwarth, J. Chem. Phys., 2016, 145, 054103.
     DOI: 10.1063/1.4959605
   
   in the mass-spec context:
   * V. Asgeirsson, C. Bauer and S. Grimme, Chem. Sci., 2017, 8, 4879.
     DOI: 10.1039/c7sc00601b
   * J. Koopman and S. Grimme, ACS Omega 2019, 4, 12, 15120-15133.
     DOI: 10.1021/acsomega.9b02011
   
   for metadynamics refer to:
   * S. Grimme, J. Chem. Theory Comput., 2019, 155, 2847-2862
     DOI: 10.1021/acs.jctc.9b00143
   
   for SPH calculations refer to:
   * S. Spicher and S. Grimme, J. Chem. Theory Comput., 2021, 17, 1701-1714
     DOI: 10.1021/acs.jctc.0c01306
   
   for ONIOM refer to:
   * C. Plett, A. Katbashev, S. Ehlert, S. Grimme, M. Bursch,
     Phys. Chem. Chem. Phys., 2023, 25, 17860-17868. DOI: 10.1039/D3CP02178E
   
   for DIPRO refer to:
   * J. Kohn, N. Gildemeister, S. Grimme, D. Fazzi, A. Hansen,
     J. Chem. Phys., 2023, just accepted.
   
   for PTB refer to:
   * S. Grimme, M. Mueller, A. Hansen, J. Chem. Phys., 2023, 158, 124111.
     DOI: 10.1063/5.0137838
   
   with help from (in alphabetical order)
   P. Atkinson, C. Bannwarth, F. Bohle, G. Brandenburg, E. Caldeweyher
   M. Checinski, S. Dohm, S. Ehlert, S. Ehrlich, I. Gerasimov, C. Hölzer
   A. Katbashev, J. Kohn, J. Koopman, C. Lavigne, S. Lehtola, F. März, M. Müller,
   F. Musil, H. Neugebauer, J. Pisarek, C. Plett, P. Pracht, F. Pultar,
   J. Seibert, P. Shushkov, S. Spicher, M. Stahn, M. Steiner, T. Strunk,
   J. Stückrath, T. Rose, and J. Unsleber
   
 * started run on 2025/05/15 at 16:10:54.686     
   ID    Z sym.   atoms
    1    8 O      1, 4, 9-12, 20
    2    6 C      2, 3, 5-8, 13-19
    3    1 H      21-38

           -------------------------------------------------
          |                Calculation Setup                |
           -------------------------------------------------

          program call               : xtb /rds/general/user/hgt20/home/callum/QDESCP/Salicin_rdkit_conf_9/Salicin_rdkit_conf_9.xyz --acc 1 --gfn 2 --chrg 0 --uhf 2 --etemp 300 --input /rds/general/user/hgt20/home/callum/QDESCP/Salicin_rdkit_conf_9/Salicin_rdkit_conf_9_xtb.inp -P 1
          hostname                   : login-c
          coordinate file            : /rds/general/user/hgt20/home/callum/QDESCP/Salicin_rdkit_conf_9/Salicin_rdkit_conf_9.xyz
          omp threads                :                     1


           -------------------------------------------------
          |                 G F N 2 - x T B                 |
           -------------------------------------------------

        Reference                      10.1021/acs.jctc.8b01176
      * Hamiltonian:
        H0-scaling (s, p, d)           1.850000    2.230000    2.230000
        zeta-weighting                 0.500000
      * Dispersion:
        s8                             2.700000
        a1                             0.520000
        a2                             5.000000
        s9                             5.000000
      * Repulsion:
        kExp                           1.500000    1.000000
        rExp                           1.000000
      * Coulomb:
        alpha                          2.000000
        third order                    shell-resolved
        anisotropic                    true
        a3                             3.000000
        a5                             4.000000
        cn-shift                       1.200000
        cn-exp                         4.000000
        max-rad                        5.000000


          ...................................................
          :                      SETUP                      :
          :.................................................:
          :  # basis functions                  98          :
          :  # atomic orbitals                  98          :
          :  # shells                           58          :
          :  # electrons                       112          :
          :  max. iterations                   250          :
          :  Hamiltonian                  GFN2-xTB          :
          :  restarted?                      false          :
          :  GBSA solvation                  false          :
          :  PC potential                    false          :
          :  electronic temp.          300.0000000     K    :
          :  accuracy                    1.0000000          :
          :  -> integral cutoff          0.2500000E+02      :
          :  -> integral neglect         0.1000000E-07      :
          :  -> SCF convergence          0.1000000E-05 Eh   :
          :  -> wf. convergence          0.1000000E-03 e    :
          :  Broyden damping             0.4000000          :
          :  net charge                          0          :
          :  unpaired electrons                  2          :
          ...................................................

 iter      E             dE          RMSdq      gap      omega  full diag
   1    -65.8542280 -0.658542E+02  0.451E+00    0.32       0.0  T
   2    -65.7834618  0.707662E-01  0.363E+00    0.65       1.0  T
   3    -65.8462680 -0.628063E-01  0.252E+00    0.76       1.0  T
   4    -65.9153586 -0.690906E-01  0.811E-01    0.08       1.0  T
   5    -65.9369734 -0.216148E-01  0.816E-01    0.11       1.0  T
   6    -65.9410134 -0.403995E-02  0.781E-01    0.03       1.0  T
   7    -65.9476872 -0.667385E-02  0.581E-01    0.14       1.0  T
   8    -65.9513391 -0.365191E-02  0.398E-01    0.10       1.0  T
   9    -65.9532829 -0.194380E-02  0.264E-01    0.09       1.0  T
  10    -65.9542268 -0.943921E-03  0.118E-01    0.07       1.0  T
  11    -65.9546135 -0.386623E-03  0.547E-02    0.07       1.0  T
  12    -65.9546670 -0.535095E-04  0.173E-02    0.07       1.0  T
  13    -65.9546723 -0.536979E-05  0.659E-03    0.07       2.5  T
  14    -65.9546732 -0.827042E-06  0.208E-03    0.07       7.8  T
  15    -65.9546731  0.436703E-07  0.271E-03    0.07       6.0  T
  16    -65.9546733 -0.181669E-06  0.415E-04    0.07      39.1  T
  17    -65.9546733 -0.298043E-08  0.162E-04    0.07     100.4  T

   *** convergence criteria satisfied after 17 iterations ***

         #    Occupation            Energy/Eh            Energy/eV
      -------------------------------------------------------------
         1        2.0000           -0.7438329             -20.2407
       ...           ...                  ...                  ...
        51        2.0000           -0.4264173             -11.6034
        52        2.0000           -0.4237480             -11.5308
        53        2.0000           -0.4172007             -11.3526
        54        1.9983           -0.3948361             -10.7440
        55        1.9784           -0.3924264             -10.6785
        56        1.0234           -0.3852569             -10.4834
        57        0.7882           -0.2158470              -5.8735 (HOMO)
        58        0.2118           -0.2133498              -5.8055 (LUMO)
        59                         -0.0878227              -2.3898
        60                         -0.0541342              -1.4731
        61                         -0.0134114              -0.3649
        62                          0.0018967               0.0516
       ...                                ...                  ...
        98                          0.6694232              18.2159
      -------------------------------------------------------------
                  HL-Gap            0.0024972 Eh            0.0680 eV
             Fermi-level           -0.3017012 Eh           -8.2097 eV

 transition dipole moment (au) for excitation:          56          57
     X       Y       Z   
  -1.2210   0.4083  -0.3872  total (au/Debye):    1.344   3.417
 dE (eV)             :    4.610
 oscillator strength :  0.28868E+00

 SCC (total)                   0 d,  0 h,  0 min,  0.104 sec
 SCC setup                      ...        0 min,  0.000 sec (  0.284%)
 Dispersion                     ...        0 min,  0.000 sec (  0.356%)
 classical contributions        ...        0 min,  0.000 sec (  0.115%)
 integral evaluation            ...        0 min,  0.006 sec (  6.144%)
 iterations                     ...        0 min,  0.029 sec ( 28.212%)
 molecular gradient             ...        0 min,  0.062 sec ( 59.364%)
 printout                       ...        0 min,  0.006 sec (  5.518%)

         :::::::::::::::::::::::::::::::::::::::::::::::::::::
         ::                     SUMMARY                     ::
         :::::::::::::::::::::::::::::::::::::::::::::::::::::
         :: total energy             -65.307178505362 Eh    ::
         :: gradient norm              0.138238353970 Eh/a0 ::
         :: HOMO-LUMO gap              0.067951833678 eV    ::
         ::.................................................::
         :: SCC energy               -65.954510641877 Eh    ::
         :: -> isotropic ES            0.148426322837 Eh    ::
         :: -> anisotropic ES         -0.005457819042 Eh    ::
         :: -> anisotropic XC         -0.003412160684 Eh    ::
         :: -> dispersion             -0.036816469992 Eh    ::
         :: repulsion energy           0.647332136515 Eh    ::
         :: add. restraining           0.000000000000 Eh    ::
         :: total charge              -0.000000000000 e     ::
         :::::::::::::::::::::::::::::::::::::::::::::::::::::

           -------------------------------------------------
          |                Property Printout                |
           -------------------------------------------------

    * Orbital Energies and Occupations

         #    Occupation            Energy/Eh            Energy/eV
      -------------------------------------------------------------
         1        2.0000           -0.7438329             -20.2407
       ...           ...                  ...                  ...
        45        2.0000           -0.4546252             -12.3710
        46        2.0000           -0.4523867             -12.3101
        47        2.0000           -0.4486188             -12.2075
        48        2.0000           -0.4435343             -12.0692
        49        2.0000           -0.4342533             -11.8166
        50        2.0000           -0.4319145             -11.7530
        51        2.0000           -0.4264173             -11.6034
        52        2.0000           -0.4237480             -11.5308
        53        2.0000           -0.4172007             -11.3526
        54        1.9983           -0.3948361             -10.7440
        55        1.9784           -0.3924264             -10.6785
        56        1.0234           -0.3852569             -10.4834
        57        0.7882           -0.2158470              -5.8735 (HOMO)
        58        0.2118           -0.2133498              -5.8055 (LUMO)
        59                         -0.0878227              -2.3898
        60                         -0.0541342              -1.4731
        61                         -0.0134114              -0.3649
        62                          0.0018967               0.0516
        63                          0.0231693               0.6305
        64                          0.0375760               1.0225
        65                          0.0446660               1.2154
        66                          0.0596807               1.6240
        67                          0.0742860               2.0214
        68                          0.0834768               2.2715
       ...                                ...                  ...
        98                          0.6694232              18.2159
      -------------------------------------------------------------
                  HL-Gap            0.0024972 Eh            0.0680 eV
             Fermi-level           -0.3017012 Eh           -8.2097 eV

     #   Z          covCN         q      C6AA      α(0)
     1   8 O        1.655    -0.443    21.703     6.289
     2   6 C        3.675     0.077    19.520     6.331
     3   6 C        3.752     0.098    19.025     6.220
     4   8 O        1.702    -0.335    19.609     5.979
     5   6 C        3.651     0.250    17.022     5.926
     6   6 C        3.729     0.095    19.097     6.239
     7   6 C        3.731     0.098    19.057     6.231
     8   6 C        3.727     0.090    19.183     6.253
     9   8 O        1.656    -0.454    21.932     6.322
    10   8 O        1.656    -0.443    21.707     6.289
    11   8 O        1.657    -0.440    21.643     6.280
    12   8 O        1.708    -0.237    17.934     5.718
    13   6 C        2.873     0.136    25.020     8.200
    14   6 C        2.916    -0.071    29.769     8.947
    15   6 C        2.922    -0.053    29.305     8.877
    16   6 C        2.917    -0.026    28.653     8.778
    17   6 C        2.924    -0.052    29.298     8.876
    18   6 C        2.965    -0.028    28.708     8.789
    19   6 C        3.679     0.080    19.455     6.318
    20   8 O        1.655    -0.434    21.526     6.263
    21   1 H        0.805     0.307     0.701     1.315
    22   1 H        0.924     0.044     2.400     2.423
    23   1 H        0.924     0.049     2.330     2.387
    24   1 H        0.923     0.039     2.456     2.451
    25   1 H        0.922     0.023     2.691     2.566
    26   1 H        0.923     0.048     2.343     2.394
    27   1 H        0.923     0.034     2.537     2.491
    28   1 H        0.923     0.033     2.540     2.492
    29   1 H        0.804     0.326     0.647     1.263
    30   1 H        0.805     0.319     0.667     1.283
    31   1 H        0.805     0.326     0.647     1.264
    32   1 H        0.926     0.033     2.538     2.491
    33   1 H        0.926     0.028     2.616     2.529
    34   1 H        0.926     0.036     2.505     2.475
    35   1 H        0.926     0.036     2.506     2.475
    36   1 H        0.924     0.054     2.269     2.356
    37   1 H        0.923     0.047     2.353     2.399
    38   1 H        0.804     0.311     0.689     1.304

 Mol. C6AA /au·bohr⁶  :      14050.064736
 Mol. C8AA /au·bohr⁸  :     316849.780125
 Mol. α(0) /au        :        177.481926


Wiberg/Mayer (AO) data.
largest (>0.10) Wiberg bond orders for each atom

 ---------------------------------------------------------------------------
     #   Z sym  total        # sym  WBO       # sym  WBO       # sym  WBO
 ---------------------------------------------------------------------------
     1   8 O    1.965 --     2 C    0.996    21 H    0.889
     2   6 C    3.952 --     1 O    0.996     3 C    0.984    23 H    0.969
                            22 H    0.969
     3   6 C    3.944 --     2 C    0.984     4 O    0.970     8 C    0.964
                            24 H    0.955
     4   8 O    2.075 --     3 C    0.970     5 C    0.953
     5   6 C    3.925 --    12 O    0.998     6 C    0.954     4 O    0.953
                            25 H    0.942
     6   6 C    3.961 --    11 O    1.004     7 C    0.971     5 C    0.954
                            26 H    0.954
     7   6 C    3.963 --    10 O    1.000     6 C    0.971     8 C    0.968
                            27 H    0.955
     8   6 C    3.964 --     9 O    1.005     7 C    0.968     3 C    0.964
                            28 H    0.955
     9   8 O    1.950 --     8 C    1.005    29 H    0.856
    10   8 O    1.956 --     7 C    1.000    30 H    0.880
    11   8 O    1.962 --     6 C    1.004    31 H    0.876
    12   8 O    2.286 --    13 C    1.070     5 C    0.998
    13   6 C    3.638 --    14 C    1.312    12 O    1.070    18 C    1.038
                            15 C    0.117
    14   6 C    3.856 --    15 C    1.424    13 C    1.312    32 H    0.966
    15   6 C    3.724 --    14 C    1.424    16 C    1.110    33 H    0.970
                            13 C    0.117
    16   6 C    3.719 --    17 C    1.400    15 C    1.110    34 H    0.970
                            18 C    0.137
    17   6 C    3.854 --    16 C    1.400    18 C    1.361    35 H    0.967
    18   6 C    3.684 --    17 C    1.361    13 C    1.038    19 C    1.012
                            16 C    0.137
    19   6 C    3.959 --    18 C    1.012    20 O    0.999    36 H    0.971
                            37 H    0.923
    20   8 O    1.981 --    19 C    0.999    38 H    0.876
    21   1 H    0.905 --     1 O    0.889
    22   1 H    0.998 --     2 C    0.969
    23   1 H    0.997 --     2 C    0.969
    24   1 H    0.998 --     3 C    0.955
    25   1 H    0.999 --     5 C    0.942
    26   1 H    0.998 --     6 C    0.954
    27   1 H    0.999 --     7 C    0.955
    28   1 H    0.999 --     8 C    0.955
    29   1 H    0.893 --     9 O    0.856
    30   1 H    0.898 --    10 O    0.880
    31   1 H    0.894 --    11 O    0.876
    32   1 H    0.998 --    14 C    0.966
    33   1 H    0.999 --    15 C    0.970
    34   1 H    0.998 --    16 C    0.970
    35   1 H    0.998 --    17 C    0.967
    36   1 H    0.997 --    19 C    0.971
    37   1 H    0.990 --    19 C    0.923
    38   1 H    0.903 --    20 O    0.876
 ---------------------------------------------------------------------------

Topologies differ in total number of bonds
Writing topology from bond orders to xtbtopo.mol

molecular dipole:
                 x           y           z       tot (Debye)
 q only:       -1.414       0.870       0.204
   full:       -2.066       1.329       0.275       6.282
molecular quadrupole (traceless):
                xx          xy          yy          xz          yz          zz
 q only:        3.585      -3.758       0.275       0.739       0.369      -3.860
  q+dip:        0.766      -3.382       1.258      -3.107      -2.758      -2.024
   full:        1.251      -4.270       0.683      -1.974      -0.737      -1.934


           -------------------------------------------------
          | TOTAL ENERGY              -65.307178505362 Eh   |
          | GRADIENT NORM               0.138238353970 Eh/α |
          | HOMO-LUMO GAP               0.067951833678 eV   |
           -------------------------------------------------

------------------------------------------------------------------------
 * finished run on 2025/05/15 at 16:10:54.802     
------------------------------------------------------------------------
 total:
 * wall-time:     0 d,  0 h,  0 min,  0.116 sec
 *  cpu-time:     0 d,  0 h,  0 min,  0.072 sec
 * ratio c/w:     0.622 speedup
 SCF:
 * wall-time:     0 d,  0 h,  0 min,  0.104 sec
 *  cpu-time:     0 d,  0 h,  0 min,  0.062 sec
 * ratio c/w:     0.593 speedup


