41
 energy: -72.630897728003 gnorm: 0.000567756549 xtb: 6.7.1 (edcfbbe)
C            0.67021624054571        2.59125031467109       -2.29084872349226
C            0.07444240272778        1.44548158609831       -1.55929045864115
C           -1.23513298434753        1.19613990746300       -1.28259894027906
C           -1.29673558104936       -0.01099840599532       -0.50929906705922
C            0.02518399496785       -0.46486227940921       -0.34793947714966
N            0.86979345174447        0.44872735257622       -0.98205831116965
C            2.24998732967906        0.37955728060510       -1.09147747378259
C            2.95713370392798       -0.29527828060071        0.03072814424806
C            4.05160178461695       -1.10817288241757       -0.24681637207258
C            4.77447362299882       -1.68435936100583        0.78024377879372
C            4.41587208949173       -1.41956305406833        2.09365134055120
Cl           5.31535804936239       -2.13180455160258        3.38256982578235
C            3.34788052385914       -0.58292937697743        2.38664974166256
C            2.61944822405120       -0.02429425905505        1.35488697359704
O            2.85400266921842        0.88005984499755       -2.01407361561586
C            0.27354597035873       -1.68124453055623        0.27322452396585
C           -0.79852233332863       -2.37439925324974        0.79104944857429
C           -2.11492998427220       -1.89488427665751        0.69199475118143
O           -3.06218224298148       -2.67817976989029        1.27791047541417
C           -4.40257497169207       -2.25023577698384        1.22681384409138
C           -2.37524993467477       -0.71348409670739        0.01851661925519
C           -2.43522495461061        2.00043800108633       -1.68202538751929
C           -2.94428551803835        2.71832347831724       -0.45333897477230
O           -2.32256187248197        3.89018553889569       -0.27615287500445
O           -3.77625776058093        2.30394731596439        0.30720184840025
H            1.53065789079811        2.98444647812193       -1.75334837366999
H           -0.06495510923887        3.38293391108933       -2.40369256952601
H            1.01966857981188        2.27973835452940       -3.27440888864753
H            4.32348676304765       -1.28969894372487       -1.27520487111728
H            5.61358091191047       -2.32774730980148        0.56857155646276
H            3.09200448734502       -0.37481726482445        3.41328307052525
H            1.78873542770561        0.62791968750472        1.57867021093127
H            1.26573362742875       -2.09376574263488        0.35464372679215
H           -0.64643829034494       -3.31730321106539        1.29083160483680
H           -4.52790162789920       -1.26493701894425        1.68582472872831
H           -4.77360176016283       -2.21982575593992        0.19729068830862
H           -4.96929916892128       -2.98848893363236        1.79187799341836
H           -3.37163085878227       -0.32201966146422       -0.09820188594593
H           -2.17300223073603        2.73026661072624       -2.44535346395704
H           -3.21653288477991        1.33405244040262       -2.04945172793933
H           -2.62568767667540        4.32002589416110        0.53894656184153
