57
 energy: -90.583557886255 gnorm: 0.000359551329 xtb: 6.7.1 (edcfbbe)
C            3.00857433483096       -1.44285382115463        0.98494050466946
N            3.24197501425101       -0.21545170114922        0.25904828188432
C            4.40042878439042        0.46499665966113        0.39121247178289
N            4.57380743430871        1.58315281271810       -0.27404159885968
C            5.74514722518826        2.22691419393324       -0.11519119438677
C            6.75912639512629        1.80633477716595        0.68446488311148
C            6.60965388455736        0.59113098457212        1.42974324491954
N            5.36356162151090       -0.02831875867366        1.21463100175134
O            7.40022918811935        0.06545539313664        2.18749824127870
C            2.21046864984085        0.30732903509769       -0.62339415860573
C            1.85829533228928       -0.67390412153805       -1.74314676271492
C            0.77564949370723       -0.06003258880894       -2.63248641197185
C            0.94577952093073        0.70359899569125        0.14432616148760
C           -0.07777489308022        1.28660191303699       -0.83540662444917
N           -0.40815707580143        0.33078752389134       -1.88306777969584
C           -1.22974432904801       -0.71818171620441       -1.52196968369585
N           -0.89902625276728       -1.98109073496679       -1.51877948715362
C           -2.03968482666558       -2.66595155733500       -1.18153857083274
C           -3.09332125543954       -1.74758525883378       -0.97364503662891
N           -2.55199526841398       -0.50185272583741       -1.20783405732266
C           -3.27330899472671        0.73757356770846       -1.26090958077486
C           -3.37909100362122        1.44769603673306        0.07092897224562
C           -3.62400992873487        2.81656464702584        0.09614342349991
C           -3.74597147039868        3.49184283549331        1.29577554718715
C           -3.61642139390539        2.77934745504730        2.47478544297193
F           -3.72912499049571        3.43069519763693        3.64940278801484
C           -3.37320130620058        1.41876026845754        2.48006420339102
C           -3.25870390832777        0.75696079722220        1.27038040184290
C           -4.36112628440473       -2.16052277547706       -0.60439241962045
C           -4.55845137297514       -3.52028236949547       -0.45088761343975
C           -3.52534717320144       -4.43425463759620       -0.65382958013767
C           -2.25770404354391       -4.02759085961776       -1.01976173432553
H            3.74117499119935       -2.20920477646588        0.71538619685643
H            3.04050846456099       -1.27757363027902        2.06622932609182
H            2.02322904638121       -1.82080945605021        0.73019507235798
H            5.82379356527068        3.13922319920666       -0.69192742755369
H            7.68107658523401        2.35243366643972        0.78341529780845
H            5.22858767159935       -0.89152544915763        1.72413387820763
H            2.64811734785964        1.20906559093142       -1.06321354130194
H            1.46136557431024       -1.60685947702410       -1.34305182097042
H            2.74505713046361       -0.89244462244302       -2.33825512556088
H            1.15485701574678        0.84133750531621       -3.12293719693258
H            0.46856376886613       -0.77951780456005       -3.39190124862178
H            0.50381827832370       -0.16901001488111        0.63039249890337
H            1.18888881106005        1.44191775072135        0.90944254190762
H            0.33636710632073        2.17484560438770       -1.32070135095094
H           -0.98161834469945        1.57283955923111       -0.29698087059014
H           -4.28521598498548        0.52140428834820       -1.62654388517219
H           -2.78089781845415        1.38745858470762       -1.99179263067258
H           -3.71895278458879        3.35838091488543       -0.83317211100834
H           -3.93569422126249        4.55278531571510        1.32707793801040
H           -3.27989142990210        0.89282627573605        3.41673806511179
H           -3.07195770437929       -0.30635737812701        1.26517027715421
H           -5.16266791072379       -1.45548222142159       -0.43810473234603
H           -5.53461134971321       -3.88289036131959       -0.16514000983369
H           -3.72642104077047       -5.48676909461447       -0.51912115675860
H           -1.45820787499556       -4.73384343682360       -1.17630125954218
