57
 energy: -87.643459895712 gnorm: 0.000602837476 xtb: 6.7.1 (edcfbbe)
O           -2.85293153648627        1.10568687623275       -1.73166598411778
C           -3.35580474731919        0.53699266485343       -0.77800333870703
C           -2.66478706624888        0.08791567798121        0.40890211025794
C           -1.18441642440219        0.32015204672370        0.44480506960525
C           -0.45427644732916       -0.83702798666367       -0.25215008107146
N            0.98466260486499       -0.65342264485718       -0.23282733935900
C            1.57341713645125       -1.03336345185153        1.03723329096566
C            3.03990743273613       -0.61926466221259        1.08528729415748
C            3.80542556284105       -1.30010589968686       -0.05275457507698
C            3.12030872282674       -0.95253889644831       -1.37729769035036
C            1.64883402718695       -1.34920366466127       -1.31948013020366
C            5.23835192874666       -0.90014477032751       -0.05800652846733
N            6.17789294075489       -1.78007190475332        0.10812742634170
O            7.39787492397565       -1.16097198608122        0.06478590210706
C            7.19669263961495        0.15126035992728       -0.13605870881659
C            5.81317043552592        0.40641493932227       -0.22745377505738
C            5.35912048545022        1.70837129792672       -0.43668411772137
C            6.29316279509474        2.71154852306438       -0.54828367257628
C            7.65619234357267        2.41941038904771       -0.45198035522847
F            8.52717847228625        3.43957346288385       -0.56794366888705
C            8.15277028395994        1.15139795715136       -0.24569002559054
C           -3.35995944213906       -0.54269395131446        1.40118397573160
N           -4.70108328011190       -0.75780997419901        1.32401457826883
C           -5.33020565069217       -0.35864288755097        0.26993128988962
N           -4.73114817212590        0.26417564820631       -0.76872432139934
C           -5.56260492646986        0.72131661860911       -1.86051153035733
C           -6.72658318867362        1.52710878439393       -1.28844498289689
C           -7.53443186355863        0.69550832477710       -0.27720491776622
C           -6.79755030103770       -0.59210081022392        0.12375931908506
C           -2.72301754355313       -1.04429077076317        2.65975644904831
H           -0.95712967959680        1.23512746796959       -0.10353209128813
H           -0.84209752922317        0.42791979467208        1.47288166454053
H           -0.78476741755944       -0.85173669387127       -1.29288192857965
H           -0.74837653229713       -1.79808309348267        0.20792684852395
H            1.49353645354215       -2.12510025368823        1.20521046896284
H            1.03274587936007       -0.52909616479020        1.84013646034403
H            3.10358074068690        0.46353318430530        0.97692970095415
H            3.47096011504808       -0.89785783684778        2.04849032333056
H            3.77306860054560       -2.38508302880883        0.09378143636557
H            3.18722659634166        0.12018842731328       -1.55737380499125
H            3.60911966958689       -1.47380820852210       -2.20204472143004
H            1.16246168867381       -1.06623255325074       -2.25584833129520
H            1.56888939299131       -2.44715060611194       -1.20759394458859
H            4.30657366798852        1.92898955521570       -0.51021934765885
H            5.99625092580733        3.73529381533134       -0.71130792849761
H            9.20855945736805        0.95450077242716       -0.17538160138990
H           -5.92910986875174       -0.13874867552026       -2.43058640886754
H           -4.92901350806373        1.33150358799117       -2.50912200279925
H           -7.36159779054825        1.86701031384510       -2.10610122423616
H           -6.31475317447885        2.41095322815983       -0.79798015978440
H           -7.71892505019461        1.28982067038236        0.61803682697924
H           -8.50420771903075        0.42302177460054       -0.69503403754262
H           -7.18522634482349       -0.99049191782874        1.05983058275708
H           -6.94087864653842       -1.34904774288815       -0.65290756085129
H           -1.89941526364016       -1.71883334176637        2.43547925266737
H           -2.33276839659382       -0.21238338094942        3.24515795009137
H           -3.47086841234402       -1.56938840338089        3.24693261647563
