33
 energy: -50.360019702602 gnorm: 0.000702072862 xtb: 6.7.1 (edcfbbe)
C            3.36209886925698        1.84650343261409       -1.18003903147378
N            2.21321011906343        1.30734703727298       -0.49659159008282
C            2.23911098270954        0.47795294888281        0.58362667795478
N            1.05072996201732        0.34914567522324        1.22679796337381
C            0.84271465266730       -0.71717156765228        2.16949501503919
C            0.74064046051540       -2.09937229578309        1.51545483461745
S           -0.23711041173495       -2.14251937993850       -0.02342548100143
C           -1.85405674717381       -1.41085491986805        0.49609737062975
C           -2.13273328041078       -0.17129407203509       -0.26534370954525
C           -3.06565416318095        0.03588863371308       -1.25211472218223
C           -4.09881941790475       -0.85020638639461       -1.84404810502341
N           -2.89221158356257        1.33684392417409       -1.64880179936323
C           -1.87842409953825        1.85107114876780       -0.91841956594478
N           -1.40319117892046        0.97182070938697       -0.08170120709133
N            3.25281394028565       -0.16951156199986        1.05034835146948
C            4.48768708539902       -0.20826901452588        0.67537831382517
N            5.61408234139560       -0.36179390606120        0.46862815219775
H            3.16574357137816        1.87178308789834       -2.25327810417055
H            3.59440638508285        2.86054506083277       -0.83669453259969
H            4.22707625389571        1.21212703639295       -0.99767018009459
H            1.33309406625963        1.76991690314501       -0.66957940742522
H            0.20793022122346        0.66725091180168        0.73841334743560
H            1.68799951733701       -0.73990920392287        2.86355444100837
H           -0.06569246387008       -0.48424671201931        2.73051296308901
H            1.72709886911936       -2.42687314635310        1.18897735655059
H            0.32919814148602       -2.82963496007613        2.21280947047342
H           -2.62234311995629       -2.15747967420130        0.30350778994569
H           -1.78526155459117       -1.21839632276656        1.56331630448769
H           -3.72716737582411       -1.87036427182571       -1.90329178131954
H           -4.35673855709544       -0.51433647247819       -2.84648330109019
H           -5.00564630542180       -0.85077728982189       -1.23732502553350
H           -3.42744531644330        1.80770230569703       -2.36003959472583
H           -1.52343986346940        2.85691234192080       -1.02077121342684
