----- Optimization -----
      -----------------------------------------------------------      
     |                   =====================                   |     
     |                           x T B                           |     
     |                   =====================                   |     
     |                         S. Grimme                         |     
     |          Mulliken Center for Theoretical Chemistry        |     
     |                    University of Bonn                     |     
      -----------------------------------------------------------      

   * xtb version 6.7.1 (edcfbbe) compiled by 'conda@3ef47c1a292c' on 2024-11-25

   xtb is free software: you can redistribute it and/or modify it under
   the terms of the GNU Lesser General Public License as published by
   the Free Software Foundation, either version 3 of the License, or
   (at your option) any later version.
   
   xtb is distributed in the hope that it will be useful,
   but WITHOUT ANY WARRANTY; without even the implied warranty of
   MERCHANTABILITY or FITNESS FOR A PARTICULAR PURPOSE.  See the
   GNU Lesser General Public License for more details.
   
   Cite this work as:
   * C. Bannwarth, E. Caldeweyher, S. Ehlert, A. Hansen, P. Pracht,
     J. Seibert, S. Spicher, S. Grimme, WIREs Comput. Mol. Sci., 2020, 11,
     e01493. DOI: 10.1002/wcms.1493
   
   for GFN2-xTB:
   * C. Bannwarth, S. Ehlert and S. Grimme., J. Chem. Theory Comput., 2019,
     15, 1652-1671. DOI: 10.1021/acs.jctc.8b01176
   for GFN1-xTB:
   * S. Grimme, C. Bannwarth, P. Shushkov, J. Chem. Theory Comput., 2017,
     13, 1989-2009. DOI: 10.1021/acs.jctc.7b00118
   for GFN0-xTB:
   * P. Pracht, E. Caldeweyher, S. Ehlert, S. Grimme, ChemRxiv, 2019, preprint.
     DOI: 10.26434/chemrxiv.8326202.v1
   for GFN-FF:
   * S. Spicher and S. Grimme, Angew. Chem. Int. Ed., 2020, 59, 15665-15673.
     DOI: 10.1002/anie.202004239
   
   for ALPB and GBSA implicit solvation:
   * S. Ehlert, M. Stahn, S. Spicher, S. Grimme, J. Chem. Theory Comput.,
     2021, 17, 4250-4261. DOI: 10.1021/acs.jctc.1c00471
   
   for ddCOSMO and CPCM-X implicit solvation:
   * M. Stahn, S. Ehlert, S. Grimme, J. Phys. Chem. A,
     2023, XX, XXXX-XXXX. DOI: 10.1021/acs.jpca.3c04382
   
   for DFT-D4:
   * E. Caldeweyher, C. Bannwarth and S. Grimme, J. Chem. Phys., 2017,
     147, 034112. DOI: 10.1063/1.4993215
   * E. Caldeweyher, S. Ehlert, A. Hansen, H. Neugebauer, S. Spicher,
     C. Bannwarth and S. Grimme, J. Chem. Phys., 2019, 150, 154122.
     DOI: 10.1063/1.5090222
   * E. Caldeweyher, J.-M. Mewes, S. Ehlert and S. Grimme, Phys. Chem. Chem. Phys.
     2020, 22, 8499-8512. DOI: 10.1039/D0CP00502A
   
   for sTDA-xTB:
   * S. Grimme and C. Bannwarth, J. Chem. Phys., 2016, 145, 054103.
     DOI: 10.1063/1.4959605
   
   in the mass-spec context:
   * V. Asgeirsson, C. Bauer and S. Grimme, Chem. Sci., 2017, 8, 4879.
     DOI: 10.1039/c7sc00601b
   * J. Koopman and S. Grimme, ACS Omega 2019, 4, 12, 15120-15133.
     DOI: 10.1021/acsomega.9b02011
   
   for metadynamics refer to:
   * S. Grimme, J. Chem. Theory Comput., 2019, 155, 2847-2862
     DOI: 10.1021/acs.jctc.9b00143
   
   for SPH calculations refer to:
   * S. Spicher and S. Grimme, J. Chem. Theory Comput., 2021, 17, 1701-1714
     DOI: 10.1021/acs.jctc.0c01306
   
   for ONIOM refer to:
   * C. Plett, A. Katbashev, S. Ehlert, S. Grimme, M. Bursch,
     Phys. Chem. Chem. Phys., 2023, 25, 17860-17868. DOI: 10.1039/D3CP02178E
   
   for DIPRO refer to:
   * J. Kohn, N. Gildemeister, S. Grimme, D. Fazzi, A. Hansen,
     J. Chem. Phys., 2023, just accepted.
   
   for PTB refer to:
   * S. Grimme, M. Mueller, A. Hansen, J. Chem. Phys., 2023, 158, 124111.
     DOI: 10.1063/5.0137838
   
   with help from (in alphabetical order)
   P. Atkinson, C. Bannwarth, F. Bohle, G. Brandenburg, E. Caldeweyher
   M. Checinski, S. Dohm, S. Ehlert, S. Ehrlich, I. Gerasimov, C. Hölzer
   A. Katbashev, J. Kohn, J. Koopman, C. Lavigne, S. Lehtola, F. März, M. Müller,
   F. Musil, H. Neugebauer, J. Pisarek, C. Plett, P. Pracht, F. Pultar,
   J. Seibert, P. Shushkov, S. Spicher, M. Stahn, M. Steiner, T. Strunk,
   J. Stückrath, T. Rose, and J. Unsleber
   
 * started run on 2025/05/15 at 16:19:05.282     
   ID    Z sym.   atoms
    1    6 C      1, 3, 5, 6, 8-11, 13, 16
    2    7 N      2, 4, 12, 14, 15, 17
    3   16 S      7
    4    1 H      18-33

           -------------------------------------------------
          |                Calculation Setup                |
           -------------------------------------------------

          program call               : xtb /rds/general/user/hgt20/home/callum/QDESCP/Cimetadine_rdkit_conf_8/Cimetadine_rdkit_conf_8.xyz --opt normal --acc 1 --gfn 2 --chrg 0 --uhf 0 -P 1
          hostname                   : login-c
          coordinate file            : /rds/general/user/hgt20/home/callum/QDESCP/Cimetadine_rdkit_conf_8/Cimetadine_rdkit_conf_8.xyz
          omp threads                :                     1


           -------------------------------------------------
          |                 G F N 2 - x T B                 |
           -------------------------------------------------

        Reference                      10.1021/acs.jctc.8b01176
      * Hamiltonian:
        H0-scaling (s, p, d)           1.850000    2.230000    2.230000
        zeta-weighting                 0.500000
      * Dispersion:
        s8                             2.700000
        a1                             0.520000
        a2                             5.000000
        s9                             5.000000
      * Repulsion:
        kExp                           1.500000    1.000000
        rExp                           1.000000
      * Coulomb:
        alpha                          2.000000
        third order                    shell-resolved
        anisotropic                    true
        a3                             3.000000
        a5                             4.000000
        cn-shift                       1.200000
        cn-exp                         4.000000
        max-rad                        5.000000


          ...................................................
          :                      SETUP                      :
          :.................................................:
          :  # basis functions                  90          :
          :  # atomic orbitals                  89          :
          :  # shells                           51          :
          :  # electrons                        92          :
          :  max. iterations                   250          :
          :  Hamiltonian                  GFN2-xTB          :
          :  restarted?                      false          :
          :  GBSA solvation                  false          :
          :  PC potential                    false          :
          :  electronic temp.          300.0000000     K    :
          :  accuracy                    1.0000000          :
          :  -> integral cutoff          0.2500000E+02      :
          :  -> integral neglect         0.1000000E-07      :
          :  -> SCF convergence          0.1000000E-05 Eh   :
          :  -> wf. convergence          0.1000000E-03 e    :
          :  Broyden damping             0.4000000          :
          :  net charge                          0          :
          :  unpaired electrons                  0          :
          ...................................................

 iter      E             dE          RMSdq      gap      omega  full diag
   1    -50.8985601 -0.508986E+02  0.418E+00    3.91       0.0  T
   2    -50.9928463 -0.942862E-01  0.263E+00    3.82       1.0  T
   3    -50.9928200  0.263731E-04  0.152E+00    3.77       1.0  T
   4    -51.0088695 -0.160495E-01  0.715E-01    3.45       1.0  T
   5    -51.0198294 -0.109599E-01  0.185E-01    3.49       1.0  T
   6    -51.0198523 -0.228565E-04  0.108E-01    3.54       1.0  T
   7    -51.0200274 -0.175158E-03  0.313E-02    3.55       1.0  T
   8    -51.0200362 -0.878505E-05  0.131E-02    3.55       1.3  T
   9    -51.0200372 -0.974240E-06  0.516E-03    3.55       3.4  T
  10    -51.0200373 -0.134137E-06  0.224E-03    3.55       7.8  T
  11    -51.0200374 -0.609190E-07  0.958E-04    3.55      18.2  T
  12    -51.0200374 -0.681249E-08  0.355E-04    3.55      49.0  T

   *** convergence criteria satisfied after 12 iterations ***

         #    Occupation            Energy/Eh            Energy/eV
      -------------------------------------------------------------
         1        2.0000           -0.7098680             -19.3165
       ...           ...                  ...                  ...
        40        2.0000           -0.4071213             -11.0783
        41        2.0000           -0.3944152             -10.7326
        42        2.0000           -0.3912144             -10.6455
        43        2.0000           -0.3856203             -10.4933
        44        2.0000           -0.3707303             -10.0881
        45        2.0000           -0.3628540              -9.8738
        46        2.0000           -0.3578370              -9.7372 (HOMO)
        47                         -0.2273237              -6.1858 (LUMO)
        48                         -0.2134066              -5.8071
        49                         -0.2130944              -5.7986
        50                         -0.1890606              -5.1446
        51                         -0.1443606              -3.9283
       ...                                ...                  ...
        89                          1.1750164              31.9738
      -------------------------------------------------------------
                  HL-Gap            0.1305133 Eh            3.5514 eV
             Fermi-level           -0.2925803 Eh           -7.9615 eV

 SCC (total)                   0 d,  0 h,  0 min,  0.040 sec
 SCC setup                      ...        0 min,  0.000 sec (  0.655%)
 Dispersion                     ...        0 min,  0.000 sec (  0.712%)
 classical contributions        ...        0 min,  0.000 sec (  0.235%)
 integral evaluation            ...        0 min,  0.006 sec ( 14.269%)
 iterations                     ...        0 min,  0.017 sec ( 43.573%)
 molecular gradient             ...        0 min,  0.016 sec ( 40.219%)
 printout                       ...        0 min,  0.000 sec (  0.323%)

         :::::::::::::::::::::::::::::::::::::::::::::::::::::
         ::                     SUMMARY                     ::
         :::::::::::::::::::::::::::::::::::::::::::::::::::::
         :: total energy             -50.345073935964 Eh    ::
         :: gradient norm              0.064894301369 Eh/a0 ::
         :: HOMO-LUMO gap              3.551447566576 eV    ::
         ::.................................................::
         :: SCC energy               -51.019596295077 Eh    ::
         :: -> isotropic ES            0.057808707015 Eh    ::
         :: -> anisotropic ES          0.010627546803 Eh    ::
         :: -> anisotropic XC          0.043955714449 Eh    ::
         :: -> dispersion             -0.033429279317 Eh    ::
         :: repulsion energy           0.674522359113 Eh    ::
         :: add. restraining           0.000000000000 Eh    ::
         :: total charge               0.000000000000 e     ::
         :::::::::::::::::::::::::::::::::::::::::::::::::::::

      ----------------------------------------------------------- 
     |                   =====================                   |
     |                        A N C O P T                        |
     |                   =====================                   |
     |               Approximate Normal Coordinate               |
     |                Rational Function Optimizer                |
      ----------------------------------------------------------- 
      ----------------------------------------------------------- 
     |                   =====================                   |
     |                        A N C O P T                        |
     |                   =====================                   |
     |               Approximate Normal Coordinate               |
     |                Rational Function Optimizer                |
      ----------------------------------------------------------- 

          ...................................................
          :                      SETUP                      :
          :.................................................:
          :   optimization level            normal          :
          :   max. optcycles                   200          :
          :   ANC micro-cycles                  20          :
          :   degrees of freedom                93          :
          :.................................................:
          :   RF solver                   davidson          :
          :   write xtbopt.log                true          :
          :   linear?                        false          :
          :   energy convergence         0.5000000E-05 Eh   :
          :   grad. convergence          0.1000000E-02 Eh/α :
          :   maxmium RF displ.          1.0000000          :
          :   Hlow (freq-cutoff)         0.1000000E-01      :
          :   Hmax (freq-cutoff)         5.0000000          :
          :   S6 in model hess.         20.0000000          :
          ...................................................

generating ANC from exact Hessian ...
Using Lindh-Hessian (1995)
 Shifting diagonal of input Hessian by    9.6644900495762767E-003
 Lowest  eigenvalues of input Hessian
    0.000000    0.000000    0.000000    0.000000    0.000000    0.000000
    0.010000    0.010079    0.010351    0.011290    0.011910    0.012422
    0.013497    0.014311    0.016337    0.017477    0.018319    0.020498
 Highest eigenvalues
    1.868397    2.029573    2.059966    2.123470    2.277120    2.735641


........................................................................
.............................. CYCLE    1 ..............................
........................................................................

 iter      E             dE          RMSdq      gap      omega  full diag
   1    -51.0200374 -0.510200E+02  0.116E-04    3.55       0.0  T
   2    -51.0200374 -0.650147E-10  0.741E-05    3.55     234.9  T
   3    -51.0200374 -0.574829E-11  0.452E-05    3.55     384.7  T
     SCC iter.                  ...        0 min,  0.005 sec
     gradient                   ...        0 min,  0.042 sec
 * total energy  :   -50.3450739 Eh     change       -0.3938183E-09 Eh
   gradient norm :     0.0648936 Eh/α   predicted     0.0000000E+00 (-100.00%)
   displ. norm   :     0.3712718 α      lambda       -0.1182456E-01
   maximum displ.:     0.1141115 α      in ANC's #6, #19, #13, ...

........................................................................
.............................. CYCLE    2 ..............................
........................................................................

 iter      E             dE          RMSdq      gap      omega  full diag
   1    -51.0438037 -0.510438E+02  0.408E-01    3.62       0.0  T
   2    -51.0440148 -0.211060E-03  0.235E-01    3.60       1.0  T
   3    -51.0436831  0.331720E-03  0.127E-01    3.59       1.0  T
   4    -51.0441010 -0.417964E-03  0.262E-02    3.59       1.0  T
   5    -51.0441145 -0.134244E-04  0.832E-03    3.59       2.1  T
   6    -51.0441147 -0.199737E-06  0.396E-03    3.59       4.4  T
   7    -51.0441149 -0.204589E-06  0.159E-03    3.59      11.0  T
   8    -51.0441149 -0.303518E-07  0.724E-04    3.59      24.0  T
   9    -51.0441149 -0.188929E-08  0.264E-04    3.59      65.8  T
     SCC iter.                  ...        0 min,  0.012 sec
     gradient                   ...        0 min,  0.015 sec
 * total energy  :   -50.3515990 Eh     change       -0.6525087E-02 Eh
   gradient norm :     0.0431084 Eh/α   predicted    -0.6727857E-02 (   3.11%)
   displ. norm   :     0.5264410 α      lambda       -0.1130626E-01
   maximum displ.:     0.2261850 α      in ANC's #9, #6, #16, ...

........................................................................
.............................. CYCLE    3 ..............................
........................................................................

 iter      E             dE          RMSdq      gap      omega  full diag
   1    -51.0852783 -0.510853E+02  0.588E-01    3.58       0.0  T
   2    -51.0855535 -0.275205E-03  0.334E-01    3.53       1.0  T
   3    -51.0848670  0.686528E-03  0.203E-01    3.55       1.0  T
   4    -51.0858316 -0.964594E-03  0.207E-02    3.54       1.0  T
   5    -51.0858353 -0.375576E-05  0.943E-03    3.54       1.8  T
   6    -51.0858354 -0.516146E-07  0.385E-03    3.54       4.5  T
   7    -51.0858357 -0.280567E-06  0.134E-03    3.55      13.0  T
   8    -51.0858357 -0.183350E-07  0.561E-04    3.54      31.0  T
   9    -51.0858357 -0.112153E-08  0.195E-04    3.54      89.1  T
     SCC iter.                  ...        0 min,  0.060 sec
     gradient                   ...        0 min,  0.016 sec
 * total energy  :   -50.3519342 Eh     change       -0.3351611E-03 Eh
   gradient norm :     0.0707865 Eh/α   predicted    -0.7219837E-02 (2054.14%)
   displ. norm   :     0.2048377 α      lambda       -0.5955320E-02
   maximum displ.:     0.0861819 α      in ANC's #19, #15, #6, ...

........................................................................
.............................. CYCLE    4 ..............................
........................................................................

 iter      E             dE          RMSdq      gap      omega  full diag
   1    -51.0691362 -0.510691E+02  0.217E-01    3.58       0.0  T
   2    -51.0691752 -0.390027E-04  0.128E-01    3.55       1.0  T
   3    -51.0690511  0.124117E-03  0.795E-02    3.53       1.0  T
   4    -51.0692132 -0.162049E-03  0.109E-02    3.53       1.6  T
   5    -51.0692142 -0.105201E-05  0.522E-03    3.53       3.3  T
   6    -51.0692144 -0.199643E-06  0.201E-03    3.53       8.7  T
   7    -51.0692144 -0.329956E-07  0.854E-04    3.53      20.4  T
   8    -51.0692145 -0.626111E-08  0.407E-04    3.53      42.8  T
     SCC iter.                  ...        0 min,  0.011 sec
     gradient                   ...        0 min,  0.016 sec
 * total energy  :   -50.3560142 Eh     change       -0.4079976E-02 Eh
   gradient norm :     0.0194112 Eh/α   predicted    -0.3102613E-02 ( -23.96%)
   displ. norm   :     0.3172414 α      lambda       -0.2650550E-02
   maximum displ.:     0.1536670 α      in ANC's #6, #4, #16, ...

........................................................................
.............................. CYCLE    5 ..............................
........................................................................

 iter      E             dE          RMSdq      gap      omega  full diag
   1    -51.0579142 -0.510579E+02  0.278E-01    3.55       0.0  T
   2    -51.0580005 -0.863048E-04  0.156E-01    3.51       1.0  T
   3    -51.0579949  0.567012E-05  0.288E-02    3.47       1.0  T
   4    -51.0580139 -0.190438E-04  0.134E-02    3.47       1.3  T
   5    -51.0580175 -0.355483E-05  0.536E-03    3.47       3.2  T
   6    -51.0580177 -0.216456E-06  0.268E-03    3.48       6.5  T
   7    -51.0580178 -0.773003E-07  0.835E-04    3.48      20.9  T
   8    -51.0580178 -0.240559E-08  0.487E-04    3.48      35.8  T
     SCC iter.                  ...        0 min,  0.011 sec
     gradient                   ...        0 min,  0.024 sec
 * total energy  :   -50.3573549 Eh     change       -0.1340720E-02 Eh
   gradient norm :     0.0272697 Eh/α   predicted    -0.1458675E-02 (   8.80%)
   displ. norm   :     0.1861108 α      lambda       -0.8911627E-03
   maximum displ.:     0.0954000 α      in ANC's #9, #4, #16, ...

........................................................................
.............................. CYCLE    6 ..............................
........................................................................

 iter      E             dE          RMSdq      gap      omega  full diag
   1    -51.0616651 -0.510617E+02  0.849E-02    3.46       0.0  T
   2    -51.0616732 -0.813093E-05  0.472E-02    3.43       1.0  T
   3    -51.0616589  0.143461E-04  0.313E-02    3.43       1.0  T
   4    -51.0616793 -0.204355E-04  0.534E-03    3.42       3.3  T
   5    -51.0616798 -0.494408E-06  0.201E-03    3.42       8.6  T
   6    -51.0616798 -0.587950E-08  0.766E-04    3.43      22.7  T
   7    -51.0616798 -0.735434E-08  0.324E-04    3.43      53.8  T
     SCC iter.                  ...        0 min,  0.010 sec
     gradient                   ...        0 min,  0.015 sec
 * total energy  :   -50.3580592 Eh     change       -0.7042763E-03 Eh
   gradient norm :     0.0163932 Eh/α   predicted    -0.4610163E-03 ( -34.54%)
   displ. norm   :     0.3716577 α      lambda       -0.1040748E-02
   maximum displ.:     0.1918863 α      in ANC's #4, #9, #16, ...

........................................................................
.............................. CYCLE    7 ..............................
........................................................................

 iter      E             dE          RMSdq      gap      omega  full diag
   1    -51.0659047 -0.510659E+02  0.137E-01    3.42       0.0  T
   2    -51.0659212 -0.165572E-04  0.768E-02    3.38       1.0  T
   3    -51.0658872  0.340495E-04  0.429E-02    3.37       1.0  T
   4    -51.0659308 -0.435845E-04  0.755E-03    3.36       2.3  T
   5    -51.0659315 -0.756022E-06  0.318E-03    3.36       5.5  T
   6    -51.0659316 -0.491407E-07  0.112E-03    3.37      15.5  T
   7    -51.0659316 -0.102083E-07  0.510E-04    3.37      34.1  T
   8    -51.0659316 -0.862670E-10  0.260E-04    3.37      67.0  T
     SCC iter.                  ...        0 min,  0.011 sec
     gradient                   ...        0 min,  0.060 sec
 * total energy  :   -50.3587395 Eh     change       -0.6803350E-03 Eh
   gradient norm :     0.0095211 Eh/α   predicted    -0.5922546E-03 ( -12.95%)
   displ. norm   :     0.2198421 α      lambda       -0.3129921E-03
   maximum displ.:     0.1389530 α      in ANC's #4, #6, #9, ...

........................................................................
.............................. CYCLE    8 ..............................
........................................................................

 iter      E             dE          RMSdq      gap      omega  full diag
   1    -51.0696076 -0.510696E+02  0.771E-02    3.38       0.0  T
   2    -51.0696102 -0.258096E-05  0.430E-02    3.37       1.0  T
   3    -51.0696086  0.153631E-05  0.101E-02    3.36       1.7  T
   4    -51.0696112 -0.252801E-05  0.322E-03    3.36       5.4  T
   5    -51.0696113 -0.859489E-07  0.127E-03    3.36      13.7  T
   6    -51.0696113 -0.200366E-07  0.438E-04    3.36      39.7  T
   7    -51.0696113 -0.238745E-08  0.208E-04    3.36      83.6  T
     SCC iter.                  ...        0 min,  0.010 sec
     gradient                   ...        0 min,  0.015 sec
 * total energy  :   -50.3589634 Eh     change       -0.2238666E-03 Eh
   gradient norm :     0.0053457 Eh/α   predicted    -0.1640666E-03 ( -26.71%)
   displ. norm   :     0.2258866 α      lambda       -0.2045456E-03
   maximum displ.:     0.1497695 α      in ANC's #4, #6, #9, ...

........................................................................
.............................. CYCLE    9 ..............................
........................................................................

 iter      E             dE          RMSdq      gap      omega  full diag
   1    -51.0704349 -0.510704E+02  0.877E-02    3.38       0.0  T
   2    -51.0704393 -0.435016E-05  0.488E-02    3.38       1.0  T
   3    -51.0704395 -0.275628E-06  0.709E-03    3.37       2.5  T
   4    -51.0704403 -0.782090E-06  0.346E-03    3.37       5.0  T
   5    -51.0704405 -0.181814E-06  0.148E-03    3.37      11.8  T
   6    -51.0704405 -0.187173E-07  0.577E-04    3.37      30.2  T
   7    -51.0704405 -0.620656E-08  0.233E-04    3.37      74.8  T
     SCC iter.                  ...        0 min,  0.010 sec
     gradient                   ...        0 min,  0.043 sec
 * total energy  :   -50.3591049 Eh     change       -0.1415891E-03 Eh
   gradient norm :     0.0044936 Eh/α   predicted    -0.1074927E-03 ( -24.08%)
   displ. norm   :     0.1728511 α      lambda       -0.1319372E-03
   maximum displ.:     0.1136345 α      in ANC's #4, #6, #1, ...

........................................................................
.............................. CYCLE   10 ..............................
........................................................................

 iter      E             dE          RMSdq      gap      omega  full diag
   1    -51.0727734 -0.510728E+02  0.617E-02    3.38       0.0  T
   2    -51.0727766 -0.317333E-05  0.344E-02    3.39       1.0  T
   3    -51.0727755  0.102523E-05  0.885E-03    3.39       2.0  T
   4    -51.0727772 -0.168964E-05  0.322E-03    3.39       5.4  T
   5    -51.0727774 -0.154517E-06  0.148E-03    3.39      11.8  T
   6    -51.0727774 -0.183190E-07  0.592E-04    3.39      29.4  T
   7    -51.0727774 -0.476538E-08  0.261E-04    3.39      66.7  T
     SCC iter.                  ...        0 min,  0.010 sec
     gradient                   ...        0 min,  0.016 sec
 * total energy  :   -50.3591903 Eh     change       -0.8537080E-04 Eh
   gradient norm :     0.0062572 Eh/α   predicted    -0.6794730E-04 ( -20.41%)
   displ. norm   :     0.1680822 α      lambda       -0.9442859E-04
   maximum displ.:     0.1023110 α      in ANC's #4, #6, #1, ...

........................................................................
.............................. CYCLE   11 ..............................
........................................................................

 iter      E             dE          RMSdq      gap      omega  full diag
   1    -51.0706206 -0.510706E+02  0.608E-02    3.40       0.0  T
   2    -51.0706235 -0.289483E-05  0.338E-02    3.40       1.0  T
   3    -51.0706213  0.220679E-05  0.113E-02    3.40       1.5  T
   4    -51.0706242 -0.291515E-05  0.339E-03    3.40       5.1  T
   5    -51.0706244 -0.205340E-06  0.121E-03    3.40      14.4  T
   6    -51.0706244 -0.254941E-08  0.527E-04    3.40      33.0  T
   7    -51.0706244 -0.502011E-08  0.207E-04    3.40      84.0  T
     SCC iter.                  ...        0 min,  0.010 sec
     gradient                   ...        0 min,  0.015 sec
 * total energy  :   -50.3592483 Eh     change       -0.5798744E-04 Eh
   gradient norm :     0.0036935 Eh/α   predicted    -0.4855062E-04 ( -16.27%)
   displ. norm   :     0.1108595 α      lambda       -0.6007192E-04
   maximum displ.:     0.0561887 α      in ANC's #4, #1, #6, ...

........................................................................
.............................. CYCLE   12 ..............................
........................................................................

 iter      E             dE          RMSdq      gap      omega  full diag
   1    -51.0708371 -0.510708E+02  0.320E-02    3.40       0.0  T
   2    -51.0708384 -0.128499E-05  0.178E-02    3.40       1.0  T
   3    -51.0708377  0.736043E-06  0.700E-03    3.41       2.5  T
   4    -51.0708386 -0.946185E-06  0.250E-03    3.41       7.0  T
   5    -51.0708387 -0.100631E-06  0.991E-04    3.41      17.6  T
   6    -51.0708387 -0.351433E-08  0.436E-04    3.41      39.9  T
     SCC iter.                  ...        0 min,  0.036 sec
     gradient                   ...        0 min,  0.015 sec
 * total energy  :   -50.3592917 Eh     change       -0.4338564E-04 Eh
   gradient norm :     0.0032660 Eh/α   predicted    -0.3040627E-04 ( -29.92%)
   displ. norm   :     0.1084883 α      lambda       -0.5308140E-04
   maximum displ.:     0.0470573 α      in ANC's #1, #4, #3, ...

........................................................................
.............................. CYCLE   13 ..............................
........................................................................

 iter      E             dE          RMSdq      gap      omega  full diag
   1    -51.0705926 -0.510706E+02  0.313E-02    3.40       0.0  T
   2    -51.0705935 -0.884768E-06  0.176E-02    3.40       1.0  T
   3    -51.0705934  0.114052E-06  0.427E-03    3.41       4.1  T
   4    -51.0705936 -0.245554E-06  0.183E-03    3.41       9.5  T
   5    -51.0705937 -0.364541E-07  0.927E-04    3.41      18.8  T
   6    -51.0705937 -0.718139E-08  0.375E-04    3.41      46.4  T
     SCC iter.                  ...        0 min,  0.009 sec
     gradient                   ...        0 min,  0.015 sec
 * total energy  :   -50.3593300 Eh     change       -0.3828958E-04 Eh
   gradient norm :     0.0030889 Eh/α   predicted    -0.2685423E-04 ( -29.87%)
   displ. norm   :     0.1100128 α      lambda       -0.4459624E-04
   maximum displ.:     0.0520536 α      in ANC's #1, #3, #4, ...

........................................................................
.............................. CYCLE   14 ..............................
........................................................................

 iter      E             dE          RMSdq      gap      omega  full diag
   1    -51.0702522 -0.510703E+02  0.329E-02    3.40       0.0  T
   2    -51.0702529 -0.684539E-06  0.186E-02    3.40       1.0  T
   3    -51.0702525  0.409238E-06  0.528E-03    3.41       3.3  T
   4    -51.0702531 -0.575706E-06  0.189E-03    3.41       9.2  T
   5    -51.0702531 -0.398110E-07  0.903E-04    3.41      19.3  T
   6    -51.0702531 -0.683225E-08  0.325E-04    3.41      53.5  T
     SCC iter.                  ...        0 min,  0.009 sec
     gradient                   ...        0 min,  0.016 sec
 * total energy  :   -50.3593630 Eh     change       -0.3305449E-04 Eh
   gradient norm :     0.0030834 Eh/α   predicted    -0.2257187E-04 ( -31.71%)
   displ. norm   :     0.1367928 α      lambda       -0.4722966E-04
   maximum displ.:     0.0676322 α      in ANC's #3, #1, #9, ...

........................................................................
.............................. CYCLE   15 ..............................
........................................................................

 iter      E             dE          RMSdq      gap      omega  full diag
   1    -51.0699312 -0.510699E+02  0.381E-02    3.40       0.0  T
   2    -51.0699320 -0.760433E-06  0.216E-02    3.40       1.0  T
   3    -51.0699312  0.758911E-06  0.650E-03    3.41       2.7  T
   4    -51.0699322 -0.100215E-05  0.189E-03    3.40       9.2  T
   5    -51.0699323 -0.355886E-07  0.900E-04    3.40      19.3  T
   6    -51.0699323 -0.656963E-08  0.332E-04    3.40      52.4  T
     SCC iter.                  ...        0 min,  0.009 sec
     gradient                   ...        0 min,  0.015 sec
 * total energy  :   -50.3593986 Eh     change       -0.3552547E-04 Eh
   gradient norm :     0.0031640 Eh/α   predicted    -0.2405762E-04 ( -32.28%)
   displ. norm   :     0.1778615 α      lambda       -0.5548381E-04
   maximum displ.:     0.0899356 α      in ANC's #3, #1, #5, ...

........................................................................
.............................. CYCLE   16 ..............................
........................................................................

 iter      E             dE          RMSdq      gap      omega  full diag
   1    -51.0696285 -0.510696E+02  0.434E-02    3.40       0.0  T
   2    -51.0696294 -0.932693E-06  0.247E-02    3.40       1.0  T
   3    -51.0696289  0.533350E-06  0.583E-03    3.40       3.0  T
   4    -51.0696296 -0.759150E-06  0.200E-03    3.40       8.7  T
   5    -51.0696297 -0.500526E-07  0.903E-04    3.40      19.3  T
   6    -51.0696297 -0.614834E-08  0.379E-04    3.40      45.9  T
     SCC iter.                  ...        0 min,  0.008 sec
     gradient                   ...        0 min,  0.016 sec
 * total energy  :   -50.3594404 Eh     change       -0.4187794E-04 Eh
   gradient norm :     0.0034529 Eh/α   predicted    -0.2862252E-04 ( -31.65%)
   displ. norm   :     0.2153350 α      lambda       -0.6676210E-04
   maximum displ.:     0.1089490 α      in ANC's #3, #1, #5, ...

........................................................................
.............................. CYCLE   17 ..............................
........................................................................

 iter      E             dE          RMSdq      gap      omega  full diag
   1    -51.0696075 -0.510696E+02  0.464E-02    3.40       0.0  T
   2    -51.0696085 -0.105768E-05  0.266E-02    3.40       1.0  T
   3    -51.0696081  0.453175E-06  0.550E-03    3.40       3.2  T
   4    -51.0696087 -0.653994E-06  0.204E-03    3.40       8.5  T
   5    -51.0696088 -0.667626E-07  0.769E-04    3.40      22.6  T
   6    -51.0696088 -0.101707E-08  0.330E-04    3.40      52.7  T
     SCC iter.                  ...        0 min,  0.009 sec
     gradient                   ...        0 min,  0.015 sec
 * total energy  :   -50.3594902 Eh     change       -0.4975371E-04 Eh
   gradient norm :     0.0038907 Eh/α   predicted    -0.3493082E-04 ( -29.79%)
   displ. norm   :     0.2485965 α      lambda       -0.6945497E-04
   maximum displ.:     0.1213882 α      in ANC's #3, #1, #5, ...

........................................................................
.............................. CYCLE   18 ..............................
........................................................................

 iter      E             dE          RMSdq      gap      omega  full diag
   1    -51.0690562 -0.510691E+02  0.475E-02    3.40       0.0  T
   2    -51.0690571 -0.846642E-06  0.276E-02    3.40       1.0  T
   3    -51.0690567  0.337813E-06  0.499E-03    3.40       3.5  T
   4    -51.0690572 -0.479301E-06  0.209E-03    3.40       8.3  T
   5    -51.0690573 -0.702693E-07  0.771E-04    3.40      22.6  T
   6    -51.0690573 -0.279765E-08  0.228E-04    3.40      76.4  T
     SCC iter.                  ...        0 min,  0.009 sec
     gradient                   ...        0 min,  0.064 sec
 * total energy  :   -50.3595385 Eh     change       -0.4833872E-04 Eh
   gradient norm :     0.0046028 Eh/α   predicted    -0.3687687E-04 ( -23.71%)
   displ. norm   :     0.2423586 α      lambda       -0.1149387E-03
   maximum displ.:     0.1532602 α      in ANC's #5, #1, #3, ...

........................................................................
.............................. CYCLE   19 ..............................
........................................................................

 iter      E             dE          RMSdq      gap      omega  full diag
   1    -51.0722893 -0.510723E+02  0.517E-02    3.40       0.0  T
   2    -51.0722927 -0.336597E-05  0.299E-02    3.39       1.0  T
   3    -51.0722915  0.119944E-05  0.979E-03    3.38       1.8  T
   4    -51.0722930 -0.153117E-05  0.377E-03    3.39       4.6  T
   5    -51.0722933 -0.275749E-06  0.151E-03    3.39      11.5  T
   6    -51.0722933 -0.485289E-08  0.779E-04    3.39      22.4  T
   7    -51.0722933 -0.999820E-08  0.260E-04    3.39      67.1  T
     SCC iter.                  ...        0 min,  0.010 sec
     gradient                   ...        0 min,  0.016 sec
 * total energy  :   -50.3595305 Eh     change        0.8067308E-05 Eh
   gradient norm :     0.0071090 Eh/α   predicted    -0.6084715E-04 (-854.24%)
   displ. norm   :     0.1921401 α      lambda       -0.1421211E-03
   maximum displ.:     0.0909001 α      in ANC's #1, #3, #4, ...

........................................................................
.............................. CYCLE   20 ..............................
........................................................................

 iter      E             dE          RMSdq      gap      omega  full diag
   1    -51.0691582 -0.510692E+02  0.455E-02    3.38       0.0  T
   2    -51.0691601 -0.196290E-05  0.259E-02    3.38       1.0  T
   3    -51.0691595  0.643685E-06  0.730E-03    3.38       2.4  T
   4    -51.0691602 -0.746587E-06  0.327E-03    3.38       5.3  T
   5    -51.0691605 -0.211928E-06  0.112E-03    3.38      15.5  T
   6    -51.0691605 -0.386191E-08  0.356E-04    3.38      48.9  T
   7    -51.0691605 -0.187651E-08  0.163E-04    3.38     106.7  T
     SCC iter.                  ...        0 min,  0.010 sec
     gradient                   ...        0 min,  0.016 sec
 * total energy  :   -50.3595986 Eh     change       -0.6813330E-04 Eh
   gradient norm :     0.0048359 Eh/α   predicted    -0.7368602E-04 (   8.15%)
   displ. norm   :     0.1361956 α      lambda       -0.4273849E-04
   maximum displ.:     0.0750089 α      in ANC's #5, #3, #1, ...
 * RMSD in coord.:     0.4742043 α      energy gain  -0.1452466E-01 Eh

generating ANC from exact Hessian ...
Using Lindh-Hessian (1995)
 Shifting diagonal of input Hessian by    9.7937501102384420E-003
 Lowest  eigenvalues of input Hessian
    0.000000    0.000000    0.000000    0.000000    0.000000    0.000000
    0.010000    0.010178    0.010305    0.011401    0.012022    0.012415
    0.013859    0.015273    0.016199    0.017203    0.017933    0.018823
 Highest eigenvalues
    1.923740    2.085925    2.161834    2.195307    2.286410    2.877011


........................................................................
.............................. CYCLE   21 ..............................
........................................................................

 iter      E             dE          RMSdq      gap      omega  full diag
   1    -51.0701899 -0.510702E+02  0.283E-02    3.38       0.0  T
   2    -51.0701905 -0.601054E-06  0.166E-02    3.38       1.1  T
   3    -51.0701897  0.780762E-06  0.618E-03    3.39       2.8  T
   4    -51.0701907 -0.968900E-06  0.159E-03    3.38      11.0  T
   5    -51.0701907 -0.353636E-07  0.697E-04    3.38      25.0  T
   6    -51.0701907 -0.191266E-08  0.367E-04    3.38      47.4  T
     SCC iter.                  ...        0 min,  0.009 sec
     gradient                   ...        0 min,  0.016 sec
 * total energy  :   -50.3596193 Eh     change       -0.2070679E-04 Eh
   gradient norm :     0.0021337 Eh/α   predicted     0.0000000E+00 (-100.00%)
   displ. norm   :     0.0339598 α      lambda       -0.4451359E-05
   maximum displ.:     0.0202703 α      in ANC's #1, #4, #12, ...

........................................................................
.............................. CYCLE   22 ..............................
........................................................................

 iter      E             dE          RMSdq      gap      omega  full diag
   1    -51.0704783 -0.510705E+02  0.375E-02    3.38       0.0  T
   2    -51.0704789 -0.578292E-06  0.208E-02    3.38       1.0  T
   3    -51.0704791 -0.192269E-06  0.136E-03    3.38      12.8  T
   4    -51.0704791 -0.229561E-07  0.832E-04    3.38      20.9  T
   5    -51.0704791 -0.923158E-08  0.257E-04    3.38      67.8  T
     SCC iter.                  ...        0 min,  0.007 sec
     gradient                   ...        0 min,  0.016 sec
 * total energy  :   -50.3596238 Eh     change       -0.4480979E-05 Eh
   gradient norm :     0.0017579 Eh/α   predicted    -0.1200341E-04 ( 167.87%)
   displ. norm   :     0.0912080 α      lambda       -0.4355721E-04
   maximum displ.:     0.0629343 α      in ANC's #5, #3, #6, ...

........................................................................
.............................. CYCLE   23 ..............................
........................................................................

 iter      E             dE          RMSdq      gap      omega  full diag
   1    -51.0714695 -0.510715E+02  0.443E-02    3.38       0.0  T
   2    -51.0714705 -0.991844E-06  0.248E-02    3.38       1.0  T
   3    -51.0714707 -0.236618E-06  0.231E-03    3.38       7.5  T
   4    -51.0714707 -0.356214E-07  0.123E-03    3.38      14.1  T
   5    -51.0714707 -0.637641E-08  0.671E-04    3.38      26.0  T
   6    -51.0714707 -0.728352E-08  0.194E-04    3.38      89.5  T
     SCC iter.                  ...        0 min,  0.008 sec
     gradient                   ...        0 min,  0.015 sec
 * total energy  :   -50.3596517 Eh     change       -0.2788466E-04 Eh
   gradient norm :     0.0038456 Eh/α   predicted    -0.2186172E-04 ( -21.60%)
   displ. norm   :     0.0585943 α      lambda       -0.2706642E-04
   maximum displ.:     0.0357672 α      in ANC's #5, #3, #1, ...

........................................................................
.............................. CYCLE   24 ..............................
........................................................................

 iter      E             dE          RMSdq      gap      omega  full diag
   1    -51.0709533 -0.510710E+02  0.141E-02    3.38       0.0  T
   2    -51.0709535 -0.156347E-06  0.803E-03    3.38       2.2  T
   3    -51.0709535  0.148484E-07  0.154E-03    3.38      11.3  T
   4    -51.0709535 -0.316663E-07  0.666E-04    3.38      26.1  T
   5    -51.0709535 -0.761064E-08  0.295E-04    3.38      58.9  T
     SCC iter.                  ...        0 min,  0.007 sec
     gradient                   ...        0 min,  0.016 sec
 * total energy  :   -50.3596762 Eh     change       -0.2456435E-04 Eh
   gradient norm :     0.0021122 Eh/α   predicted    -0.1358145E-04 ( -44.71%)
   displ. norm   :     0.3897319 α      lambda       -0.1375674E-03
   maximum displ.:     0.2330286 α      in ANC's #5, #1, #9, ...

........................................................................
.............................. CYCLE   25 ..............................
........................................................................

 iter      E             dE          RMSdq      gap      omega  full diag
   1    -51.0676817 -0.510677E+02  0.936E-02    3.39       0.0  T
   2    -51.0676870 -0.534777E-05  0.533E-02    3.39       1.0  T
   3    -51.0676871 -0.649938E-07  0.843E-03    3.39       2.1  T
   4    -51.0676878 -0.722099E-06  0.405E-03    3.39       4.3  T
   5    -51.0676880 -0.226463E-06  0.198E-03    3.39       8.8  T
   6    -51.0676881 -0.293562E-07  0.704E-04    3.39      24.7  T
   7    -51.0676881 -0.936265E-08  0.271E-04    3.39      64.3  T
     SCC iter.                  ...        0 min,  0.049 sec
     gradient                   ...        0 min,  0.015 sec
 * total energy  :   -50.3596947 Eh     change       -0.1845081E-04 Eh
   gradient norm :     0.0078233 Eh/α   predicted    -0.7923497E-04 ( 329.44%)
   displ. norm   :     0.1728443 α      lambda       -0.1221224E-03
   maximum displ.:     0.1049064 α      in ANC's #5, #12, #9, ...

........................................................................
.............................. CYCLE   26 ..............................
........................................................................

 iter      E             dE          RMSdq      gap      omega  full diag
   1    -51.0703797 -0.510704E+02  0.429E-02    3.38       0.0  T
   2    -51.0703812 -0.148130E-05  0.244E-02    3.38       1.0  T
   3    -51.0703811  0.140213E-06  0.506E-03    3.39       3.4  T
   4    -51.0703813 -0.264836E-06  0.249E-03    3.38       7.0  T
   5    -51.0703815 -0.121390E-06  0.101E-03    3.38      17.3  T
   6    -51.0703815 -0.340037E-08  0.360E-04    3.39      48.3  T
   7    -51.0703815 -0.243968E-08  0.132E-04    3.38     132.3  T
     SCC iter.                  ...        0 min,  0.010 sec
     gradient                   ...        0 min,  0.016 sec
 * total energy  :   -50.3597370 Eh     change       -0.4227404E-04 Eh
   gradient norm :     0.0019500 Eh/α   predicted    -0.6289162E-04 (  48.77%)
   displ. norm   :     0.1113992 α      lambda       -0.1789963E-04
   maximum displ.:     0.0642758 α      in ANC's #5, #9, #1, ...

........................................................................
.............................. CYCLE   27 ..............................
........................................................................

 iter      E             dE          RMSdq      gap      omega  full diag
   1    -51.0701549 -0.510702E+02  0.255E-02    3.39       0.0  T
   2    -51.0701552 -0.283363E-06  0.145E-02    3.39       1.2  T
   3    -51.0701552 -0.228735E-07  0.192E-03    3.39       9.1  T
   4    -51.0701552 -0.316432E-07  0.978E-04    3.39      17.8  T
   5    -51.0701552 -0.878809E-08  0.491E-04    3.39      35.5  T
     SCC iter.                  ...        0 min,  0.007 sec
     gradient                   ...        0 min,  0.043 sec
 * total energy  :   -50.3597604 Eh     change       -0.2340269E-04 Eh
   gradient norm :     0.0023295 Eh/α   predicted    -0.9001962E-05 ( -61.53%)
   displ. norm   :     0.2527569 α      lambda       -0.5814192E-04
   maximum displ.:     0.1407759 α      in ANC's #5, #9, #1, ...

........................................................................
.............................. CYCLE   28 ..............................
........................................................................

 iter      E             dE          RMSdq      gap      omega  full diag
   1    -51.0693414 -0.510693E+02  0.565E-02    3.39       0.0  T
   2    -51.0693427 -0.132867E-05  0.321E-02    3.39       1.0  T
   3    -51.0693426  0.150790E-06  0.529E-03    3.39       3.3  T
   4    -51.0693430 -0.379029E-06  0.280E-03    3.39       6.2  T
   5    -51.0693431 -0.114756E-06  0.115E-03    3.39      15.1  T
   6    -51.0693431 -0.120562E-07  0.379E-04    3.39      45.9  T
   7    -51.0693431 -0.241307E-08  0.176E-04    3.39      99.1  T
     SCC iter.                  ...        0 min,  0.010 sec
     gradient                   ...        0 min,  0.015 sec
 * total energy  :   -50.3597949 Eh     change       -0.3454662E-04 Eh
   gradient norm :     0.0040477 Eh/α   predicted    -0.3093135E-04 ( -10.46%)
   displ. norm   :     0.0571338 α      lambda       -0.2631774E-04
   maximum displ.:     0.0248270 α      in ANC's #5, #2, #1, ...

........................................................................
.............................. CYCLE   29 ..............................
........................................................................

 iter      E             dE          RMSdq      gap      omega  full diag
   1    -51.0699286 -0.510699E+02  0.159E-02    3.39       0.0  T
   2    -51.0699288 -0.200857E-06  0.895E-03    3.39       1.9  T
   3    -51.0699288  0.549473E-07  0.212E-03    3.39       8.2  T
   4    -51.0699288 -0.795978E-07  0.931E-04    3.39      18.7  T
   5    -51.0699288 -0.153373E-07  0.362E-04    3.39      48.1  T
     SCC iter.                  ...        0 min,  0.007 sec
     gradient                   ...        0 min,  0.049 sec
 * total energy  :   -50.3598172 Eh     change       -0.2227898E-04 Eh
   gradient norm :     0.0028477 Eh/α   predicted    -0.1320437E-04 ( -40.73%)
   displ. norm   :     0.2026454 α      lambda       -0.5237165E-04
   maximum displ.:     0.0919745 α      in ANC's #5, #2, #1, ...

........................................................................
.............................. CYCLE   30 ..............................
........................................................................

 iter      E             dE          RMSdq      gap      omega  full diag
   1    -51.0702388 -0.510702E+02  0.491E-02    3.40       0.0  T
   2    -51.0702399 -0.114231E-05  0.278E-02    3.40       1.0  T
   3    -51.0702396  0.298349E-06  0.525E-03    3.39       3.3  T
   4    -51.0702401 -0.511178E-06  0.246E-03    3.40       7.1  T
   5    -51.0702402 -0.889311E-07  0.949E-04    3.40      18.3  T
   6    -51.0702402 -0.504068E-08  0.372E-04    3.39      46.8  T
     SCC iter.                  ...        0 min,  0.008 sec
     gradient                   ...        0 min,  0.016 sec
 * total energy  :   -50.3598533 Eh     change       -0.3616052E-04 Eh
   gradient norm :     0.0022420 Eh/α   predicted    -0.2726616E-04 ( -24.60%)
   displ. norm   :     0.1181369 α      lambda       -0.3042864E-04
   maximum displ.:     0.0612503 α      in ANC's #2, #1, #5, ...

........................................................................
.............................. CYCLE   31 ..............................
........................................................................

 iter      E             dE          RMSdq      gap      omega  full diag
   1    -51.0710039 -0.510710E+02  0.302E-02    3.39       0.0  T
   2    -51.0710044 -0.494728E-06  0.171E-02    3.39       1.0  T
   3    -51.0710043  0.131869E-08  0.250E-03    3.39       7.0  T
   4    -51.0710044 -0.777817E-07  0.128E-03    3.39      13.6  T
   5    -51.0710045 -0.273455E-07  0.515E-04    3.39      33.8  T
   6    -51.0710045 -0.100646E-08  0.197E-04    3.39      88.3  T
     SCC iter.                  ...        0 min,  0.009 sec
     gradient                   ...        0 min,  0.058 sec
 * total energy  :   -50.3598732 Eh     change       -0.1988242E-04 Eh
   gradient norm :     0.0012246 Eh/α   predicted    -0.1543100E-04 ( -22.39%)
   displ. norm   :     0.6004521 α      lambda       -0.4868807E-04
   maximum displ.:     0.2669593 α      in ANC's #2, #5, #1, ...

........................................................................
.............................. CYCLE   32 ..............................
........................................................................

 iter      E             dE          RMSdq      gap      omega  full diag
   1    -51.0649015 -0.510649E+02  0.138E-01    3.40       0.0  T
   2    -51.0649097 -0.827326E-05  0.786E-02    3.40       1.0  T
   3    -51.0649103 -0.574852E-06  0.107E-02    3.40       1.6  T
   4    -51.0649115 -0.115961E-05  0.586E-03    3.40       3.0  T
   5    -51.0649119 -0.440972E-06  0.244E-03    3.40       7.1  T
   6    -51.0649120 -0.470802E-07  0.870E-04    3.40      20.0  T
   7    -51.0649120 -0.132485E-07  0.396E-04    3.40      43.9  T
     SCC iter.                  ...        0 min,  0.010 sec
     gradient                   ...        0 min,  0.015 sec
 * total energy  :   -50.3596471 Eh     change        0.2260882E-03 Eh
   gradient norm :     0.0130647 Eh/α   predicted    -0.2825321E-04 (-112.50%)
   displ. norm   :     0.2716397 α      lambda       -0.4966495E-03
   maximum displ.:     0.1301301 α      in ANC's #5, #2, #1, ...

........................................................................
.............................. CYCLE   33 ..............................
........................................................................

 iter      E             dE          RMSdq      gap      omega  full diag
   1    -51.0698406 -0.510698E+02  0.682E-02    3.40       0.0  T
   2    -51.0698438 -0.319209E-05  0.385E-02    3.39       1.0  T
   3    -51.0698436  0.192327E-06  0.737E-03    3.39       2.4  T
   4    -51.0698442 -0.577991E-06  0.397E-03    3.39       4.4  T
   5    -51.0698444 -0.259473E-06  0.155E-03    3.39      11.2  T
   6    -51.0698444 -0.108788E-07  0.559E-04    3.39      31.2  T
   7    -51.0698444 -0.621171E-08  0.224E-04    3.39      77.7  T
     SCC iter.                  ...        0 min,  0.010 sec
     gradient                   ...        0 min,  0.015 sec
 * total energy  :   -50.3598950 Eh     change       -0.2478810E-03 Eh
   gradient norm :     0.0023659 Eh/α   predicted    -0.2666439E-03 (   7.57%)
   displ. norm   :     0.0337446 α      lambda       -0.1930135E-04
   maximum displ.:     0.0210454 α      in ANC's #4, #2, #5, ...

........................................................................
.............................. CYCLE   34 ..............................
........................................................................

 iter      E             dE          RMSdq      gap      omega  full diag
   1    -51.0707678 -0.510708E+02  0.109E-02    3.39       0.0  T
   2    -51.0707679 -0.122985E-06  0.588E-03    3.39       3.0  T
   3    -51.0707678  0.836053E-07  0.234E-03    3.39       7.4  T
   4    -51.0707679 -0.106356E-06  0.877E-04    3.39      19.9  T
   5    -51.0707680 -0.102581E-07  0.310E-04    3.39      56.1  T
     SCC iter.                  ...        0 min,  0.028 sec
     gradient                   ...        0 min,  0.016 sec
 * total energy  :   -50.3599092 Eh     change       -0.1421577E-04 Eh
   gradient norm :     0.0010898 Eh/α   predicted    -0.9667761E-05 ( -31.99%)
   displ. norm   :     0.0882565 α      lambda       -0.1643454E-04
   maximum displ.:     0.0582413 α      in ANC's #4, #2, #11, ...

........................................................................
.............................. CYCLE   35 ..............................
........................................................................

 iter      E             dE          RMSdq      gap      omega  full diag
   1    -51.0718726 -0.510719E+02  0.256E-02    3.39       0.0  T
   2    -51.0718731 -0.457258E-06  0.137E-02    3.39       1.3  T
   3    -51.0718729  0.161195E-06  0.384E-03    3.39       4.5  T
   4    -51.0718732 -0.225465E-06  0.185E-03    3.39       9.4  T
   5    -51.0718732 -0.462763E-07  0.681E-04    3.39      25.6  T
   6    -51.0718732 -0.374808E-08  0.217E-04    3.39      80.2  T
     SCC iter.                  ...        0 min,  0.009 sec
     gradient                   ...        0 min,  0.015 sec
 * total energy  :   -50.3599243 Eh     change       -0.1505023E-04 Eh
   gradient norm :     0.0022295 Eh/α   predicted    -0.8248029E-05 ( -45.20%)
   displ. norm   :     0.0764959 α      lambda       -0.1463711E-04
   maximum displ.:     0.0467618 α      in ANC's #4, #2, #11, ...

........................................................................
.............................. CYCLE   36 ..............................
........................................................................

 iter      E             dE          RMSdq      gap      omega  full diag
   1    -51.0719201 -0.510719E+02  0.193E-02    3.39       0.0  T
   2    -51.0719203 -0.198045E-06  0.105E-02    3.39       1.7  T
   3    -51.0719203  0.720739E-09  0.198E-03    3.39       8.8  T
   4    -51.0719203 -0.270010E-07  0.105E-03    3.39      16.5  T
   5    -51.0719203 -0.126230E-07  0.445E-04    3.39      39.1  T
   6    -51.0719204 -0.268179E-08  0.146E-04    3.39     119.4  T
     SCC iter.                  ...        0 min,  0.048 sec
     gradient                   ...        0 min,  0.016 sec
 * total energy  :   -50.3599382 Eh     change       -0.1386965E-04 Eh
   gradient norm :     0.0021805 Eh/α   predicted    -0.7363204E-05 ( -46.91%)
   displ. norm   :     0.5821361 α      lambda       -0.1033486E-03
   maximum displ.:     0.3366853 α      in ANC's #4, #2, #11, ...

........................................................................
.............................. CYCLE   37 ..............................
........................................................................

 iter      E             dE          RMSdq      gap      omega  full diag
   1    -51.0680133 -0.510680E+02  0.140E-01    3.38       0.0  T
   2    -51.0680241 -0.108119E-04  0.772E-02    3.38       1.0  T
   3    -51.0680238  0.328532E-06  0.143E-02    3.38       1.2  T
   4    -51.0680255 -0.172099E-05  0.729E-03    3.37       2.4  T
   5    -51.0680262 -0.635905E-06  0.291E-03    3.37       6.0  T
   6    -51.0680262 -0.917232E-07  0.939E-04    3.37      18.5  T
   7    -51.0680263 -0.122532E-07  0.498E-04    3.37      34.9  T
     SCC iter.                  ...        0 min,  0.010 sec
     gradient                   ...        0 min,  0.016 sec
 * total energy  :   -50.3599521 Eh     change       -0.1398600E-04 Eh
   gradient norm :     0.0058485 Eh/α   predicted    -0.6926703E-04 ( 395.26%)
   displ. norm   :     0.2732126 α      lambda       -0.1081769E-03
   maximum displ.:     0.1444957 α      in ANC's #4, #2, #11, ...

........................................................................
.............................. CYCLE   38 ..............................
........................................................................

 iter      E             dE          RMSdq      gap      omega  full diag
   1    -51.0713833 -0.510714E+02  0.631E-02    3.38       0.0  T
   2    -51.0713859 -0.252900E-05  0.351E-02    3.38       1.0  T
   3    -51.0713854  0.511628E-06  0.780E-03    3.38       2.2  T
   4    -51.0713861 -0.733843E-06  0.405E-03    3.38       4.3  T
   5    -51.0713863 -0.260805E-06  0.154E-03    3.38      11.3  T
   6    -51.0713864 -0.144174E-07  0.530E-04    3.38      32.8  T
   7    -51.0713864 -0.569796E-08  0.232E-04    3.38      74.9  T
     SCC iter.                  ...        0 min,  0.044 sec
     gradient                   ...        0 min,  0.015 sec
 * total energy  :   -50.3599824 Eh     change       -0.3023712E-04 Eh
   gradient norm :     0.0009371 Eh/α   predicted    -0.5804383E-04 (  91.96%)
   displ. norm   :     0.1440250 α      lambda       -0.1075530E-04
   maximum displ.:     0.0840913 α      in ANC's #4, #2, #11, ...

........................................................................
.............................. CYCLE   39 ..............................
........................................................................

 iter      E             dE          RMSdq      gap      omega  full diag
   1    -51.0707288 -0.510707E+02  0.345E-02    3.38       0.0  T
   2    -51.0707295 -0.645868E-06  0.193E-02    3.38       1.0  T
   3    -51.0707294  0.891012E-07  0.375E-03    3.38       4.6  T
   4    -51.0707296 -0.174449E-06  0.174E-03    3.38      10.0  T
   5    -51.0707296 -0.415210E-07  0.659E-04    3.38      26.4  T
   6    -51.0707296 -0.351036E-08  0.185E-04    3.38      94.2  T
     SCC iter.                  ...        0 min,  0.009 sec
     gradient                   ...        0 min,  0.016 sec
 * total energy  :   -50.3599948 Eh     change       -0.1238256E-04 Eh
   gradient norm :     0.0010014 Eh/α   predicted    -0.5441080E-05 ( -56.06%)
   displ. norm   :     0.2205326 α      lambda       -0.1158843E-04
   maximum displ.:     0.1280377 α      in ANC's #4, #2, #1, ...

........................................................................
.............................. CYCLE   40 ..............................
........................................................................

 iter      E             dE          RMSdq      gap      omega  full diag
   1    -51.0697655 -0.510698E+02  0.542E-02    3.38       0.0  T
   2    -51.0697670 -0.148496E-05  0.304E-02    3.37       1.0  T
   3    -51.0697665  0.458022E-06  0.636E-03    3.37       2.7  T
   4    -51.0697672 -0.691759E-06  0.271E-03    3.37       6.4  T
   5    -51.0697673 -0.106837E-06  0.102E-03    3.37      17.1  T
   6    -51.0697673 -0.546965E-08  0.362E-04    3.37      48.1  T
   7    -51.0697673 -0.216924E-08  0.178E-04    3.37      97.6  T
     SCC iter.                  ...        0 min,  0.010 sec
     gradient                   ...        0 min,  0.039 sec
 * total energy  :   -50.3600032 Eh     change       -0.8463634E-05 Eh
   gradient norm :     0.0022105 Eh/α   predicted    -0.5950173E-05 ( -29.70%)
   displ. norm   :     0.0188768 α      lambda       -0.6675861E-05
   maximum displ.:     0.0097875 α      in ANC's #1, #4, #15, ...

........................................................................
.............................. CYCLE   41 ..............................
........................................................................

 iter      E             dE          RMSdq      gap      omega  full diag
   1    -51.0702701 -0.510703E+02  0.685E-03    3.37       0.0  T
   2    -51.0702702 -0.394202E-07  0.386E-03    3.37       4.5  T
   3    -51.0702702  0.123175E-07  0.102E-03    3.37      17.1  T
   4    -51.0702702 -0.205173E-07  0.297E-04    3.37      58.6  T
   5    -51.0702702 -0.144124E-08  0.135E-04    3.37     128.9  T
     SCC iter.                  ...        0 min,  0.007 sec
     gradient                   ...        0 min,  0.016 sec
 * total energy  :   -50.3600086 Eh     change       -0.5341225E-05 Eh
   gradient norm :     0.0014004 Eh/α   predicted    -0.3328274E-05 ( -37.69%)
   displ. norm   :     0.1258122 α      lambda       -0.1019977E-04
   maximum displ.:     0.0666226 α      in ANC's #1, #4, #2, ...

........................................................................
.............................. CYCLE   42 ..............................
........................................................................

 iter      E             dE          RMSdq      gap      omega  full diag
   1    -51.0712149 -0.510712E+02  0.379E-02    3.37       0.0  T
   2    -51.0712156 -0.662881E-06  0.214E-02    3.37       1.0  T
   3    -51.0712152  0.325797E-06  0.465E-03    3.37       3.7  T
   4    -51.0712158 -0.524733E-06  0.143E-03    3.37      12.2  T
   5    -51.0712158 -0.244803E-07  0.610E-04    3.37      28.5  T
   6    -51.0712158 -0.195241E-08  0.269E-04    3.37      64.8  T
     SCC iter.                  ...        0 min,  0.009 sec
     gradient                   ...        0 min,  0.067 sec
 * total energy  :   -50.3600156 Eh     change       -0.7010987E-05 Eh
   gradient norm :     0.0008672 Eh/α   predicted    -0.5044065E-05 ( -28.05%)
   displ. norm   :     0.0976187 α      lambda       -0.3523627E-05
   maximum displ.:     0.0480681 α      in ANC's #1, #2, #4, ...
 * RMSD in coord.:     0.3752941 α      energy gain  -0.4169828E-03 Eh

generating ANC from exact Hessian ...
Using Lindh-Hessian (1995)
 Shifting diagonal of input Hessian by    9.8317965610016413E-003
 Lowest  eigenvalues of input Hessian
    0.000000    0.000000    0.000000    0.000000    0.000000    0.000000
    0.010000    0.010232    0.010344    0.011480    0.011939    0.012446
    0.013869    0.015284    0.016667    0.017784    0.018462    0.018928
 Highest eigenvalues
    1.925117    2.084829    2.170811    2.196103    2.295214    2.879152


........................................................................
.............................. CYCLE   43 ..............................
........................................................................

 iter      E             dE          RMSdq      gap      omega  full diag
   1    -51.0708760 -0.510709E+02  0.245E-02    3.37       0.0  T
   2    -51.0708763 -0.207503E-06  0.139E-02    3.37       1.3  T
   3    -51.0708762  0.399608E-07  0.223E-03    3.37       7.8  T
   4    -51.0708763 -0.965486E-07  0.100E-03    3.37      17.4  T
   5    -51.0708763 -0.118558E-07  0.343E-04    3.37      50.7  T
   6    -51.0708763 -0.865683E-09  0.108E-04    3.37     160.7  T
     SCC iter.                  ...        0 min,  0.009 sec
     gradient                   ...        0 min,  0.016 sec
 * total energy  :   -50.3600197 Eh     change       -0.4122898E-05 Eh
   gradient norm :     0.0007019 Eh/α   predicted     0.0000000E+00 (-100.00%)
   displ. norm   :     0.0138133 α      lambda       -0.4512451E-06
   maximum displ.:     0.0083210 α      in ANC's #5, #10, #1, ...

   *** GEOMETRY OPTIMIZATION CONVERGED AFTER 43 ITERATIONS ***

------------------------------------------------------------------------
 total energy gain   :        -0.0149458 Eh       -9.3786 kcal/mol
 total RMSD          :         0.7414350 a0        0.3924 Å
 total power (kW/mol):        -0.9125606 (step)  -19.5667 (real)
------------------------------------------------------------------------

 ANCopt (total)                0 d,  0 h,  0 min,  2.005 sec
 optimizer setup                ...        0 min,  0.000 sec (  0.004%)
 model hessian                  ...        0 min,  0.029 sec (  1.447%)
 ANC generation                 ...        0 min,  0.003 sec (  0.143%)
 coordinate transformation      ...        0 min,  0.000 sec (  0.011%)
 single point calculation       ...        0 min,  1.963 sec ( 97.875%)
 optimization log               ...        0 min,  0.005 sec (  0.236%)
 hessian update                 ...        0 min,  0.000 sec (  0.020%)
 rational function              ...        0 min,  0.004 sec (  0.177%)

================
 final structure:
================
33
 xtb: 6.7.1 (edcfbbe)
C            3.36209886925698        1.84650343261409       -1.18003903147378
N            2.21321011906343        1.30734703727298       -0.49659159008282
C            2.23911098270954        0.47795294888281        0.58362667795478
N            1.05072996201732        0.34914567522324        1.22679796337381
C            0.84271465266730       -0.71717156765228        2.16949501503919
C            0.74064046051540       -2.09937229578309        1.51545483461745
S           -0.23711041173495       -2.14251937993850       -0.02342548100143
C           -1.85405674717381       -1.41085491986805        0.49609737062975
C           -2.13273328041078       -0.17129407203509       -0.26534370954525
C           -3.06565416318095        0.03588863371308       -1.25211472218223
C           -4.09881941790475       -0.85020638639461       -1.84404810502341
N           -2.89221158356257        1.33684392417409       -1.64880179936323
C           -1.87842409953825        1.85107114876780       -0.91841956594478
N           -1.40319117892046        0.97182070938697       -0.08170120709133
N            3.25281394028565       -0.16951156199986        1.05034835146948
C            4.48768708539902       -0.20826901452588        0.67537831382517
N            5.61408234139560       -0.36179390606120        0.46862815219775
H            3.16574357137816        1.87178308789834       -2.25327810417055
H            3.59440638508285        2.86054506083277       -0.83669453259969
H            4.22707625389571        1.21212703639295       -0.99767018009459
H            1.33309406625963        1.76991690314501       -0.66957940742522
H            0.20793022122346        0.66725091180168        0.73841334743560
H            1.68799951733701       -0.73990920392287        2.86355444100837
H           -0.06569246387008       -0.48424671201931        2.73051296308901
H            1.72709886911936       -2.42687314635310        1.18897735655059
H            0.32919814148602       -2.82963496007613        2.21280947047342
H           -2.62234311995629       -2.15747967420130        0.30350778994569
H           -1.78526155459117       -1.21839632276656        1.56331630448769
H           -3.72716737582411       -1.87036427182571       -1.90329178131954
H           -4.35673855709544       -0.51433647247819       -2.84648330109019
H           -5.00564630542180       -0.85077728982189       -1.23732502553350
H           -3.42744531644330        1.80770230569703       -2.36003959472583
H           -1.52343986346940        2.85691234192080       -1.02077121342684

 Bond Distances (Angstroems)
 ---------------------------
C1-N2=1.4414         C1-H18=1.0913        C1-H19=1.0955        C1-H20=1.0881        N2-C1=1.4414         N2-C3=1.3621         
N2-H21=1.0092        C3-N2=1.3621         C3-N4=1.3574         C3-N15=1.2902        N4-C3=1.3574         N4-C5=1.4384         
N4-H22=1.0247        C5-N4=1.4384         C5-C6=1.5325         C5-H23=1.0940        C5-H24=1.0928        C6-C5=1.5325         
C6-S7=1.8237         C6-H25=1.0895        C6-H26=1.0904        S7-C6=1.8237         S7-C8=1.8493         C8-S7=1.8493         
C8-C9=1.4812         C8-H27=1.0885        C8-H28=1.0866        C9-C8=1.4812         C9-C10=1.3737        C9-N14=1.3685        
C10-C9=1.3737        C10-C11=1.4842       C10-N12=1.3711       C11-C10=1.4842       C11-H29=1.0874       C11-H30=1.0882       
C11-H31=1.0911       N12-C10=1.3711       N12-C13=1.3512       N12-H32=1.0070       C13-N12=1.3512       C13-N14=1.3035       
C13-H33=1.0715       N14-C9=1.3685        N14-C13=1.3035       N15-C3=1.2902        N15-C16=1.2911       C16-N15=1.2911       
C16-N17=1.1555       N17-C16=1.1555       H18-C1=1.0913        H19-C1=1.0955        H20-C1=1.0881        H21-N2=1.0092        
H22-N4=1.0247        H23-C5=1.0940        H24-C5=1.0928        H25-C6=1.0895        H26-C6=1.0904        H27-C8=1.0885        
H28-C8=1.0866        H29-C11=1.0874       H30-C11=1.0882       H31-C11=1.0911       H32-N12=1.0070       H33-C13=1.0715       
 C  H  Rav=1.0888 sigma=0.0056  Rmin=1.0715  Rmax=1.0955    13
 C  C  Rav=1.4679 sigma=0.0581  Rmin=1.3737  Rmax=1.5325     4
 N  H  Rav=1.0136 sigma=0.0079  Rmin=1.0070  Rmax=1.0247     3
 N  C  Rav=1.3391 sigma=0.0756  Rmin=1.1555  Rmax=1.4414    11
 S  C  Rav=1.8365 sigma=0.0128  Rmin=1.8237  Rmax=1.8493     2

 selected bond angles (degree)
 --------------------
H18-C1-N2=109.36               H19-C1-N2=111.51               H19-C1-H18=108.96              H20-C1-N2=109.64               
H20-C1-H18=108.75              H20-C1-H19=108.58              C3-N2-C1=126.06                H21-N2-C1=116.26               
H21-N2-C3=115.57               N4-C3-N2=114.64                N15-C3-N2=127.40               N15-C3-N4=117.96               
C5-N4-C3=120.50                H22-N4-C3=117.70               H22-N4-C5=115.06               C6-C5-N4=113.49                
H23-C5-N4=108.63               H23-C5-C6=107.67               H24-C5-N4=107.38               H24-C5-C6=110.85               
H24-C5-H23=108.73              S7-C6-C5=114.66                H25-C6-C5=109.80               H25-C6-S7=103.03               
H26-C6-C5=110.87               H26-C6-S7=108.75               H26-C6-H25=109.39              C8-S7-C6=102.85                
C9-C8-S7=110.56                H27-C8-S7=107.22               H27-C8-C9=110.50               H28-C8-S7=106.90               
H28-C8-C9=111.63               H28-C8-H27=109.87              C10-C9-C8=128.56               N14-C9-C8=121.99               
N14-C9-C10=109.42              C11-C10-C9=132.00              N12-C10-C9=105.37              N12-C10-C11=122.62             

 selected dihedral angles (degree)
 ---------------------------------
C3-N2-C1-H18=142.15           C3-N2-C1-H19=262.73           C3-N2-C1-H20= 23.00           H21-N2-C1-H18=304.79          
H21-N2-C1-H19= 65.36          H21-N2-C1-H20=185.64          N4-C3-N2-C1=165.87            N4-C3-N2-H21=  3.12           
N15-C3-N2-C1=346.51           N15-C3-N2-H21=183.77          C5-N4-C3-N2=165.08            C5-N4-C3-N15=344.50           
H22-N4-C3-N2= 15.27           H22-N4-C3-N15=194.69          C6-C5-N4-C3=289.25            C6-C5-N4-H22= 79.81           
H23-C5-N4-C3= 48.97           H23-C5-N4-H22=199.52          H24-C5-N4-C3=166.39           H24-C5-N4-H22=316.94          
S7-C6-C5-N4=318.49            S7-C6-C5-H23=198.23           S7-C6-C5-H24= 79.42           H25-C6-C5-N4= 73.89           
H25-C6-C5-H23=313.63          H25-C6-C5-H24=194.82          H26-C6-C5-N4=194.88           H26-C6-C5-H23= 74.61          
H26-C6-C5-H24=315.81          C8-S7-C6-C5=305.24            C8-S7-C6-H25=185.98           C8-S7-C6-H26= 69.98           
C9-C8-S7-C6=118.58            H27-C8-S7-C6=239.11           H28-C8-S7-C6=356.89           C10-C9-C8-S7=108.54           
C10-C9-C8-H27=349.99          C10-C9-C8-H28=227.40          N14-C9-C8-S7=290.95           N14-C9-C8-H27=172.41          
N14-C9-C8-H28= 49.81          C11-C10-C9-C8=  2.11          C11-C10-C9-N14=179.94         N12-C10-C9-C8=181.48          
N12-C10-C9-N14=359.31         
           -------------------------------------------------
          |                Final Singlepoint                |
           -------------------------------------------------

          ...................................................
          :                      SETUP                      :
          :.................................................:
          :  # basis functions                  90          :
          :  # atomic orbitals                  89          :
          :  # shells                           51          :
          :  # electrons                        92          :
          :  max. iterations                   250          :
          :  Hamiltonian                  GFN2-xTB          :
          :  restarted?                      false          :
          :  GBSA solvation                  false          :
          :  PC potential                    false          :
          :  electronic temp.          300.0000000     K    :
          :  accuracy                    1.0000000          :
          :  -> integral cutoff          0.2500000E+02      :
          :  -> integral neglect         0.1000000E-07      :
          :  -> SCF convergence          0.1000000E-05 Eh   :
          :  -> wf. convergence          0.1000000E-03 e    :
          :  Broyden damping             0.4000000          :
          :  net charge                          0          :
          :  unpaired electrons                  0          :
          ...................................................

 iter      E             dE          RMSdq      gap      omega  full diag
   1    -51.0708763 -0.510709E+02  0.564E-05    3.37       0.0  T
   2    -51.0708763 -0.129035E-10  0.356E-05    3.37     489.2  T
   3    -51.0708763 -0.434852E-11  0.229E-05    3.37     761.7  T

   *** convergence criteria satisfied after 3 iterations ***

         #    Occupation            Energy/Eh            Energy/eV
      -------------------------------------------------------------
         1        2.0000           -0.7143973             -19.4397
       ...           ...                  ...                  ...
        40        2.0000           -0.4115042             -11.1976
        41        2.0000           -0.3986523             -10.8479
        42        2.0000           -0.3874864             -10.5440
        43        2.0000           -0.3697237             -10.0607
        44        2.0000           -0.3588968              -9.7661
        45        2.0000           -0.3565555              -9.7024
        46        2.0000           -0.3517059              -9.5704 (HOMO)
        47                         -0.2279732              -6.2035 (LUMO)
        48                         -0.2134184              -5.8074
        49                         -0.2021256              -5.5001
        50                         -0.1875030              -5.1022
        51                         -0.1374915              -3.7413
       ...                                ...                  ...
        89                          1.2622932              34.3487
      -------------------------------------------------------------
                  HL-Gap            0.1237327 Eh            3.3669 eV
             Fermi-level           -0.2898395 Eh           -7.8869 eV

 SCC (total)                   0 d,  0 h,  0 min,  0.047 sec
 SCC setup                      ...        0 min,  0.000 sec (  0.418%)
 Dispersion                     ...        0 min,  0.000 sec (  0.388%)
 classical contributions        ...        0 min,  0.000 sec (  0.199%)
 integral evaluation            ...        0 min,  0.005 sec ( 11.356%)
 iterations                     ...        0 min,  0.005 sec (  9.667%)
 molecular gradient             ...        0 min,  0.036 sec ( 77.704%)
 printout                       ...        0 min,  0.000 sec (  0.256%)

         :::::::::::::::::::::::::::::::::::::::::::::::::::::
         ::                     SUMMARY                     ::
         :::::::::::::::::::::::::::::::::::::::::::::::::::::
         :: total energy             -50.360019702602 Eh    ::
         :: gradient norm              0.000702072862 Eh/a0 ::
         :: HOMO-LUMO gap              3.366937748187 eV    ::
         ::.................................................::
         :: SCC energy               -51.070532811657 Eh    ::
         :: -> isotropic ES            0.061123393605 Eh    ::
         :: -> anisotropic ES          0.008055553842 Eh    ::
         :: -> anisotropic XC          0.041155834743 Eh    ::
         :: -> dispersion             -0.033658270446 Eh    ::
         :: repulsion energy           0.710513109055 Eh    ::
         :: add. restraining           0.000000000000 Eh    ::
         :: total charge               0.000000000000 e     ::
         :::::::::::::::::::::::::::::::::::::::::::::::::::::

           -------------------------------------------------
          |                Property Printout                |
           -------------------------------------------------

    * Orbital Energies and Occupations

         #    Occupation            Energy/Eh            Energy/eV
      -------------------------------------------------------------
         1        2.0000           -0.7143973             -19.4397
       ...           ...                  ...                  ...
        34        2.0000           -0.4735004             -12.8846
        35        2.0000           -0.4601742             -12.5220
        36        2.0000           -0.4501307             -12.2487
        37        2.0000           -0.4426177             -12.0442
        38        2.0000           -0.4393749             -11.9560
        39        2.0000           -0.4323208             -11.7640
        40        2.0000           -0.4115042             -11.1976
        41        2.0000           -0.3986523             -10.8479
        42        2.0000           -0.3874864             -10.5440
        43        2.0000           -0.3697237             -10.0607
        44        2.0000           -0.3588968              -9.7661
        45        2.0000           -0.3565555              -9.7024
        46        2.0000           -0.3517059              -9.5704 (HOMO)
        47                         -0.2279732              -6.2035 (LUMO)
        48                         -0.2134184              -5.8074
        49                         -0.2021256              -5.5001
        50                         -0.1875030              -5.1022
        51                         -0.1374915              -3.7413
        52                         -0.1222230              -3.3259
        53                         -0.0750627              -2.0426
        54                         -0.0139446              -0.3795
        55                         -0.0100844              -0.2744
        56                         -0.0014444              -0.0393
        57                          0.0112334               0.3057
       ...                                ...                  ...
        89                          1.2622932              34.3487
      -------------------------------------------------------------
                  HL-Gap            0.1237327 Eh            3.3669 eV
             Fermi-level           -0.2898395 Eh           -7.8869 eV

     #   Z          covCN         q      C6AA      α(0)
     1   6 C        3.685    -0.036    21.432     6.628
     2   7 N        2.694    -0.190    25.122     7.444
     3   6 C        2.776     0.234    23.106     7.873
     4   7 N        2.709    -0.198    25.289     7.469
     5   6 C        3.759     0.011    20.431     6.444
     6   6 C        3.794    -0.015    20.850     6.502
     7  16 S        1.993    -0.210   149.991    20.613
     8   6 C        3.796    -0.014    20.828     6.499
     9   6 C        3.223     0.046    26.235     8.324
    10   6 C        3.068     0.027    27.323     8.571
    11   6 C        3.753    -0.113    22.723     6.797
    12   7 N        2.817    -0.099    23.169     7.149
    13   6 C        3.119     0.086    25.917     8.338
    14   7 N        1.919    -0.279    28.078     7.857
    15   7 N        1.842    -0.281    28.144     7.862
    16   6 C        1.851     0.166    27.137     8.415
[...]
   
   Cite this work as:
   * C. Bannwarth, E. Caldeweyher, S. Ehlert, A. Hansen, P. Pracht,
     J. Seibert, S. Spicher, S. Grimme, WIREs Comput. Mol. Sci., 2020, 11,
     e01493. DOI: 10.1002/wcms.1493
   
   for GFN2-xTB:
   * C. Bannwarth, S. Ehlert and S. Grimme., J. Chem. Theory Comput., 2019,
     15, 1652-1671. DOI: 10.1021/acs.jctc.8b01176
   for GFN1-xTB:
   * S. Grimme, C. Bannwarth, P. Shushkov, J. Chem. Theory Comput., 2017,
     13, 1989-2009. DOI: 10.1021/acs.jctc.7b00118
   for GFN0-xTB:
   * P. Pracht, E. Caldeweyher, S. Ehlert, S. Grimme, ChemRxiv, 2019, preprint.
     DOI: 10.26434/chemrxiv.8326202.v1
   for GFN-FF:
   * S. Spicher and S. Grimme, Angew. Chem. Int. Ed., 2020, 59, 15665-15673.
     DOI: 10.1002/anie.202004239
   
   for ALPB and GBSA implicit solvation:
   * S. Ehlert, M. Stahn, S. Spicher, S. Grimme, J. Chem. Theory Comput.,
     2021, 17, 4250-4261. DOI: 10.1021/acs.jctc.1c00471
   
   for ddCOSMO and CPCM-X implicit solvation:
   * M. Stahn, S. Ehlert, S. Grimme, J. Phys. Chem. A,
     2023, XX, XXXX-XXXX. DOI: 10.1021/acs.jpca.3c04382
   
   for DFT-D4:
   * E. Caldeweyher, C. Bannwarth and S. Grimme, J. Chem. Phys., 2017,
     147, 034112. DOI: 10.1063/1.4993215
   * E. Caldeweyher, S. Ehlert, A. Hansen, H. Neugebauer, S. Spicher,
     C. Bannwarth and S. Grimme, J. Chem. Phys., 2019, 150, 154122.
     DOI: 10.1063/1.5090222
   * E. Caldeweyher, J.-M. Mewes, S. Ehlert and S. Grimme, Phys. Chem. Chem. Phys.
     2020, 22, 8499-8512. DOI: 10.1039/D0CP00502A
   
   for sTDA-xTB:
   * S. Grimme and C. Bannwarth, J. Chem. Phys., 2016, 145, 054103.
     DOI: 10.1063/1.4959605
   
   in the mass-spec context:
   * V. Asgeirsson, C. Bauer and S. Grimme, Chem. Sci., 2017, 8, 4879.
     DOI: 10.1039/c7sc00601b
   * J. Koopman and S. Grimme, ACS Omega 2019, 4, 12, 15120-15133.
     DOI: 10.1021/acsomega.9b02011
   
   for metadynamics refer to:
   * S. Grimme, J. Chem. Theory Comput., 2019, 155, 2847-2862
     DOI: 10.1021/acs.jctc.9b00143
   
   for SPH calculations refer to:
   * S. Spicher and S. Grimme, J. Chem. Theory Comput., 2021, 17, 1701-1714
     DOI: 10.1021/acs.jctc.0c01306
   
   for ONIOM refer to:
   * C. Plett, A. Katbashev, S. Ehlert, S. Grimme, M. Bursch,
     Phys. Chem. Chem. Phys., 2023, 25, 17860-17868. DOI: 10.1039/D3CP02178E
   
   for DIPRO refer to:
   * J. Kohn, N. Gildemeister, S. Grimme, D. Fazzi, A. Hansen,
     J. Chem. Phys., 2023, just accepted.
   
   for PTB refer to:
   * S. Grimme, M. Mueller, A. Hansen, J. Chem. Phys., 2023, 158, 124111.
     DOI: 10.1063/5.0137838
   
   with help from (in alphabetical order)
   P. Atkinson, C. Bannwarth, F. Bohle, G. Brandenburg, E. Caldeweyher
   M. Checinski, S. Dohm, S. Ehlert, S. Ehrlich, I. Gerasimov, C. Hölzer
   A. Katbashev, J. Kohn, J. Koopman, C. Lavigne, S. Lehtola, F. März, M. Müller,
   F. Musil, H. Neugebauer, J. Pisarek, C. Plett, P. Pracht, F. Pultar,
   J. Seibert, P. Shushkov, S. Spicher, M. Stahn, M. Steiner, T. Strunk,
   J. Stückrath, T. Rose, and J. Unsleber
   
 * started run on 2025/05/15 at 16:19:09.014     
   ID    Z sym.   atoms
    1    6 C      1, 3, 5, 6, 8-11, 13, 16
    2    7 N      2, 4, 12, 14, 15, 17
    3   16 S      7
    4    1 H      18-33

           -------------------------------------------------
          |                Calculation Setup                |
           -------------------------------------------------

          program call               : xtb /rds/general/user/hgt20/home/callum/QDESCP/Cimetadine_rdkit_conf_8/Cimetadine_rdkit_conf_8.xyz --acc 1 --gfn 2 --chrg 0 --uhf 2 --etemp 300 --input /rds/general/user/hgt20/home/callum/QDESCP/Cimetadine_rdkit_conf_8/Cimetadine_rdkit_conf_8_xtb.inp -P 1
          hostname                   : login-c
          coordinate file            : /rds/general/user/hgt20/home/callum/QDESCP/Cimetadine_rdkit_conf_8/Cimetadine_rdkit_conf_8.xyz
          omp threads                :                     1


           -------------------------------------------------
          |                 G F N 2 - x T B                 |
           -------------------------------------------------

        Reference                      10.1021/acs.jctc.8b01176
      * Hamiltonian:
        H0-scaling (s, p, d)           1.850000    2.230000    2.230000
        zeta-weighting                 0.500000
      * Dispersion:
        s8                             2.700000
        a1                             0.520000
        a2                             5.000000
        s9                             5.000000
      * Repulsion:
        kExp                           1.500000    1.000000
        rExp                           1.000000
      * Coulomb:
        alpha                          2.000000
        third order                    shell-resolved
        anisotropic                    true
        a3                             3.000000
        a5                             4.000000
        cn-shift                       1.200000
        cn-exp                         4.000000
        max-rad                        5.000000


          ...................................................
          :                      SETUP                      :
          :.................................................:
          :  # basis functions                  90          :
          :  # atomic orbitals                  89          :
          :  # shells                           51          :
          :  # electrons                        92          :
          :  max. iterations                   250          :
          :  Hamiltonian                  GFN2-xTB          :
          :  restarted?                      false          :
          :  GBSA solvation                  false          :
          :  PC potential                    false          :
          :  electronic temp.          300.0000000     K    :
          :  accuracy                    1.0000000          :
          :  -> integral cutoff          0.2500000E+02      :
          :  -> integral neglect         0.1000000E-07      :
          :  -> SCF convergence          0.1000000E-05 Eh   :
          :  -> wf. convergence          0.1000000E-03 e    :
          :  Broyden damping             0.4000000          :
          :  net charge                          0          :
          :  unpaired electrons                  2          :
          ...................................................

 iter      E             dE          RMSdq      gap      omega  full diag
   1    -50.6312668 -0.506313E+02  0.441E+00    0.36       0.0  T
   2    -50.6344410 -0.317413E-02  0.344E+00    1.78       1.0  T
   3    -50.7228869 -0.884460E-01  0.275E+00    0.24       1.0  T
   4    -50.7198695  0.301747E-02  0.181E+00    0.69       1.0  T
   5    -50.6879678  0.319017E-01  0.227E+00    0.42       1.0  T
   6    -50.7532088 -0.652410E-01  0.180E+00    0.38       1.0  T
   7    -50.8327864 -0.795776E-01  0.109E+00    0.11       1.0  T
   8    -50.9092984 -0.765121E-01  0.712E-01    0.08       1.0  T
   9    -50.8646059  0.446925E-01  0.959E-01    0.12       1.0  T
  10    -50.7656343  0.989716E-01  0.179E+00    0.21       1.0  T
  11    -50.8227488 -0.571145E-01  0.133E+00    0.11       1.0  T
  12    -50.8481509 -0.254021E-01  0.116E+00    0.07       1.0  T
  13    -50.9026852 -0.545343E-01  0.522E-01    0.08       1.0  T
  14    -50.9168400 -0.141548E-01  0.439E-02    0.07       1.0  T
  15    -50.9168883 -0.482690E-04  0.415E-02    0.07       1.0  T
  16    -50.9157089  0.117939E-02  0.173E-01    0.07       1.0  T
  17    -50.9163251 -0.616177E-03  0.119E-01    0.07       1.0  T
  18    -50.9169186 -0.593490E-03  0.379E-02    0.07       1.0  T
  19    -50.9169090  0.956195E-05  0.214E-02    0.07       1.0  T
  20    -50.9169326 -0.235722E-04  0.110E-02    0.07       1.6  T
  21    -50.9169387 -0.612335E-05  0.225E-03    0.07       7.7  T
  22    -50.9169376  0.106100E-05  0.467E-03    0.07       3.7  T
  23    -50.9169377 -0.802248E-07  0.586E-03    0.07       3.0  T
  24    -50.9169390 -0.126798E-05  0.190E-03    0.07       9.2  T
  25    -50.9169390 -0.414350E-07  0.841E-04    0.07      20.7  T
  26    -50.9169391 -0.461851E-07  0.286E-04    0.07      60.8  T

   *** convergence criteria satisfied after 26 iterations ***

         #    Occupation            Energy/Eh            Energy/eV
      -------------------------------------------------------------
         1        2.0000           -0.7181553             -19.5420
       ...           ...                  ...                  ...
        41        2.0000           -0.3921807             -10.6718
        42        2.0000           -0.3904177             -10.6238
        43        1.9998           -0.3831748             -10.4267
        44        1.8609           -0.3765941             -10.2476
        45        1.8155           -0.3762743             -10.2389
        46        1.3238           -0.3741627             -10.1815
        47        0.7792           -0.2102330              -5.7207 (HOMO)
        48        0.1813           -0.2076025              -5.6492 (LUMO)
        49        0.0395           -0.2060020              -5.6056
        50                         -0.1847221              -5.0265
        51                         -0.1432864              -3.8990
        52                         -0.1392565              -3.7894
       ...                                ...                  ...
        89                          1.2409016              33.7667
      -------------------------------------------------------------
                  HL-Gap            0.0026305 Eh            0.0716 eV
             Fermi-level           -0.2919486 Eh           -7.9443 eV

 transition dipole moment (au) for excitation:          46          47
     X       Y       Z   
   1.1037  -0.1371   0.1765  total (au/Debye):    1.126   2.862
 dE (eV)             :    4.461
 oscillator strength :  0.19599E+00

 SCC (total)                   0 d,  0 h,  0 min,  0.102 sec
 SCC setup                      ...        0 min,  0.000 sec (  0.255%)
 Dispersion                     ...        0 min,  0.000 sec (  0.282%)
 classical contributions        ...        0 min,  0.000 sec (  0.091%)
 integral evaluation            ...        0 min,  0.006 sec (  5.457%)
 iterations                     ...        0 min,  0.074 sec ( 72.597%)
 molecular gradient             ...        0 min,  0.016 sec ( 15.780%)
 printout                       ...        0 min,  0.006 sec (  5.531%)

         :::::::::::::::::::::::::::::::::::::::::::::::::::::
         ::                     SUMMARY                     ::
         :::::::::::::::::::::::::::::::::::::::::::::::::::::
         :: total energy             -50.206082466292 Eh    ::
         :: gradient norm              0.113510418391 Eh/a0 ::
         :: HOMO-LUMO gap              0.071580524798 eV    ::
         ::.................................................::
         :: SCC energy               -50.916595575347 Eh    ::
         :: -> isotropic ES            0.049671999609 Eh    ::
         :: -> anisotropic ES          0.006035666397 Eh    ::
         :: -> anisotropic XC          0.036460447550 Eh    ::
         :: -> dispersion             -0.033734083743 Eh    ::
         :: repulsion energy           0.710513109055 Eh    ::
         :: add. restraining           0.000000000000 Eh    ::
         :: total charge               0.000000000018 e     ::
         :::::::::::::::::::::::::::::::::::::::::::::::::::::

           -------------------------------------------------
          |                Property Printout                |
           -------------------------------------------------

    * Orbital Energies and Occupations

         #    Occupation            Energy/Eh            Energy/eV
      -------------------------------------------------------------
         1        2.0000           -0.7181553             -19.5420
       ...           ...                  ...                  ...
        35        2.0000           -0.4601560             -12.5215
        36        2.0000           -0.4585519             -12.4778
        37        2.0000           -0.4521512             -12.3037
        38        2.0000           -0.4471599             -12.1678
        39        2.0000           -0.4312900             -11.7360
        40        2.0000           -0.3991748             -10.8621
        41        2.0000           -0.3921807             -10.6718
        42        2.0000           -0.3904177             -10.6238
        43        1.9998           -0.3831748             -10.4267
        44        1.8609           -0.3765941             -10.2476
        45        1.8155           -0.3762743             -10.2389
        46        1.3238           -0.3741627             -10.1815
        47        0.7792           -0.2102330              -5.7207 (HOMO)
        48        0.1813           -0.2076025              -5.6492 (LUMO)
        49        0.0395           -0.2060020              -5.6056
        50                         -0.1847221              -5.0265
        51                         -0.1432864              -3.8990
        52                         -0.1392565              -3.7894
        53                         -0.0940464              -2.5591
        54                         -0.0166387              -0.4528
        55                         -0.0113396              -0.3086
        56                         -0.0092139              -0.2507
        57                          0.0069606               0.1894
        58                          0.0213436               0.5808
       ...                                ...                  ...
        89                          1.2409016              33.7667
      -------------------------------------------------------------
                  HL-Gap            0.0026305 Eh            0.0716 eV
             Fermi-level           -0.2919486 Eh           -7.9443 eV

     #   Z          covCN         q      C6AA      α(0)
     1   6 C        3.685    -0.038    21.454     6.631
     2   7 N        2.694    -0.189    25.100     7.441
     3   6 C        2.776     0.194    23.849     7.999
     4   7 N        2.709    -0.191    25.132     7.446
     5   6 C        3.759     0.013    20.405     6.440
     6   6 C        3.794    -0.029    21.094     6.540
     7  16 S        1.993    -0.136   146.783    20.391
     8   6 C        3.796    -0.033    21.170     6.552
     9   6 C        3.223     0.042    26.323     8.339
    10   6 C        3.068     0.011    27.694     8.629
    11   6 C        3.753    -0.109    22.638     6.785
    12   7 N        2.817    -0.117    23.552     7.208
    13   6 C        3.119     0.082    26.012     8.353
    14   7 N        1.919    -0.301    28.636     7.934
    15   7 N        1.842    -0.227    26.813     7.674
    16   6 C        1.851     0.165    27.172     8.420
    17   7 N        0.912    -0.334    28.578     7.731
    18   1 H        0.924     0.052     2.301     2.372
    19   1 H        0.924     0.043     2.415     2.430
    20   1 H        0.925     0.077     2.012     2.218
    21   1 H        0.860     0.167     1.289     1.778
    22   1 H        0.859     0.204     1.086     1.632
    23   1 H        0.924     0.070     2.089     2.260
    24   1 H        0.924     0.048     2.350     2.397
    25   1 H        0.925     0.071     2.071     2.250
    26   1 H        0.925     0.050     2.314     2.379
    27   1 H        0.925     0.047     2.364     2.404
    28   1 H        0.925     0.049     2.330     2.387
    29   1 H        0.925     0.053     2.288     2.365
    30   1 H        0.925     0.043     2.412     2.429
    31   1 H        0.924     0.046     2.373     2.409
    32   1 H        0.860     0.156     1.360     1.827
    33   1 H        0.926     0.021     2.715     2.577

 Mol. C6AA /au·bohr⁶  :      13094.049386
 Mol. C8AA /au·bohr⁸  :     325142.519880
 Mol. α(0) /au        :        176.628352


Wiberg/Mayer (AO) data.
largest (>0.10) Wiberg bond orders for each atom

 ---------------------------------------------------------------------------
     #   Z sym  total        # sym  WBO       # sym  WBO       # sym  WBO
 ---------------------------------------------------------------------------
     1   6 C    3.964 --     2 N    1.015    18 H    0.977    19 H    0.972
                            20 H    0.965
     2   7 N    3.288 --     3 C    1.150     1 C    1.015    21 H    0.939
     3   6 C    3.770 --    15 N    1.304     4 N    1.165     2 N    1.150
     4   7 N    3.318 --     3 C    1.165     5 C    1.024    22 H    0.866
     5   6 C    3.964 --     4 N    1.024    24 H    0.968     6 C    0.967
                            23 H    0.957
     6   6 C    3.944 --    25 H    0.969     7 S    0.969     5 C    0.967
                            26 H    0.966
     7  16 S    2.155 --     6 C    0.969     8 C    0.847
     8   6 C    3.927 --     9 C    1.054    27 H    0.969    28 H    0.962
                             7 S    0.847
     9   6 C    3.897 --    10 C    1.384    14 N    1.252     8 C    1.054
    10   6 C    3.778 --     9 C    1.384    12 N    1.154    11 C    1.034
    11   6 C    3.994 --    10 C    1.034    30 H    0.980    29 H    0.977
                            31 H    0.965
    12   7 N    3.494 --    13 C    1.207    10 C    1.154    32 H    0.946
    13   6 C    3.873 --    14 N    1.510    12 N    1.207    33 H    0.966
    14   7 N    3.052 --    13 C    1.510     9 C    1.252
    15   7 N    3.027 --    16 C    1.397     3 C    1.304    17 N    0.171
    16   6 C    3.878 --    17 N    2.396    15 N    1.397
    17   7 N    2.633 --    16 C    2.396    15 N    0.171
    18   1 H    0.993 --     1 C    0.977
    19   1 H    0.990 --     1 C    0.972
    20   1 H    0.993 --     1 C    0.965
    21   1 H    0.970 --     2 N    0.939
    22   1 H    0.957 --     4 N    0.866
    23   1 H    0.992 --     5 C    0.957
    24   1 H    0.996 --     5 C    0.968
    25   1 H    0.994 --     6 C    0.969
    26   1 H    0.986 --     6 C    0.966
    27   1 H    0.992 --     8 C    0.969
    28   1 H    0.996 --     8 C    0.962
    29   1 H    0.995 --    11 C    0.977
    30   1 H    0.996 --    11 C    0.980
    31   1 H    0.989 --    11 C    0.965
    32   1 H    0.975 --    12 N    0.946
    33   1 H    0.999 --    13 C    0.966
 ---------------------------------------------------------------------------

Topologies differ in total number of bonds
Writing topology from bond orders to xtbtopo.mol

molecular dipole:
                 x           y           z       tot (Debye)
 q only:       -2.642       0.735      -0.411
   full:       -3.720       1.258      -0.550      10.079
molecular quadrupole (traceless):
                xx          xy          yy          xz          yz          zz
 q only:      -24.753       6.421      11.003      -0.499      -7.945      13.749
  q+dip:      -28.896       6.365      12.529       2.428     -13.254      16.368
   full:      -30.300       6.686      13.270       1.980     -12.859      17.030


           -------------------------------------------------
          | TOTAL ENERGY              -50.206082466292 Eh   |
          | GRADIENT NORM               0.113510418391 Eh/α |
          | HOMO-LUMO GAP               0.071580524798 eV   |
           -------------------------------------------------

------------------------------------------------------------------------
 * finished run on 2025/05/15 at 16:19:09.128     
------------------------------------------------------------------------
 total:
 * wall-time:     0 d,  0 h,  0 min,  0.113 sec
 *  cpu-time:     0 d,  0 h,  0 min,  0.074 sec
 * ratio c/w:     0.655 speedup
 SCF:
 * wall-time:     0 d,  0 h,  0 min,  0.102 sec
 *  cpu-time:     0 d,  0 h,  0 min,  0.064 sec
 * ratio c/w:     0.633 speedup


