42
 energy: -66.163702138613 gnorm: 0.000367891904 xtb: 6.7.1 (edcfbbe)
Cl          -2.61163219707989       -1.11017290320433        1.51822265420926
C           -1.95092298939632       -1.73588469864719        0.04201646941551
C           -0.75774275869117       -1.24258465341633       -0.49167022713475
C            0.04631527855056       -0.17591656072580        0.25012761275402
C            1.29073697420296        0.26250945495469       -0.52335805678086
C            2.57572834360366        0.13492508306594       -0.01829826843005
C            3.66144746435187        0.61005251464156       -0.73701265237344
C            3.47723439269631        1.22153164702500       -1.96282603427933
C            2.19501033281582        1.36497475672510       -2.46788585918718
C            1.11133813390443        0.89640658525251       -1.75112301661930
C           -0.71421559911131        1.13058160657777        0.44907377720124
C           -1.91323165654895        1.39937108764333       -0.19552152677500
C           -2.53422542202670        2.62678033728287       -0.03635266526527
C           -1.95967152005849        3.60489285872653        0.75455588267962
C           -0.74292121180293        3.35857709885880        1.36781934876637
C           -0.11874601650841        2.13632545677431        1.20507249728123
N            0.40850253742384       -0.79658560951922        1.51788233551596
C            0.13819858190743       -0.41535521192563        2.80278308851142
C            0.65305167386383       -1.39202855024463        3.60377378730321
N            1.22493009915511       -2.36520256565749        2.84666863624198
C            1.05672428726033       -1.98705978083450        1.61249769272286
C           -0.28490454405571       -1.83699011179122       -1.65607609001091
C           -0.98123361453648       -2.85293613138665       -2.28631961160933
C           -2.17276993095962       -3.31030020962390       -1.75411846488932
C           -2.65448672833402       -2.75211647166450       -0.58484469118848
H            2.74742537168321       -0.33404421105672        0.93884045037658
H            4.65511978716052        0.50100072461173       -0.32870174024972
H            4.32506957212497        1.59130956952033       -2.51966571878205
H            2.03738945936772        1.84896547861180       -3.42025862507588
H            0.11240911637211        1.02318653163658       -2.14300699159430
H           -2.37107788825032        0.65476609166026       -0.82951897936764
H           -3.47176877819794        2.81619533127377       -0.53773914229225
H           -2.44861823698594        4.55916791883238        0.88127821277326
H           -0.27212266011094        4.12303159450886        1.96802141539129
H            0.84569852066675        1.96467863335871        1.66129934154444
H           -0.40130895655556        0.47530927734701        3.04618005197559
H            0.64575194037594       -1.45581037038256        4.67327124625810
H            1.38192000808906       -2.54004319122120        0.75327041941084
H            0.65155881200763       -1.50489791300136       -2.07676473506135
H           -0.58409180154856       -3.28948526144409       -3.18981644554252
H           -2.72173815780060       -4.10370143065665       -2.23720123242668
H           -3.57433001902474       -3.10372380248577       -0.14477414539846
