62
 energy: -94.876585953687 gnorm: 0.000727485642 xtb: 6.7.1 (edcfbbe)
C           -7.11364911356815       -0.06668386675033       -0.92170653399604
C           -6.33378624435493        0.76270506055944       -1.89895911722799
C           -4.85515568923307        0.52717941330640       -1.89985625250919
C           -4.17771050714394        0.27021131417868       -3.05620076804954
C           -4.84368131845624        0.16660315598779       -4.39113574464507
C           -2.77056614418298        0.03811093298267       -2.98127805195878
C           -1.94890515397177       -0.30337425695893       -4.06735837596224
N           -0.66319056114280       -0.50900019629849       -3.96019961322402
C           -0.12104642286836       -0.38750208572852       -2.73034865922671
N            1.20209544801805       -0.63860771705928       -2.69502531163548
C            2.11598033613697       -0.64189137496089       -1.65122170778585
N            3.37308541611319       -0.80304206457850       -2.05316951954499
C            4.34039463442163       -0.81903475443338       -1.16210787029443
C            4.13633720351454       -0.67720515168667        0.22087016471372
C            2.79913115309404       -0.53424668935826        0.62869857965167
C            1.78433401540628       -0.51680281327179       -0.30364702920282
N            5.16664172728554       -0.70321541701551        1.11833333466202
C            6.49824923201618       -1.12114588908372        0.73638204866237
C            7.24995446913062       -1.61452055624769        1.96879825311315
N            7.44962225024214       -0.52519650886801        2.91607151651305
C            6.37669028824024        0.45473450093585        2.87660542380129
C            5.03333730748037       -0.14628754056273        2.44746941835495
N           -0.78822205738584       -0.05129103580362       -1.63237048645692
C           -2.09717213896994        0.17007771634998       -1.74355676509782
N           -2.78630629169049        0.52878995881004       -0.62651292394020
C           -2.04096920528691        0.75509241448469        0.61082531292560
C           -2.27204966502439       -0.34307523263353        1.66154234547560
C           -2.11013688434555        0.38846113411435        2.98961375691661
C           -2.81781816219069        1.71411221213168        2.72441887982563
C           -2.37178974503284        2.09123275152233        1.30953020147535
C           -4.17633316562993        0.63071677196286       -0.60977567741758
O           -4.75516540442951        0.82728875480978        0.44503621225841
O           -6.85400305492440        1.55866544205079       -2.64604350302681
H           -8.17894903971432        0.08700098552181       -1.07004678676125
H           -6.86128601891922       -1.11851241475000       -1.03719599055806
H           -6.82869319481894        0.23731762276531        0.08408760512547
H           -5.90261292789517        0.38866389094260       -4.32406036874096
H           -4.39091262196429        0.87507846183734       -5.08287654780530
H           -4.71363762598940       -0.83607219084929       -4.79786210802156
H           -2.35484244323375       -0.41283388651384       -5.06347687338627
H            1.61639867126961       -0.82578711022018       -3.60029624997258
H            5.33026301361565       -0.93931913705155       -1.57758128492140
H            2.55104159649556       -0.45860958060277        1.67610175399448
H            0.75466398738503       -0.42622325290407       -0.00890441569594
H            6.42023995891039       -1.94403147545931        0.02121400470816
H            7.06391799621390       -0.30376912559374        0.26767870000003
H            8.23347304862212       -1.99049135910586        1.67054088407252
H            6.68420800403355       -2.45431642189897        2.40220250702737
H            7.56605178658420       -0.90346239917416        3.84870141010632
H            6.65303695757933        1.23301061629824        2.15545662737635
H            6.27683670038934        0.92789842953731        3.85442805138917
H            4.72319021861025       -0.91761974325684        3.16937279048870
H            4.27646999842809        0.64240916681359        2.44087231118543
H           -0.99536794919285        0.76027327871698        0.30241787046885
H           -1.57969736211774       -1.17548677363329        1.53771863963058
H           -3.29152281743817       -0.71765685774001        1.57811467005296
H           -2.54533601126367       -0.16157348740592        3.82223296335768
H           -1.05204038919994        0.55958432500170        3.19914012286742
H           -2.56768949849168        2.48222689377254        3.45460282021295
H           -3.89520895883296        1.55538511637222        2.73107369511974
H           -1.47538674257309        2.71212241771987        1.34141944487509
H           -3.14480488776804        2.64363562797034        0.78060221665774
