----- Optimization -----
      -----------------------------------------------------------      
     |                   =====================                   |     
     |                           x T B                           |     
     |                   =====================                   |     
     |                         S. Grimme                         |     
     |          Mulliken Center for Theoretical Chemistry        |     
     |                    University of Bonn                     |     
      -----------------------------------------------------------      

   * xtb version 6.7.1 (edcfbbe) compiled by 'conda@3ef47c1a292c' on 2024-11-25

   xtb is free software: you can redistribute it and/or modify it under
   the terms of the GNU Lesser General Public License as published by
   the Free Software Foundation, either version 3 of the License, or
   (at your option) any later version.
   
   xtb is distributed in the hope that it will be useful,
   but WITHOUT ANY WARRANTY; without even the implied warranty of
   MERCHANTABILITY or FITNESS FOR A PARTICULAR PURPOSE.  See the
   GNU Lesser General Public License for more details.
   
   Cite this work as:
   * C. Bannwarth, E. Caldeweyher, S. Ehlert, A. Hansen, P. Pracht,
     J. Seibert, S. Spicher, S. Grimme, WIREs Comput. Mol. Sci., 2020, 11,
     e01493. DOI: 10.1002/wcms.1493
   
   for GFN2-xTB:
   * C. Bannwarth, S. Ehlert and S. Grimme., J. Chem. Theory Comput., 2019,
     15, 1652-1671. DOI: 10.1021/acs.jctc.8b01176
   for GFN1-xTB:
   * S. Grimme, C. Bannwarth, P. Shushkov, J. Chem. Theory Comput., 2017,
     13, 1989-2009. DOI: 10.1021/acs.jctc.7b00118
   for GFN0-xTB:
   * P. Pracht, E. Caldeweyher, S. Ehlert, S. Grimme, ChemRxiv, 2019, preprint.
     DOI: 10.26434/chemrxiv.8326202.v1
   for GFN-FF:
   * S. Spicher and S. Grimme, Angew. Chem. Int. Ed., 2020, 59, 15665-15673.
     DOI: 10.1002/anie.202004239
   
   for ALPB and GBSA implicit solvation:
   * S. Ehlert, M. Stahn, S. Spicher, S. Grimme, J. Chem. Theory Comput.,
     2021, 17, 4250-4261. DOI: 10.1021/acs.jctc.1c00471
   
   for ddCOSMO and CPCM-X implicit solvation:
   * M. Stahn, S. Ehlert, S. Grimme, J. Phys. Chem. A,
     2023, XX, XXXX-XXXX. DOI: 10.1021/acs.jpca.3c04382
   
   for DFT-D4:
   * E. Caldeweyher, C. Bannwarth and S. Grimme, J. Chem. Phys., 2017,
     147, 034112. DOI: 10.1063/1.4993215
   * E. Caldeweyher, S. Ehlert, A. Hansen, H. Neugebauer, S. Spicher,
     C. Bannwarth and S. Grimme, J. Chem. Phys., 2019, 150, 154122.
     DOI: 10.1063/1.5090222
   * E. Caldeweyher, J.-M. Mewes, S. Ehlert and S. Grimme, Phys. Chem. Chem. Phys.
     2020, 22, 8499-8512. DOI: 10.1039/D0CP00502A
   
   for sTDA-xTB:
   * S. Grimme and C. Bannwarth, J. Chem. Phys., 2016, 145, 054103.
     DOI: 10.1063/1.4959605
   
   in the mass-spec context:
   * V. Asgeirsson, C. Bauer and S. Grimme, Chem. Sci., 2017, 8, 4879.
     DOI: 10.1039/c7sc00601b
   * J. Koopman and S. Grimme, ACS Omega 2019, 4, 12, 15120-15133.
     DOI: 10.1021/acsomega.9b02011
   
   for metadynamics refer to:
   * S. Grimme, J. Chem. Theory Comput., 2019, 155, 2847-2862
     DOI: 10.1021/acs.jctc.9b00143
   
   for SPH calculations refer to:
   * S. Spicher and S. Grimme, J. Chem. Theory Comput., 2021, 17, 1701-1714
     DOI: 10.1021/acs.jctc.0c01306
   
   for ONIOM refer to:
   * C. Plett, A. Katbashev, S. Ehlert, S. Grimme, M. Bursch,
     Phys. Chem. Chem. Phys., 2023, 25, 17860-17868. DOI: 10.1039/D3CP02178E
   
   for DIPRO refer to:
   * J. Kohn, N. Gildemeister, S. Grimme, D. Fazzi, A. Hansen,
     J. Chem. Phys., 2023, just accepted.
   
   for PTB refer to:
   * S. Grimme, M. Mueller, A. Hansen, J. Chem. Phys., 2023, 158, 124111.
     DOI: 10.1063/5.0137838
   
   with help from (in alphabetical order)
   P. Atkinson, C. Bannwarth, F. Bohle, G. Brandenburg, E. Caldeweyher
   M. Checinski, S. Dohm, S. Ehlert, S. Ehrlich, I. Gerasimov, C. Hölzer
   A. Katbashev, J. Kohn, J. Koopman, C. Lavigne, S. Lehtola, F. März, M. Müller,
   F. Musil, H. Neugebauer, J. Pisarek, C. Plett, P. Pracht, F. Pultar,
   J. Seibert, P. Shushkov, S. Spicher, M. Stahn, M. Steiner, T. Strunk,
   J. Stückrath, T. Rose, and J. Unsleber
   
 * started run on 2025/05/15 at 16:09:09.926     
   ID    Z sym.   atoms
    1    6 C      1-7, 9, 11, 13-16, 18, 19, 21, 22, 24, 26-31
    2    7 N      8, 10, 12, 17, 20, 23, 25
    3    8 O      32, 33
    4    1 H      34-62

           -------------------------------------------------
          |                Calculation Setup                |
           -------------------------------------------------

          program call               : xtb /rds/general/user/hgt20/home/callum/QDESCP/Palbociclib_rdkit_conf_20/Palbociclib_rdkit_conf_20.xyz --opt normal --acc 1 --gfn 2 --chrg 0 --uhf 0 -P 1
          hostname                   : login-c
          coordinate file            : /rds/general/user/hgt20/home/callum/QDESCP/Palbociclib_rdkit_conf_20/Palbociclib_rdkit_conf_20.xyz
          omp threads                :                     1


           -------------------------------------------------
          |                 G F N 2 - x T B                 |
           -------------------------------------------------

        Reference                      10.1021/acs.jctc.8b01176
      * Hamiltonian:
        H0-scaling (s, p, d)           1.850000    2.230000    2.230000
        zeta-weighting                 0.500000
      * Dispersion:
        s8                             2.700000
        a1                             0.520000
        a2                             5.000000
        s9                             5.000000
      * Repulsion:
        kExp                           1.500000    1.000000
        rExp                           1.000000
      * Coulomb:
        alpha                          2.000000
        third order                    shell-resolved
        anisotropic                    true
        a3                             3.000000
        a5                             4.000000
        cn-shift                       1.200000
        cn-exp                         4.000000
        max-rad                        5.000000


          ...................................................
          :                      SETUP                      :
          :.................................................:
          :  # basis functions                 161          :
          :  # atomic orbitals                 161          :
          :  # shells                           95          :
          :  # electrons                       172          :
          :  max. iterations                   250          :
          :  Hamiltonian                  GFN2-xTB          :
          :  restarted?                      false          :
          :  GBSA solvation                  false          :
          :  PC potential                    false          :
          :  electronic temp.          300.0000000     K    :
          :  accuracy                    1.0000000          :
          :  -> integral cutoff          0.2500000E+02      :
          :  -> integral neglect         0.1000000E-07      :
          :  -> SCF convergence          0.1000000E-05 Eh   :
          :  -> wf. convergence          0.1000000E-03 e    :
          :  Broyden damping             0.4000000          :
          :  net charge                          0          :
          :  unpaired electrons                  0          :
          ...................................................

 iter      E             dE          RMSdq      gap      omega  full diag
   1    -95.9158809 -0.959159E+02  0.389E+00    1.67       0.0  T
   2    -96.0695588 -0.153678E+00  0.234E+00    1.86       1.0  T
   3    -96.0784603 -0.890150E-02  0.125E+00    1.73       1.0  T
   4    -96.0870727 -0.861236E-02  0.336E-01    1.57       1.0  T
   5    -96.0917596 -0.468690E-02  0.136E-01    1.66       1.0  T
   6    -96.0924807 -0.721135E-03  0.532E-02    1.65       1.0  T
   7    -96.0925501 -0.693563E-04  0.215E-02    1.65       1.0  T
   8    -96.0925542 -0.412518E-05  0.914E-03    1.66       1.4  T
   9    -96.0925555 -0.126886E-05  0.383E-03    1.66       3.3  T
  10    -96.0925558 -0.366880E-06  0.150E-03    1.66       8.5  T
  11    -96.0925559 -0.651207E-07  0.653E-04    1.66      19.5  T
  12    -96.0925559 -0.500323E-08  0.272E-04    1.66      46.7  T

   *** convergence criteria satisfied after 12 iterations ***

         #    Occupation            Energy/Eh            Energy/eV
      -------------------------------------------------------------
         1        2.0000           -0.7001752             -19.0527
       ...           ...                  ...                  ...
        80        2.0000           -0.4013879             -10.9223
        81        2.0000           -0.3946550             -10.7391
        82        2.0000           -0.3887787             -10.5792
        83        2.0000           -0.3760867             -10.2338
        84        2.0000           -0.3740001             -10.1771
        85        2.0000           -0.3701577             -10.0725
        86        2.0000           -0.3516835              -9.5698 (HOMO)
        87                         -0.2907833              -7.9126 (LUMO)
        88                         -0.2691840              -7.3249
        89                         -0.2503735              -6.8130
        90                         -0.2430951              -6.6150
        91                         -0.2324782              -6.3261
       ...                                ...                  ...
       161                          0.6857458              18.6601
      -------------------------------------------------------------
                  HL-Gap            0.0609002 Eh            1.6572 eV
             Fermi-level           -0.3212334 Eh           -8.7412 eV

 SCC (total)                   0 d,  0 h,  0 min,  0.187 sec
 SCC setup                      ...        0 min,  0.001 sec (  0.363%)
 Dispersion                     ...        0 min,  0.001 sec (  0.517%)
 classical contributions        ...        0 min,  0.000 sec (  0.162%)
 integral evaluation            ...        0 min,  0.051 sec ( 27.395%)
 iterations                     ...        0 min,  0.053 sec ( 28.257%)
 molecular gradient             ...        0 min,  0.081 sec ( 43.098%)
 printout                       ...        0 min,  0.000 sec (  0.204%)

         :::::::::::::::::::::::::::::::::::::::::::::::::::::
         ::                     SUMMARY                     ::
         :::::::::::::::::::::::::::::::::::::::::::::::::::::
         :: total energy             -94.850037210278 Eh    ::
         :: gradient norm              0.128982899617 Eh/a0 ::
         :: HOMO-LUMO gap              1.657179636545 eV    ::
         ::.................................................::
         :: SCC energy               -96.092539853767 Eh    ::
         :: -> isotropic ES            0.111060406373 Eh    ::
         :: -> anisotropic ES          0.011275015912 Eh    ::
         :: -> anisotropic XC          0.054596051957 Eh    ::
         :: -> dispersion             -0.069662043270 Eh    ::
         :: repulsion energy           1.242502643489 Eh    ::
         :: add. restraining           0.000000000000 Eh    ::
         :: total charge              -0.000000000000 e     ::
         :::::::::::::::::::::::::::::::::::::::::::::::::::::

      ----------------------------------------------------------- 
     |                   =====================                   |
     |                        A N C O P T                        |
     |                   =====================                   |
     |               Approximate Normal Coordinate               |
     |                Rational Function Optimizer                |
      ----------------------------------------------------------- 
      ----------------------------------------------------------- 
     |                   =====================                   |
     |                        A N C O P T                        |
     |                   =====================                   |
     |               Approximate Normal Coordinate               |
     |                Rational Function Optimizer                |
      ----------------------------------------------------------- 

          ...................................................
          :                      SETUP                      :
          :.................................................:
          :   optimization level            normal          :
          :   max. optcycles                   200          :
          :   ANC micro-cycles                  20          :
          :   degrees of freedom               180          :
          :.................................................:
          :   RF solver                   davidson          :
          :   write xtbopt.log                true          :
          :   linear?                        false          :
          :   energy convergence         0.5000000E-05 Eh   :
          :   grad. convergence          0.1000000E-02 Eh/α :
          :   maxmium RF displ.          1.0000000          :
          :   Hlow (freq-cutoff)         0.1000000E-01      :
          :   Hmax (freq-cutoff)         5.0000000          :
          :   S6 in model hess.         20.0000000          :
          ...................................................

generating ANC from exact Hessian ...
Using Lindh-Hessian (1995)
 Shifting diagonal of input Hessian by    9.8779904148807423E-003
 Lowest  eigenvalues of input Hessian
    0.000000    0.000000    0.000000    0.000000    0.000000    0.000000
    0.010000    0.010124    0.010361    0.010437    0.010938    0.011016
    0.011258    0.011580    0.012056    0.012361    0.013290    0.013877
 Highest eigenvalues
    2.055571    2.066539    2.130411    2.218573    2.270279    2.297536


........................................................................
.............................. CYCLE    1 ..............................
........................................................................

 iter      E             dE          RMSdq      gap      omega  full diag
   1    -96.0925559 -0.960926E+02  0.899E-05    1.66       0.0  T
   2    -96.0925559 -0.154685E-09  0.580E-05    1.66     219.1  T
   3    -96.0925559 -0.116913E-09  0.343E-05    1.66     370.1  T
     SCC iter.                  ...        0 min,  0.072 sec
     gradient                   ...        0 min,  0.047 sec
 * total energy  :   -94.8500372 Eh     change       -0.1209258E-08 Eh
   gradient norm :     0.1289839 Eh/α   predicted     0.0000000E+00 (-100.00%)
   displ. norm   :     0.4041422 α      lambda       -0.2159480E-01
   maximum displ.:     0.1381249 α      in ANC's #24, #19, #37, ...

........................................................................
.............................. CYCLE    2 ..............................
........................................................................

 iter      E             dE          RMSdq      gap      omega  full diag
   1    -96.1361309 -0.961361E+02  0.182E-01    1.66       0.0  T
   2    -96.1364227 -0.291744E-03  0.111E-01    1.74       1.0  T
   3    -96.1364521 -0.294472E-04  0.617E-02    1.72       1.0  T
   4    -96.1365064 -0.542721E-04  0.169E-02    1.74       1.0  T
   5    -96.1365215 -0.150505E-04  0.522E-03    1.74       2.4  T
   6    -96.1365224 -0.978823E-06  0.247E-03    1.74       5.1  T
   7    -96.1365225 -0.554192E-07  0.105E-03    1.74      12.1  T
   8    -96.1365225 -0.298934E-07  0.324E-04    1.74      39.3  T
   9    -96.1365225 -0.240487E-08  0.163E-04    1.74      77.8  T
     SCC iter.                  ...        0 min,  0.038 sec
     gradient                   ...        0 min,  0.086 sec
 * total energy  :   -94.8656802 Eh     change       -0.1564298E-01 Eh
   gradient norm :     0.0588883 Eh/α   predicted    -0.1259501E-01 ( -19.48%)
   displ. norm   :     0.4496307 α      lambda       -0.9537558E-02
   maximum displ.:     0.1893818 α      in ANC's #24, #19, #13, ...

........................................................................
.............................. CYCLE    3 ..............................
........................................................................

 iter      E             dE          RMSdq      gap      omega  full diag
   1    -96.1682272 -0.961682E+02  0.140E-01    1.70       0.0  T
   2    -96.1684586 -0.231360E-03  0.852E-02    1.78       1.0  T
   3    -96.1685168 -0.582870E-04  0.500E-02    1.77       1.0  T
   4    -96.1685393 -0.224469E-04  0.155E-02    1.78       1.0  T
   5    -96.1685514 -0.121495E-04  0.431E-03    1.78       2.9  T
   6    -96.1685523 -0.851435E-06  0.176E-03    1.78       7.2  T
   7    -96.1685523 -0.274897E-07  0.737E-04    1.78      17.2  T
   8    -96.1685523 -0.114211E-07  0.222E-04    1.78      57.3  T
     SCC iter.                  ...        0 min,  0.071 sec
     gradient                   ...        0 min,  0.087 sec
 * total energy  :   -94.8716863 Eh     change       -0.6006072E-02 Eh
   gradient norm :     0.0192875 Eh/α   predicted    -0.5732873E-02 (  -4.55%)
   displ. norm   :     0.3556447 α      lambda       -0.2352132E-02
   maximum displ.:     0.1442141 α      in ANC's #19, #13, #24, ...

........................................................................
.............................. CYCLE    4 ..............................
........................................................................

 iter      E             dE          RMSdq      gap      omega  full diag
   1    -96.1785520 -0.961786E+02  0.670E-02    1.75       0.0  T
   2    -96.1785888 -0.368116E-04  0.403E-02    1.78       1.0  T
   3    -96.1785902 -0.143779E-05  0.246E-02    1.78       1.0  T
   4    -96.1786003 -0.100717E-04  0.684E-03    1.78       1.9  T
   5    -96.1786028 -0.254794E-05  0.188E-03    1.78       6.8  T
   6    -96.1786030 -0.146263E-06  0.789E-04    1.78      16.1  T
   7    -96.1786030 -0.642790E-08  0.272E-04    1.78      46.7  T
     SCC iter.                  ...        0 min,  0.030 sec
     gradient                   ...        0 min,  0.086 sec
 * total energy  :   -94.8733777 Eh     change       -0.1691459E-02 Eh
   gradient norm :     0.0140933 Eh/α   predicted    -0.1324869E-02 ( -21.67%)
   displ. norm   :     0.3687125 α      lambda       -0.1330128E-02
   maximum displ.:     0.1561448 α      in ANC's #13, #19, #11, ...

........................................................................
.............................. CYCLE    5 ..............................
........................................................................

 iter      E             dE          RMSdq      gap      omega  full diag
   1    -96.1837531 -0.961838E+02  0.572E-02    1.76       0.0  T
   2    -96.1837687 -0.155293E-04  0.342E-02    1.77       1.0  T
   3    -96.1837628  0.587887E-05  0.173E-02    1.77       1.0  T
   4    -96.1837720 -0.924306E-05  0.435E-03    1.77       2.9  T
   5    -96.1837730 -0.101533E-05  0.150E-03    1.77       8.5  T
   6    -96.1837731 -0.640965E-07  0.698E-04    1.77      18.2  T
   7    -96.1837731 -0.449528E-08  0.223E-04    1.77      56.9  T
     SCC iter.                  ...        0 min,  0.069 sec
     gradient                   ...        0 min,  0.084 sec
 * total energy  :   -94.8742732 Eh     change       -0.8954245E-03 Eh
   gradient norm :     0.0086731 Eh/α   predicted    -0.7554877E-03 ( -15.63%)
   displ. norm   :     0.2741409 α      lambda       -0.5181798E-03
   maximum displ.:     0.1171358 α      in ANC's #9, #13, #11, ...

........................................................................
.............................. CYCLE    6 ..............................
........................................................................

 iter      E             dE          RMSdq      gap      omega  full diag
   1    -96.1853734 -0.961854E+02  0.406E-02    1.76       0.0  T
   2    -96.1853764 -0.298781E-05  0.238E-02    1.76       1.0  T
   3    -96.1853733  0.306441E-05  0.852E-03    1.76       1.5  T
   4    -96.1853771 -0.375066E-05  0.205E-03    1.76       6.2  T
   5    -96.1853773 -0.190086E-06  0.844E-04    1.76      15.0  T
   6    -96.1853773 -0.121282E-07  0.393E-04    1.76      32.4  T
     SCC iter.                  ...        0 min,  0.025 sec
     gradient                   ...        0 min,  0.085 sec
 * total energy  :   -94.8746460 Eh     change       -0.3728979E-03 Eh
   gradient norm :     0.0065164 Eh/α   predicted    -0.2786059E-03 ( -25.29%)
   displ. norm   :     0.2826399 α      lambda       -0.3862096E-03
   maximum displ.:     0.1414034 α      in ANC's #9, #7, #11, ...

........................................................................
.............................. CYCLE    7 ..............................
........................................................................

 iter      E             dE          RMSdq      gap      omega  full diag
   1    -96.1855336 -0.961855E+02  0.451E-02    1.76       0.0  T
   2    -96.1855354 -0.186142E-05  0.264E-02    1.75       1.0  T
   3    -96.1855340  0.138086E-05  0.550E-03    1.75       2.3  T
   4    -96.1855357 -0.167068E-05  0.190E-03    1.75       6.7  T
   5    -96.1855359 -0.157544E-06  0.750E-04    1.75      16.9  T
   6    -96.1855359 -0.579529E-08  0.353E-04    1.75      36.0  T
     SCC iter.                  ...        0 min,  0.064 sec
     gradient                   ...        0 min,  0.048 sec
 * total energy  :   -94.8749305 Eh     change       -0.2844585E-03 Eh
   gradient norm :     0.0065789 Eh/α   predicted    -0.2085394E-03 ( -26.69%)
   displ. norm   :     0.2986693 α      lambda       -0.3445344E-03
   maximum displ.:     0.1541053 α      in ANC's #9, #7, #2, ...

........................................................................
.............................. CYCLE    8 ..............................
........................................................................

 iter      E             dE          RMSdq      gap      omega  full diag
   1    -96.1848667 -0.961849E+02  0.548E-02    1.75       0.0  T
   2    -96.1848688 -0.209965E-05  0.322E-02    1.75       1.0  T
   3    -96.1848650  0.383839E-05  0.869E-03    1.75       1.5  T
   4    -96.1848695 -0.446393E-05  0.190E-03    1.75       6.7  T
   5    -96.1848696 -0.127289E-06  0.824E-04    1.75      15.4  T
   6    -96.1848696 -0.868101E-08  0.392E-04    1.75      32.4  T
     SCC iter.                  ...        0 min,  0.025 sec
     gradient                   ...        0 min,  0.081 sec
 * total energy  :   -94.8751885 Eh     change       -0.2579571E-03 Eh
   gradient norm :     0.0072962 Eh/α   predicted    -0.1876387E-03 ( -27.26%)
   displ. norm   :     0.3185072 α      lambda       -0.3422279E-03
   maximum displ.:     0.1558884 α      in ANC's #9, #2, #7, ...

........................................................................
.............................. CYCLE    9 ..............................
........................................................................

 iter      E             dE          RMSdq      gap      omega  full diag
   1    -96.1839971 -0.961840E+02  0.631E-02    1.74       0.0  T
   2    -96.1839997 -0.259588E-05  0.371E-02    1.74       1.0  T
   3    -96.1839910  0.861988E-05  0.130E-02    1.75       1.0  T
   4    -96.1840010 -0.995868E-05  0.201E-03    1.74       6.3  T
   5    -96.1840011 -0.112332E-06  0.976E-04    1.74      13.0  T
   6    -96.1840011 -0.152111E-07  0.460E-04    1.74      27.6  T
     SCC iter.                  ...        0 min,  0.025 sec
     gradient                   ...        0 min,  0.081 sec
 * total energy  :   -94.8754479 Eh     change       -0.2594544E-03 Eh
   gradient norm :     0.0074116 Eh/α   predicted    -0.1884754E-03 ( -27.36%)
   displ. norm   :     0.3220252 α      lambda       -0.3469202E-03
   maximum displ.:     0.1330818 α      in ANC's #9, #2, #7, ...

........................................................................
.............................. CYCLE   10 ..............................
........................................................................

 iter      E             dE          RMSdq      gap      omega  full diag
   1    -96.1837807 -0.961838E+02  0.662E-02    1.73       0.0  T
   2    -96.1837842 -0.343893E-05  0.387E-02    1.74       1.0  T
   3    -96.1837708  0.133975E-04  0.168E-02    1.74       1.0  T
   4    -96.1837863 -0.155896E-04  0.216E-03    1.74       5.9  T
   5    -96.1837865 -0.131976E-06  0.103E-03    1.74      12.3  T
   6    -96.1837865 -0.171537E-07  0.478E-04    1.74      26.6  T
   7    -96.1837865 -0.345381E-08  0.191E-04    1.74      66.4  T
     SCC iter.                  ...        0 min,  0.068 sec
     gradient                   ...        0 min,  0.086 sec
 * total energy  :   -94.8757028 Eh     change       -0.2548773E-03 Eh
   gradient norm :     0.0064143 Eh/α   predicted    -0.1914517E-03 ( -24.88%)
   displ. norm   :     0.2917283 α      lambda       -0.2570867E-03
   maximum displ.:     0.1302925 α      in ANC's #2, #9, #17, ...

........................................................................
.............................. CYCLE   11 ..............................
........................................................................

 iter      E             dE          RMSdq      gap      omega  full diag
   1    -96.1837332 -0.961837E+02  0.539E-02    1.72       0.0  T
   2    -96.1837357 -0.254655E-05  0.314E-02    1.73       1.0  T
   3    -96.1837254  0.103145E-04  0.151E-02    1.73       1.0  T
   4    -96.1837375 -0.121456E-04  0.186E-03    1.73       6.8  T
   5    -96.1837376 -0.987480E-07  0.897E-04    1.73      14.2  T
   6    -96.1837376 -0.864544E-08  0.406E-04    1.73      31.3  T
     SCC iter.                  ...        0 min,  0.025 sec
     gradient                   ...        0 min,  0.087 sec
 * total energy  :   -94.8758799 Eh     change       -0.1771010E-03 Eh
   gradient norm :     0.0060954 Eh/α   predicted    -0.1394884E-03 ( -21.24%)
   displ. norm   :     0.1845454 α      lambda       -0.1765078E-03
   maximum displ.:     0.0938019 α      in ANC's #2, #17, #12, ...

........................................................................
.............................. CYCLE   12 ..............................
........................................................................

 iter      E             dE          RMSdq      gap      omega  full diag
   1    -96.1862633 -0.961863E+02  0.351E-02    1.72       0.0  T
   2    -96.1862658 -0.255673E-05  0.200E-02    1.72       1.0  T
   3    -96.1862622  0.362765E-05  0.993E-03    1.72       1.3  T
   4    -96.1862667 -0.444161E-05  0.194E-03    1.72       6.5  T
   5    -96.1862668 -0.151332E-06  0.708E-04    1.72      17.9  T
   6    -96.1862668 -0.392501E-08  0.326E-04    1.72      39.0  T
     SCC iter.                  ...        0 min,  0.064 sec
     gradient                   ...        0 min,  0.048 sec
 * total energy  :   -94.8759474 Eh     change       -0.6747629E-04 Eh
   gradient norm :     0.0052962 Eh/α   predicted    -0.9126236E-04 (  35.25%)
   displ. norm   :     0.2066092 α      lambda       -0.1310791E-03
   maximum displ.:     0.0998294 α      in ANC's #2, #7, #9, ...

........................................................................
.............................. CYCLE   13 ..............................
........................................................................

 iter      E             dE          RMSdq      gap      omega  full diag
   1    -96.1841178 -0.961841E+02  0.327E-02    1.71       0.0  T
   2    -96.1841193 -0.150034E-05  0.192E-02    1.71       1.0  T
   3    -96.1841169  0.241077E-05  0.748E-03    1.72       1.7  T
   4    -96.1841198 -0.288423E-05  0.174E-03    1.71       7.3  T
   5    -96.1841199 -0.107112E-06  0.728E-04    1.72      17.4  T
   6    -96.1841199 -0.224399E-08  0.331E-04    1.72      38.3  T
     SCC iter.                  ...        0 min,  0.025 sec
     gradient                   ...        0 min,  0.087 sec
 * total energy  :   -94.8759951 Eh     change       -0.4773097E-04 Eh
   gradient norm :     0.0049779 Eh/α   predicted    -0.6834211E-04 (  43.18%)
   displ. norm   :     0.0827214 α      lambda       -0.5565691E-04
   maximum displ.:     0.0457306 α      in ANC's #9, #17, #7, ...

........................................................................
.............................. CYCLE   14 ..............................
........................................................................

 iter      E             dE          RMSdq      gap      omega  full diag
   1    -96.1856591 -0.961857E+02  0.217E-02    1.72       0.0  T
   2    -96.1856601 -0.101803E-05  0.125E-02    1.72       1.0  T
   3    -96.1856586  0.148192E-05  0.621E-03    1.72       2.0  T
   4    -96.1856604 -0.178266E-05  0.115E-03    1.72      11.1  T
   5    -96.1856605 -0.572881E-07  0.368E-04    1.72      34.5  T
   6    -96.1856605 -0.195701E-08  0.192E-04    1.72      66.2  T
     SCC iter.                  ...        0 min,  0.064 sec
     gradient                   ...        0 min,  0.048 sec
 * total energy  :   -94.8760327 Eh     change       -0.3763739E-04 Eh
   gradient norm :     0.0029786 Eh/α   predicted    -0.2801947E-04 ( -25.55%)
   displ. norm   :     0.0860279 α      lambda       -0.5534771E-04
   maximum displ.:     0.0440405 α      in ANC's #9, #2, #14, ...

........................................................................
.............................. CYCLE   15 ..............................
........................................................................

 iter      E             dE          RMSdq      gap      omega  full diag
   1    -96.1859832 -0.961860E+02  0.185E-02    1.72       0.0  T
   2    -96.1859837 -0.534151E-06  0.106E-02    1.72       1.2  T
   3    -96.1859828  0.898922E-06  0.486E-03    1.72       2.6  T
   4    -96.1859839 -0.108401E-05  0.894E-04    1.72      14.2  T
   5    -96.1859839 -0.346289E-07  0.334E-04    1.72      38.0  T
   6    -96.1859839 -0.177791E-08  0.173E-04    1.72      73.6  T
     SCC iter.                  ...        0 min,  0.025 sec
     gradient                   ...        0 min,  0.077 sec
 * total energy  :   -94.8760738 Eh     change       -0.4110444E-04 Eh
   gradient norm :     0.0019316 Eh/α   predicted    -0.2787921E-04 ( -32.17%)
   displ. norm   :     0.2819077 α      lambda       -0.7286297E-04
   maximum displ.:     0.1549911 α      in ANC's #2, #9, #14, ...

........................................................................
.............................. CYCLE   16 ..............................
........................................................................

 iter      E             dE          RMSdq      gap      omega  full diag
   1    -96.1860702 -0.961861E+02  0.491E-02    1.73       0.0  T
   2    -96.1860729 -0.271027E-05  0.285E-02    1.72       1.0  T
   3    -96.1860679  0.502513E-05  0.107E-02    1.72       1.2  T
   4    -96.1860737 -0.579690E-05  0.206E-03    1.72       6.2  T
   5    -96.1860739 -0.182747E-06  0.737E-04    1.72      17.2  T
   6    -96.1860739 -0.664967E-08  0.361E-04    1.72      35.2  T
     SCC iter.                  ...        0 min,  0.027 sec
     gradient                   ...        0 min,  0.076 sec
 * total energy  :   -94.8761441 Eh     change       -0.7023745E-04 Eh
   gradient norm :     0.0057147 Eh/α   predicted    -0.3772572E-04 ( -46.29%)
   displ. norm   :     0.1769260 α      lambda       -0.6186101E-04
   maximum displ.:     0.1074522 α      in ANC's #2, #4, #14, ...

........................................................................
.............................. CYCLE   17 ..............................
........................................................................

 iter      E             dE          RMSdq      gap      omega  full diag
   1    -96.1853609 -0.961854E+02  0.249E-02    1.72       0.0  T
   2    -96.1853612 -0.286363E-06  0.146E-02    1.72       1.0  T
   3    -96.1853608  0.376369E-06  0.292E-03    1.72       4.4  T
   4    -96.1853613 -0.462543E-06  0.810E-04    1.72      15.7  T
   5    -96.1853613 -0.216184E-07  0.367E-04    1.72      34.6  T
     SCC iter.                  ...        0 min,  0.022 sec
     gradient                   ...        0 min,  0.082 sec
 * total energy  :   -94.8761950 Eh     change       -0.5089369E-04 Eh
   gradient norm :     0.0046770 Eh/α   predicted    -0.3190496E-04 ( -37.31%)
   displ. norm   :     0.3029565 α      lambda       -0.9778979E-04
   maximum displ.:     0.1859887 α      in ANC's #2, #4, #14, ...

........................................................................
.............................. CYCLE   18 ..............................
........................................................................

 iter      E             dE          RMSdq      gap      omega  full diag
   1    -96.1844957 -0.961845E+02  0.469E-02    1.72       0.0  T
   2    -96.1844972 -0.145831E-05  0.275E-02    1.73       1.0  T
   3    -96.1844957  0.152561E-05  0.584E-03    1.72       2.2  T
   4    -96.1844975 -0.180504E-05  0.173E-03    1.73       7.4  T
   5    -96.1844976 -0.131849E-06  0.693E-04    1.73      18.3  T
   6    -96.1844976 -0.501373E-08  0.322E-04    1.73      39.4  T
     SCC iter.                  ...        0 min,  0.061 sec
     gradient                   ...        0 min,  0.085 sec
 * total energy  :   -94.8762579 Eh     change       -0.6290511E-04 Eh
   gradient norm :     0.0036058 Eh/α   predicted    -0.5338344E-04 ( -15.14%)
   displ. norm   :     0.1299395 α      lambda       -0.5147645E-04
   maximum displ.:     0.0810021 α      in ANC's #2, #9, #4, ...

........................................................................
.............................. CYCLE   19 ..............................
........................................................................

 iter      E             dE          RMSdq      gap      omega  full diag
   1    -96.1852768 -0.961853E+02  0.264E-02    1.73       0.0  T
   2    -96.1852777 -0.875941E-06  0.153E-02    1.73       1.0  T
   3    -96.1852771  0.623941E-06  0.406E-03    1.73       3.1  T
   4    -96.1852778 -0.707076E-06  0.134E-03    1.73       9.5  T
   5    -96.1852779 -0.945460E-07  0.414E-04    1.73      30.7  T
   6    -96.1852779 -0.784723E-09  0.219E-04    1.73      58.1  T
     SCC iter.                  ...        0 min,  0.026 sec
     gradient                   ...        0 min,  0.087 sec
 * total energy  :   -94.8762912 Eh     change       -0.3335076E-04 Eh
   gradient norm :     0.0027814 Eh/α   predicted    -0.2617397E-04 ( -21.52%)
   displ. norm   :     0.1996541 α      lambda       -0.4556661E-04
   maximum displ.:     0.1308437 α      in ANC's #2, #14, #4, ...

........................................................................
.............................. CYCLE   20 ..............................
........................................................................

 iter      E             dE          RMSdq      gap      omega  full diag
   1    -96.1853566 -0.961854E+02  0.340E-02    1.73       0.0  T
   2    -96.1853573 -0.763498E-06  0.199E-02    1.73       1.0  T
   3    -96.1853559  0.139871E-05  0.532E-03    1.73       2.4  T
   4    -96.1853575 -0.159834E-05  0.121E-03    1.73      10.5  T
   5    -96.1853576 -0.603248E-07  0.456E-04    1.73      27.9  T
   6    -96.1853576 -0.182889E-08  0.212E-04    1.73      59.9  T
     SCC iter.                  ...        0 min,  0.065 sec
     gradient                   ...        0 min,  0.048 sec
 * total energy  :   -94.8763246 Eh     change       -0.3335552E-04 Eh
   gradient norm :     0.0039547 Eh/α   predicted    -0.2369264E-04 ( -28.97%)
   displ. norm   :     0.2129342 α      lambda       -0.6943849E-04
   maximum displ.:     0.1371016 α      in ANC's #2, #14, #11, ...
 * RMSD in coord.:     0.4207372 α      energy gain  -0.2628738E-01 Eh

generating ANC from exact Hessian ...
Using Lindh-Hessian (1995)
 Shifting diagonal of input Hessian by    9.8675048242825841E-003
 Lowest  eigenvalues of input Hessian
    0.000000    0.000000    0.000000    0.000000    0.000000    0.000000
    0.010000    0.010108    0.010369    0.010489    0.011022    0.011104
    0.011336    0.011753    0.012121    0.012542    0.013520    0.014160
 Highest eigenvalues
    2.119628    2.171735    2.226182    2.299450    2.356654    2.388938


........................................................................
.............................. CYCLE   21 ..............................
........................................................................

 iter      E             dE          RMSdq      gap      omega  full diag
   1    -96.1866128 -0.961866E+02  0.400E-02    1.74       0.0  T
   2    -96.1866141 -0.124261E-05  0.234E-02    1.74       1.0  T
   3    -96.1866112  0.287068E-05  0.761E-03    1.73       1.7  T
   4    -96.1866145 -0.327970E-05  0.143E-03    1.73       8.9  T
   5    -96.1866146 -0.804484E-07  0.540E-04    1.73      23.5  T
   6    -96.1866146 -0.124994E-08  0.267E-04    1.73      47.6  T
     SCC iter.                  ...        0 min,  0.071 sec
     gradient                   ...        0 min,  0.094 sec
 * total energy  :   -94.8763744 Eh     change       -0.4981322E-04 Eh
   gradient norm :     0.0038979 Eh/α   predicted     0.0000000E+00 (-100.00%)
   displ. norm   :     0.0278288 α      lambda       -0.1207473E-04
   maximum displ.:     0.0135980 α      in ANC's #6, #14, #22, ...

........................................................................
.............................. CYCLE   22 ..............................
........................................................................

 iter      E             dE          RMSdq      gap      omega  full diag
   1    -96.1866029 -0.961866E+02  0.736E-03    1.74       0.0  T
   2    -96.1866032 -0.311939E-06  0.417E-03    1.74       3.0  T
   3    -96.1866032  0.344012E-07  0.181E-03    1.73       7.0  T
   4    -96.1866033 -0.538960E-07  0.570E-04    1.73      22.3  T
   5    -96.1866033 -0.164066E-07  0.169E-04    1.73      75.2  T
     SCC iter.                  ...        0 min,  0.024 sec
     gradient                   ...        0 min,  0.093 sec
 * total energy  :   -94.8763952 Eh     change       -0.2075319E-04 Eh
   gradient norm :     0.0021111 Eh/α   predicted    -0.1273791E-04 ( -38.62%)
   displ. norm   :     0.0794115 α      lambda       -0.3857975E-04
   maximum displ.:     0.0421381 α      in ANC's #6, #14, #22, ...

........................................................................
.............................. CYCLE   23 ..............................
........................................................................

 iter      E             dE          RMSdq      gap      omega  full diag
   1    -96.1864073 -0.961864E+02  0.170E-02    1.74       0.0  T
   2    -96.1864084 -0.109095E-05  0.968E-03    1.74       1.3  T
   3    -96.1864081  0.323411E-06  0.398E-03    1.74       3.2  T
   4    -96.1864085 -0.416816E-06  0.116E-03    1.74      10.9  T
   5    -96.1864086 -0.727034E-07  0.344E-04    1.74      37.0  T
   6    -96.1864086 -0.322886E-08  0.163E-04    1.74      77.8  T
     SCC iter.                  ...        0 min,  0.025 sec
     gradient                   ...        0 min,  0.093 sec
 * total energy  :   -94.8764208 Eh     change       -0.2560453E-04 Eh
   gradient norm :     0.0015336 Eh/α   predicted    -0.2048504E-04 ( -19.99%)
   displ. norm   :     0.0887805 α      lambda       -0.1415514E-04
   maximum displ.:     0.0506888 α      in ANC's #6, #14, #11, ...

........................................................................
.............................. CYCLE   24 ..............................
........................................................................

 iter      E             dE          RMSdq      gap      omega  full diag
   1    -96.1862802 -0.961863E+02  0.159E-02    1.74       0.0  T
   2    -96.1862805 -0.265786E-06  0.923E-03    1.74       1.4  T
   3    -96.1862802  0.269713E-06  0.252E-03    1.74       5.0  T
   4    -96.1862805 -0.323508E-06  0.627E-04    1.74      20.3  T
   5    -96.1862805 -0.176100E-07  0.256E-04    1.74      49.5  T
     SCC iter.                  ...        0 min,  0.066 sec
     gradient                   ...        0 min,  0.048 sec
 * total energy  :   -94.8764371 Eh     change       -0.1638230E-04 Eh
   gradient norm :     0.0027357 Eh/α   predicted    -0.7273777E-05 ( -55.60%)
   displ. norm   :     0.0915296 α      lambda       -0.2296368E-04
   maximum displ.:     0.0514835 α      in ANC's #6, #3, #14, ...

........................................................................
.............................. CYCLE   25 ..............................
........................................................................

 iter      E             dE          RMSdq      gap      omega  full diag
   1    -96.1863188 -0.961863E+02  0.163E-02    1.74       0.0  T
   2    -96.1863189 -0.120008E-06  0.956E-03    1.74       1.3  T
   3    -96.1863188  0.716641E-07  0.132E-03    1.74       9.7  T
   4    -96.1863189 -0.104679E-06  0.461E-04    1.74      27.6  T
   5    -96.1863189 -0.679901E-08  0.217E-04    1.74      58.5  T
     SCC iter.                  ...        0 min,  0.021 sec
     gradient                   ...        0 min,  0.093 sec
 * total energy  :   -94.8764567 Eh     change       -0.1960076E-04 Eh
   gradient norm :     0.0024058 Eh/α   predicted    -0.1157874E-04 ( -40.93%)
   displ. norm   :     0.1825996 α      lambda       -0.3846257E-04
   maximum displ.:     0.1038948 α      in ANC's #6, #3, #14, ...

........................................................................
.............................. CYCLE   26 ..............................
........................................................................

 iter      E             dE          RMSdq      gap      omega  full diag
   1    -96.1861886 -0.961862E+02  0.331E-02    1.74       0.0  T
   2    -96.1861891 -0.548680E-06  0.194E-02    1.74       1.0  T
   3    -96.1861890  0.109322E-06  0.215E-03    1.74       5.9  T
   4    -96.1861892 -0.225714E-06  0.948E-04    1.74      13.4  T
   5    -96.1861893 -0.321568E-07  0.452E-04    1.74      28.1  T
     SCC iter.                  ...        0 min,  0.066 sec
     gradient                   ...        0 min,  0.048 sec
 * total energy  :   -94.8764823 Eh     change       -0.2555595E-04 Eh
   gradient norm :     0.0018656 Eh/α   predicted    -0.1987861E-04 ( -22.22%)
   displ. norm   :     0.1356887 α      lambda       -0.1363523E-04
   maximum displ.:     0.0819026 α      in ANC's #6, #3, #13, ...

........................................................................
.............................. CYCLE   27 ..............................
........................................................................

 iter      E             dE          RMSdq      gap      omega  full diag
   1    -96.1864157 -0.961864E+02  0.253E-02    1.74       0.0  T
   2    -96.1864161 -0.326780E-06  0.148E-02    1.74       1.0  T
   3    -96.1864160  0.477256E-07  0.161E-03    1.74       7.9  T
   4    -96.1864161 -0.112753E-06  0.738E-04    1.74      17.2  T
   5    -96.1864162 -0.192476E-07  0.364E-04    1.74      34.9  T
     SCC iter.                  ...        0 min,  0.021 sec
     gradient                   ...        0 min,  0.093 sec
 * total energy  :   -94.8764964 Eh     change       -0.1413786E-04 Eh
   gradient norm :     0.0015496 Eh/α   predicted    -0.6885497E-05 ( -51.30%)
   displ. norm   :     0.0800860 α      lambda       -0.1240346E-04
   maximum displ.:     0.0497358 α      in ANC's #6, #3, #13, ...

........................................................................
.............................. CYCLE   28 ..............................
........................................................................

 iter      E             dE          RMSdq      gap      omega  full diag
   1    -96.1869964 -0.961870E+02  0.155E-02    1.74       0.0  T
   2    -96.1869966 -0.153549E-06  0.902E-03    1.74       1.4  T
   3    -96.1869965  0.113192E-06  0.166E-03    1.74       7.6  T
   4    -96.1869966 -0.141365E-06  0.594E-04    1.74      21.4  T
   5    -96.1869966 -0.146599E-07  0.241E-04    1.74      52.8  T
     SCC iter.                  ...        0 min,  0.060 sec
     gradient                   ...        0 min,  0.048 sec
 * total energy  :   -94.8765102 Eh     change       -0.1375624E-04 Eh
   gradient norm :     0.0012227 Eh/α   predicted    -0.6220225E-05 ( -54.78%)
   displ. norm   :     0.1573418 α      lambda       -0.1556306E-04
   maximum displ.:     0.0936161 α      in ANC's #6, #3, #13, ...

........................................................................
.............................. CYCLE   29 ..............................
........................................................................

 iter      E             dE          RMSdq      gap      omega  full diag
   1    -96.1864642 -0.961865E+02  0.307E-02    1.74       0.0  T
   2    -96.1864645 -0.340315E-06  0.179E-02    1.74       1.0  T
   3    -96.1864632  0.130129E-05  0.501E-03    1.74       2.5  T
   4    -96.1864647 -0.151123E-05  0.794E-04    1.74      16.0  T
   5    -96.1864648 -0.132999E-07  0.417E-04    1.74      30.4  T
   6    -96.1864648 -0.128669E-08  0.152E-04    1.74      83.4  T
     SCC iter.                  ...        0 min,  0.026 sec
     gradient                   ...        0 min,  0.093 sec
 * total energy  :   -94.8765279 Eh     change       -0.1769100E-04 Eh
   gradient norm :     0.0015696 Eh/α   predicted    -0.7867867E-05 ( -55.53%)
   displ. norm   :     0.1776853 α      lambda       -0.1571464E-04
   maximum displ.:     0.1035376 α      in ANC's #6, #3, #13, ...

........................................................................
.............................. CYCLE   30 ..............................
........................................................................

 iter      E             dE          RMSdq      gap      omega  full diag
   1    -96.1862108 -0.961862E+02  0.335E-02    1.74       0.0  T
   2    -96.1862113 -0.466856E-06  0.196E-02    1.74       1.0  T
   3    -96.1862097  0.155034E-05  0.547E-03    1.74       2.3  T
   4    -96.1862115 -0.179543E-05  0.890E-04    1.74      14.3  T
   5    -96.1862115 -0.178018E-07  0.434E-04    1.74      29.2  T
   6    -96.1862115 -0.115391E-08  0.176E-04    1.74      72.2  T
     SCC iter.                  ...        0 min,  0.071 sec
     gradient                   ...        0 min,  0.093 sec
 * total energy  :   -94.8765451 Eh     change       -0.1723098E-04 Eh
   gradient norm :     0.0015472 Eh/α   predicted    -0.7968711E-05 ( -53.75%)
   displ. norm   :     0.1664566 α      lambda       -0.1276740E-04
   maximum displ.:     0.0938168 α      in ANC's #6, #3, #2, ...

........................................................................
.............................. CYCLE   31 ..............................
........................................................................

 iter      E             dE          RMSdq      gap      omega  full diag
   1    -96.1862712 -0.961863E+02  0.322E-02    1.75       0.0  T
   2    -96.1862715 -0.396636E-06  0.188E-02    1.75       1.0  T
   3    -96.1862698  0.171698E-05  0.567E-03    1.74       2.2  T
   4    -96.1862718 -0.197407E-05  0.800E-04    1.74      15.9  T
   5    -96.1862718 -0.114736E-07  0.411E-04    1.74      30.9  T
   6    -96.1862718 -0.894843E-09  0.162E-04    1.74      78.5  T
     SCC iter.                  ...        0 min,  0.026 sec
     gradient                   ...        0 min,  0.087 sec
 * total energy  :   -94.8765581 Eh     change       -0.1296710E-04 Eh
   gradient norm :     0.0013045 Eh/α   predicted    -0.6463247E-05 ( -50.16%)
   displ. norm   :     0.1278338 α      lambda       -0.8518330E-05
   maximum displ.:     0.0718697 α      in ANC's #6, #3, #2, ...

........................................................................
.............................. CYCLE   32 ..............................
........................................................................

 iter      E             dE          RMSdq      gap      omega  full diag
   1    -96.1865205 -0.961865E+02  0.238E-02    1.75       0.0  T
   2    -96.1865208 -0.344485E-06  0.139E-02    1.75       1.0  T
   3    -96.1865205  0.359196E-06  0.278E-03    1.74       4.6  T
   4    -96.1865209 -0.441809E-06  0.801E-04    1.75      15.8  T
   5    -96.1865209 -0.219796E-07  0.355E-04    1.75      35.8  T
     SCC iter.                  ...        0 min,  0.066 sec
     gradient                   ...        0 min,  0.087 sec
 * total energy  :   -94.8765663 Eh     change       -0.8168036E-05 Eh
   gradient norm :     0.0007879 Eh/α   predicted    -0.4292522E-05 ( -47.45%)
   displ. norm   :     0.0749510 α      lambda       -0.4815430E-05
   maximum displ.:     0.0384755 α      in ANC's #6, #3, #2, ...

........................................................................
.............................. CYCLE   33 ..............................
........................................................................

 iter      E             dE          RMSdq      gap      omega  full diag
   1    -96.1868937 -0.961869E+02  0.135E-02    1.74       0.0  T
   2    -96.1868938 -0.990908E-07  0.791E-03    1.75       1.6  T
   3    -96.1868936  0.109986E-06  0.157E-03    1.74       8.1  T
   4    -96.1868938 -0.141109E-06  0.440E-04    1.75      28.9  T
   5    -96.1868938 -0.528472E-08  0.216E-04    1.75      58.9  T
     SCC iter.                  ...        0 min,  0.021 sec
     gradient                   ...        0 min,  0.087 sec
 * total energy  :   -94.8765715 Eh     change       -0.5264636E-05 Eh
   gradient norm :     0.0006377 Eh/α   predicted    -0.2414303E-05 ( -54.14%)
   displ. norm   :     0.0871877 α      lambda       -0.4600221E-05
   maximum displ.:     0.0423892 α      in ANC's #6, #2, #3, ...

........................................................................
.............................. CYCLE   34 ..............................
........................................................................

 iter      E             dE          RMSdq      gap      omega  full diag
   1    -96.1868309 -0.961868E+02  0.152E-02    1.74       0.0  T
   2    -96.1868310 -0.104962E-06  0.886E-03    1.75       1.4  T
   3    -96.1868309  0.879985E-07  0.148E-03    1.74       8.6  T
   4    -96.1868310 -0.122775E-06  0.460E-04    1.74      27.6  T
   5    -96.1868310 -0.511839E-08  0.224E-04    1.74      56.8  T
     SCC iter.                  ...        0 min,  0.060 sec
     gradient                   ...        0 min,  0.048 sec
 * total energy  :   -94.8765765 Eh     change       -0.5013564E-05 Eh
   gradient norm :     0.0007881 Eh/α   predicted    -0.2310258E-05 ( -53.92%)
   displ. norm   :     0.0808871 α      lambda       -0.5428409E-05
   maximum displ.:     0.0462182 α      in ANC's #2, #3, #11, ...

........................................................................
.............................. CYCLE   35 ..............................
........................................................................

 iter      E             dE          RMSdq      gap      omega  full diag
   1    -96.1874320 -0.961874E+02  0.117E-02    1.74       0.0  T
   2    -96.1874322 -0.136468E-06  0.677E-03    1.74       1.9  T
   3    -96.1874321  0.230875E-07  0.116E-03    1.74      11.0  T
   4    -96.1874322 -0.537707E-07  0.449E-04    1.74      28.3  T
   5    -96.1874322 -0.438270E-08  0.220E-04    1.74      57.8  T
     SCC iter.                  ...        0 min,  0.053 sec
     gradient                   ...        0 min,  0.048 sec
 * total energy  :   -94.8765813 Eh     change       -0.4735951E-05 Eh
   gradient norm :     0.0012309 Eh/α   predicted    -0.2722502E-05 ( -42.51%)
   displ. norm   :     0.0839545 α      lambda       -0.4104237E-05
   maximum displ.:     0.0436719 α      in ANC's #2, #3, #6, ...

........................................................................
.............................. CYCLE   36 ..............................
........................................................................

 iter      E             dE          RMSdq      gap      omega  full diag
   1    -96.1869984 -0.961870E+02  0.137E-02    1.74       0.0  T
   2    -96.1869985 -0.884957E-07  0.797E-03    1.74       1.6  T
   3    -96.1869984  0.160259E-06  0.185E-03    1.74       6.8  T
   4    -96.1869986 -0.200713E-06  0.410E-04    1.74      31.0  T
   5    -96.1869986 -0.299164E-08  0.202E-04    1.74      62.8  T
     SCC iter.                  ...        0 min,  0.021 sec
     gradient                   ...        0 min,  0.087 sec
 * total energy  :   -94.8765860 Eh     change       -0.4688168E-05 Eh
   gradient norm :     0.0007276 Eh/α   predicted    -0.2059053E-05 ( -56.08%)
   displ. norm   :     0.0799531 α      lambda       -0.3846309E-05
   maximum displ.:     0.0453072 α      in ANC's #2, #3, #1, ...

   *** GEOMETRY OPTIMIZATION CONVERGED AFTER 36 ITERATIONS ***

------------------------------------------------------------------------
 total energy gain   :        -0.0265487 Eh      -16.6596 kcal/mol
 total RMSD          :         0.5131172 a0        0.2715 Å
 total power (kW/mol):        -1.9362143 (step)  -12.9515 (real)
------------------------------------------------------------------------

 ANCopt (total)                0 d,  0 h,  0 min,  5.382 sec
 optimizer setup                ...        0 min,  0.000 sec (  0.002%)
 model hessian                  ...        0 min,  0.105 sec (  1.945%)
 ANC generation                 ...        0 min,  0.007 sec (  0.123%)
 coordinate transformation      ...        0 min,  0.001 sec (  0.017%)
 single point calculation       ...        0 min,  5.215 sec ( 96.893%)
 optimization log               ...        0 min,  0.047 sec (  0.877%)
 hessian update                 ...        0 min,  0.001 sec (  0.017%)
 rational function              ...        0 min,  0.004 sec (  0.075%)

================
 final structure:
================
62
 xtb: 6.7.1 (edcfbbe)
C           -7.11364911356815       -0.06668386675033       -0.92170653399604
C           -6.33378624435493        0.76270506055944       -1.89895911722799
C           -4.85515568923307        0.52717941330640       -1.89985625250919
C           -4.17771050714394        0.27021131417868       -3.05620076804954
C           -4.84368131845624        0.16660315598779       -4.39113574464507
C           -2.77056614418298        0.03811093298267       -2.98127805195878
C           -1.94890515397177       -0.30337425695893       -4.06735837596224
N           -0.66319056114280       -0.50900019629849       -3.96019961322402
C           -0.12104642286836       -0.38750208572852       -2.73034865922671
N            1.20209544801805       -0.63860771705928       -2.69502531163548
C            2.11598033613697       -0.64189137496089       -1.65122170778585
N            3.37308541611319       -0.80304206457850       -2.05316951954499
C            4.34039463442163       -0.81903475443338       -1.16210787029443
C            4.13633720351454       -0.67720515168667        0.22087016471372
C            2.79913115309404       -0.53424668935826        0.62869857965167
C            1.78433401540628       -0.51680281327179       -0.30364702920282
N            5.16664172728554       -0.70321541701551        1.11833333466202
C            6.49824923201618       -1.12114588908372        0.73638204866237
C            7.24995446913062       -1.61452055624769        1.96879825311315
N            7.44962225024214       -0.52519650886801        2.91607151651305
C            6.37669028824024        0.45473450093585        2.87660542380129
C            5.03333730748037       -0.14628754056273        2.44746941835495
N           -0.78822205738584       -0.05129103580362       -1.63237048645692
C           -2.09717213896994        0.17007771634998       -1.74355676509782
N           -2.78630629169049        0.52878995881004       -0.62651292394020
C           -2.04096920528691        0.75509241448469        0.61082531292560
C           -2.27204966502439       -0.34307523263353        1.66154234547560
C           -2.11013688434555        0.38846113411435        2.98961375691661
C           -2.81781816219069        1.71411221213168        2.72441887982563
C           -2.37178974503284        2.09123275152233        1.30953020147535
C           -4.17633316562993        0.63071677196286       -0.60977567741758
O           -4.75516540442951        0.82728875480978        0.44503621225841
O           -6.85400305492440        1.55866544205079       -2.64604350302681
H           -8.17894903971432        0.08700098552181       -1.07004678676125
H           -6.86128601891922       -1.11851241475000       -1.03719599055806
H           -6.82869319481894        0.23731762276531        0.08408760512547
H           -5.90261292789517        0.38866389094260       -4.32406036874096
H           -4.39091262196429        0.87507846183734       -5.08287654780530
H           -4.71363762598940       -0.83607219084929       -4.79786210802156
H           -2.35484244323375       -0.41283388651384       -5.06347687338627
H            1.61639867126961       -0.82578711022018       -3.60029624997258
H            5.33026301361565       -0.93931913705155       -1.57758128492140
H            2.55104159649556       -0.45860958060277        1.67610175399448
H            0.75466398738503       -0.42622325290407       -0.00890441569594
H            6.42023995891039       -1.94403147545931        0.02121400470816
H            7.06391799621390       -0.30376912559374        0.26767870000003
H            8.23347304862212       -1.99049135910586        1.67054088407252
H            6.68420800403355       -2.45431642189897        2.40220250702737
H            7.56605178658420       -0.90346239917416        3.84870141010632
H            6.65303695757933        1.23301061629824        2.15545662737635
H            6.27683670038934        0.92789842953731        3.85442805138917
H            4.72319021861025       -0.91761974325684        3.16937279048870
H            4.27646999842809        0.64240916681359        2.44087231118543
H           -0.99536794919285        0.76027327871698        0.30241787046885
H           -1.57969736211774       -1.17548677363329        1.53771863963058
H           -3.29152281743817       -0.71765685774001        1.57811467005296
H           -2.54533601126367       -0.16157348740592        3.82223296335768
H           -1.05204038919994        0.55958432500170        3.19914012286742
H           -2.56768949849168        2.48222689377254        3.45460282021295
H           -3.89520895883296        1.55538511637222        2.73107369511974
H           -1.47538674257309        2.71212241771987        1.34141944487509
H           -3.14480488776804        2.64363562797034        0.78060221665774

 Bond Distances (Angstroems)
 ---------------------------
C1-C2=1.5004         C1-H34=1.0865        C1-H35=1.0878        C1-H36=1.0887        C2-C1=1.5004         C2-C3=1.4973         
C2-O33=1.2093        C3-C2=1.4973         C3-C4=1.3646         C3-C31=1.4614        C4-C3=1.3646         C4-C5=1.4954         
C4-C6=1.4281         C5-C4=1.4954         C5-H37=1.0840        C5-H38=1.0888        C5-H39=1.0898        C6-C4=1.4281         
C6-C7=1.4040         C6-C24=1.4152        C7-C6=1.4040         C7-N8=1.3065         C7-H40=1.0812        N8-C7=1.3065         
N8-C9=1.3495         C9-N8=1.3495         C9-N10=1.3472        C9-N23=1.3281        N10-C9=1.3472        N10-C11=1.3873       
N10-H41=1.0130       C11-N10=1.3873       C11-N12=1.3296       C11-C16=1.3934       N12-C11=1.3296       N12-C13=1.3153       
C13-N12=1.3153       C13-C14=1.4051       C13-H42=1.0802       C14-C13=1.4051       C14-C15=1.4053       C14-N17=1.3666       
C15-C14=1.4053       C15-C16=1.3782       C15-H43=1.0790       C16-C11=1.3934       C16-C15=1.3782       C16-H44=1.0748       
N17-C14=1.3666       N17-C18=1.4470       N17-C22=1.4473       C18-N17=1.4470       C18-C19=1.5256       C18-H45=1.0930       
C18-H46=1.0990       C19-C18=1.5256       C19-N20=1.4573       C19-H47=1.0944       C19-H48=1.1014       N20-C19=1.4573       
N20-C21=1.4536       N20-H49=1.0131       C21-N20=1.4536       C21-C22=1.5330       C21-H50=1.0964       C21-H51=1.0909       
C22-N17=1.4473       C22-C21=1.5330       C22-H52=1.1010       C22-H53=1.0931       N23-C9=1.3281        N23-C24=1.3322       
C24-C6=1.4152        C24-N23=1.3322       C24-N25=1.3606       N25-C24=1.3606       N25-C26=1.4621       N25-C31=1.3939       
C26-N25=1.4621       C26-C27=1.5373       C26-C30=1.5437       C26-H54=1.0901       C27-C26=1.5373       C27-C28=1.5248       
C27-H55=1.0898       C27-H56=1.0893       C28-C27=1.5248       C28-C29=1.5259       C28-H57=1.0887       C28-H58=1.0921       
C29-C28=1.5259       C29-C30=1.5307       C29-H59=1.0889       C29-H60=1.0890       C30-C26=1.5437       C30-C29=1.5307       
C30-H61=1.0909       C30-H62=1.0874       C31-C3=1.4614        C31-N25=1.3939       C31-O32=1.2191       O32-C31=1.2191       
O33-C2=1.2093        H34-C1=1.0865        H35-C1=1.0878        H36-C1=1.0887        H37-C5=1.0840        H38-C5=1.0888        
H39-C5=1.0898        H40-C7=1.0812        H41-N10=1.0130       H42-C13=1.0802       H43-C15=1.0790       H44-C16=1.0748       
H45-C18=1.0930       H46-C18=1.0990       H47-C19=1.0944       H48-C19=1.1014       H49-N20=1.0131       H50-C21=1.0964       
H51-C21=1.0909       H52-C22=1.1010       H53-C22=1.0931       H54-C26=1.0901       H55-C27=1.0898       H56-C27=1.0893       
H57-C28=1.0887       H58-C28=1.0921       H59-C29=1.0889       H60-C29=1.0890       H61-C30=1.0909       H62-C30=1.0874       
 C  H  Rav=1.0895 sigma=0.0061  Rmin=1.0748  Rmax=1.1014    27
 C  C  Rav=1.4668 sigma=0.0615  Rmin=1.3646  Rmax=1.5437    19
 N  H  Rav=1.0131 sigma=0.0001  Rmin=1.0130  Rmax=1.0131     2
 N  C  Rav=1.3803 sigma=0.0542  Rmin=1.3065  Rmax=1.4621    16
 O  C  Rav=1.2142 sigma=0.0049  Rmin=1.2093  Rmax=1.2191     2

 selected bond angles (degree)
 --------------------
H34-C1-C2=110.03               H35-C1-C2=110.17               H35-C1-H34=110.47              H36-C1-C2=108.14               
H36-C1-H34=110.08              H36-C1-H35=107.90              C3-C2-C1=115.26                O33-C2-C1=122.86               
O33-C2-C3=121.87               C4-C3-C2=121.36                C31-C3-C2=116.55               C31-C3-C4=122.06               
C5-C4-C3=123.26                C6-C4-C3=118.38                C6-C4-C5=118.32                H37-C5-C4=111.44               
H38-C5-C4=109.69               H38-C5-H37=108.19              H39-C5-C4=110.11               H39-C5-H37=109.15              
H39-C5-H38=108.18              C7-C6-C4=125.14                C24-C6-C4=119.97               C24-C6-C7=114.88               
N8-C7-C6=123.42                H40-C7-C6=121.17               H40-C7-N8=115.41               C9-N8-C7=117.12                
N10-C9-N8=113.68               N23-C9-N8=125.06               N23-C9-N10=121.26              C11-N10-C9=131.85              
H41-N10-C9=114.37              H41-N10-C11=113.74             

 selected dihedral angles (degree)
 ---------------------------------
C3-C2-C1-H34=186.46           C3-C2-C1-H35=308.49           C3-C2-C1-H36= 66.20           O33-C2-C1-H34=  5.79          
O33-C2-C1-H35=127.83          O33-C2-C1-H36=245.53          C4-C3-C2-C1=128.79            C4-C3-C2-O33=309.45           
C31-C3-C2-C1=306.85           C31-C3-C2-O33=127.51          C5-C4-C3-C2=358.32            C5-C4-C3-C31=180.37           
C6-C4-C3-C2=180.79            C6-C4-C3-C31=  2.84           H37-C5-C4-C3=  3.97           H37-C5-C4-C6=181.50           
H38-C5-C4-C3=123.76           H38-C5-C4-C6=301.29           H39-C5-C4-C3=242.69           H39-C5-C4-C6= 60.22           
C7-C6-C4-C3=176.66            C7-C6-C4-C5=359.01            C24-C6-C4-C3=355.57           C24-C6-C4-C5=177.93           
N8-C7-C6-C4=180.03            N8-C7-C6-C24=  1.07           H40-C7-C6-C4=  0.07           H40-C7-C6-C24=181.11          
C9-N8-C7-C6=  0.34            C9-N8-C7-H40=180.30           N10-C9-N8-C7=178.81           N23-C9-N8-C7=358.63           
C11-N10-C9-N8=180.97          C11-N10-C9-N23=  1.14         H41-N10-C9-N8=  3.64          H41-N10-C9-N23=183.81         
           -------------------------------------------------
          |                Final Singlepoint                |
           -------------------------------------------------

          ...................................................
          :                      SETUP                      :
          :.................................................:
          :  # basis functions                 161          :
          :  # atomic orbitals                 161          :
          :  # shells                           95          :
          :  # electrons                       172          :
          :  max. iterations                   250          :
          :  Hamiltonian                  GFN2-xTB          :
          :  restarted?                      false          :
          :  GBSA solvation                  false          :
          :  PC potential                    false          :
          :  electronic temp.          300.0000000     K    :
          :  accuracy                    1.0000000          :
          :  -> integral cutoff          0.2500000E+02      :
          :  -> integral neglect         0.1000000E-07      :
          :  -> SCF convergence          0.1000000E-05 Eh   :
          :  -> wf. convergence          0.1000000E-03 e    :
          :  Broyden damping             0.4000000          :
          :  net charge                          0          :
          :  unpaired electrons                  0          :
          ...................................................

 iter      E             dE          RMSdq      gap      omega  full diag
   1    -96.1869986 -0.961870E+02  0.710E-05    1.74       0.0  T
   2    -96.1869986 -0.932658E-10  0.475E-05    1.74     267.6  T
   3    -96.1869986 -0.852509E-10  0.236E-05    1.74     537.8  T

   *** convergence criteria satisfied after 3 iterations ***

         #    Occupation            Energy/Eh            Energy/eV
      -------------------------------------------------------------
         1        2.0000           -0.7021152             -19.1055
       ...           ...                  ...                  ...
        80        2.0000           -0.3984145             -10.8414
        81        2.0000           -0.3892678             -10.5925
        82        2.0000           -0.3843903             -10.4598
        83        2.0000           -0.3750967             -10.2069
        84        2.0000           -0.3726439             -10.1402
        85        2.0000           -0.3690901             -10.0435
        86        2.0000           -0.3511025              -9.5540 (HOMO)
        87                         -0.2870100              -7.8099 (LUMO)
        88                         -0.2586546              -7.0384
        89                         -0.2427638              -6.6059
        90                         -0.2357166              -6.4142
        91                         -0.2262103              -6.1555
       ...                                ...                  ...
       161                          0.6936183              18.8743
      -------------------------------------------------------------
                  HL-Gap            0.0640925 Eh            1.7440 eV
             Fermi-level           -0.3190562 Eh           -8.6820 eV

 SCC (total)                   0 d,  0 h,  0 min,  0.116 sec
 SCC setup                      ...        0 min,  0.001 sec (  0.543%)
 Dispersion                     ...        0 min,  0.001 sec (  0.686%)
 classical contributions        ...        0 min,  0.000 sec (  0.259%)
 integral evaluation            ...        0 min,  0.013 sec ( 11.223%)
 iterations                     ...        0 min,  0.013 sec ( 11.356%)
 molecular gradient             ...        0 min,  0.088 sec ( 75.655%)
 printout                       ...        0 min,  0.000 sec (  0.271%)

         :::::::::::::::::::::::::::::::::::::::::::::::::::::
         ::                     SUMMARY                     ::
         :::::::::::::::::::::::::::::::::::::::::::::::::::::
         :: total energy             -94.876585953687 Eh    ::
         :: gradient norm              0.000727485642 Eh/a0 ::
         :: HOMO-LUMO gap              1.744044430826 eV    ::
         ::.................................................::
         :: SCC energy               -96.186923562346 Eh    ::
         :: -> isotropic ES            0.109764209307 Eh    ::
         :: -> anisotropic ES          0.006941918822 Eh    ::
         :: -> anisotropic XC          0.052605911600 Eh    ::
         :: -> dispersion             -0.071472235099 Eh    ::
         :: repulsion energy           1.310337608658 Eh    ::
         :: add. restraining           0.000000000000 Eh    ::
         :: total charge              -0.000000000000 e     ::
         :::::::::::::::::::::::::::::::::::::::::::::::::::::

           -------------------------------------------------
          |                Property Printout                |
           -------------------------------------------------

    * Orbital Energies and Occupations

         #    Occupation            Energy/Eh            Energy/eV
      -------------------------------------------------------------
         1        2.0000           -0.7021152             -19.1055
       ...           ...                  ...                  ...
        74        2.0000           -0.4325768             -11.7710
        75        2.0000           -0.4317922             -11.7497
        76        2.0000           -0.4221664             -11.4877
        77        2.0000           -0.4183563             -11.3841
        78        2.0000           -0.4160192             -11.3205
        79        2.0000           -0.4071433             -11.0789
        80        2.0000           -0.3984145             -10.8414
        81        2.0000           -0.3892678             -10.5925
        82        2.0000           -0.3843903             -10.4598
        83        2.0000           -0.3750967             -10.2069
        84        2.0000           -0.3726439             -10.1402
        85        2.0000           -0.3690901             -10.0435
        86        2.0000           -0.3511025              -9.5540 (HOMO)
        87                         -0.2870100              -7.8099 (LUMO)
        88                         -0.2586546              -7.0384
        89                         -0.2427638              -6.6059
        90                         -0.2357166              -6.4142
        91                         -0.2262103              -6.1555
        92                         -0.2006977              -5.4613
        93                         -0.1574466              -4.2843
        94                         -0.0997560              -2.7145
        95                         -0.0878052              -2.3893
        96                         -0.0225756              -0.6143
        97                         -0.0178381              -0.4854
       ...                                ...                  ...
       161                          0.6936183              18.8743
      -------------------------------------------------------------
                  HL-Gap            0.0640925 Eh            1.7440 eV
             Fermi-level           -0.3190562 Eh           -8.6820 eV

     #   Z          covCN         q      C6AA      α(0)
     1   6 C        3.754    -0.141    23.273     6.879
     2   6 C        2.817     0.252    22.779     7.820
     3   6 C        2.964    -0.071    29.771     8.950
     4   6 C        2.958     0.033    27.264     8.564
     5   6 C        3.758    -0.115    22.747     6.800
     6   6 C        2.979    -0.052    29.293     8.878
     7   6 C        2.919     0.078    26.261     8.404
     8   7 N        1.851    -0.289    28.343     7.890
     9   6 C        2.881     0.240    22.995     7.861
    10   7 N        2.726    -0.133    23.892     7.260
    11   6 C        2.889     0.138    24.998     8.197
    12   7 N        1.852    -0.254    27.462     7.767
    13   6 C        2.906     0.028    27.368     8.578
    14   6 C        2.904     0.045    26.994     8.519
    15   6 C        2.933    -0.045    29.130     8.851
    16   6 C        2.911    -0.059    29.473     8.902
    17   7 N        2.741    -0.101    23.212     7.156
    18   6 C        3.748     0.001    20.632     6.478
    19   6 C        3.745     0.014    20.409     6.444
    20   7 N        2.678    -0.257    26.677     7.671
    21   6 C        3.746     0.008    20.507     6.460
    22   6 C        3.746     0.001    20.636     6.480
    23   7 N        1.846    -0.313    28.973     7.977
    24   6 C        2.924     0.163    24.490     8.115
    25   7 N        2.749    -0.073    22.659     7.070
    26   6 C        3.821     0.039    19.899     6.348
    27   6 C        3.828    -0.060    21.631     6.618
    28   6 C        3.829    -0.056    21.551     6.605
    29   6 C        3.829    -0.061    21.640     6.619
    30   6 C        3.820    -0.057    21.586     6.612
    31   6 C        2.774     0.267    22.500     7.769
    32   8 O        0.859    -0.436    22.410     6.347
    33   8 O        0.857    -0.367    21.034     6.149
    34   1 H        0.925     0.064     2.152     2.294
    35   1 H        0.925     0.057     2.231     2.336
    36   1 H        0.925     0.104     1.746     2.067
    37   1 H        0.925     0.071     2.076     2.253
    38   1 H        0.925     0.062     2.171     2.304
    39   1 H        0.925     0.053     2.279     2.361
    40   1 H        0.926     0.051     2.311     2.377
    41   1 H        0.860     0.214     1.040     1.597
    42   1 H        0.926     0.035     2.521     2.483
    43   1 H        0.926     0.032     2.557     2.501
    44   1 H        0.926     0.060     2.195     2.317
    45   1 H        0.924     0.047     2.361     2.403
    46   1 H        0.923     0.043     2.406     2.426
    47   1 H        0.924     0.043     2.410     2.428
    48   1 H        0.923     0.019     2.752     2.595
    49   1 H        0.860     0.137     1.493     1.914
    50   1 H        0.924     0.045     2.388     2.417
    51   1 H        0.924     0.037     2.492     2.468
    52   1 H        0.923     0.031     2.577     2.511
    53   1 H        0.924     0.043     2.407     2.426
    54   1 H        0.925     0.065     2.138     2.287
    55   1 H        0.925     0.029     2.602     2.522
    56   1 H        0.925     0.056     2.243     2.342
    57   1 H        0.925     0.036     2.509     2.477
    58   1 H        0.924     0.030     2.593     2.518
    59   1 H        0.925     0.031     2.574     2.509
    60   1 H        0.925     0.061     2.183     2.311
    61   1 H        0.924     0.030     2.580     2.512
    62   1 H        0.925     0.049     2.330     2.387

 Mol. C6AA /au·bohr⁶  :      42323.555580
 Mol. C8AA /au·bohr⁸  :     982296.465094
 Mol. α(0) /au        :        315.378388


Wiberg/Mayer (AO) data.
largest (>0.10) Wiberg bond orders for each atom

 ---------------------------------------------------------------------------
     #   Z sym  total        # sym  WBO       # sym  WBO       # sym  WBO
 ---------------------------------------------------------------------------
     1   6 C    3.990 --     2 C    1.013    34 H    0.982    35 H    0.964
                            36 H    0.936
     2   6 C    3.919 --    33 O    1.831     1 C    1.013     3 C    0.996
     3   6 C    3.960 --     4 C    1.579    31 C    1.080     2 C    0.996
     4   6 C    3.976 --     3 C    1.579     6 C    1.178     5 C    1.033
     5   6 C    3.992 --     4 C    1.033    37 H    0.978    39 H    0.965
                            38 H    0.964
     6   6 C    3.969 --     7 C    1.311    24 C    1.232     4 C    1.178
     7   6 C    3.954 --     8 N    1.519     6 C    1.311    40 H    0.958
     8   7 N    3.022 --     7 C    1.519     9 C    1.245
     9   6 C    3.956 --    23 N    1.330     8 N    1.245    10 N    1.228
    10   7 N    3.502 --     9 C    1.228    11 C    1.084    41 H    0.919
    11   6 C    3.953 --    12 N    1.356    16 C    1.331    10 N    1.084
    12   7 N    3.051 --    13 C    1.463    11 C    1.356
    13   6 C    3.978 --    12 N    1.463    14 C    1.306    42 H    0.960
    14   6 C    3.958 --    15 C    1.313    13 C    1.306    17 N    1.174
    15   6 C    3.989 --    16 C    1.489    14 C    1.313    43 H    0.966
    16   6 C    3.979 --    15 C    1.489    11 C    1.331    44 H    0.956
    17   7 N    3.395 --    14 C    1.174    18 C    0.995    22 C    0.993
    18   6 C    3.981 --    19 C    1.004    17 N    0.995    45 H    0.968
                            46 H    0.964
    19   6 C    3.988 --    20 N    1.010    18 C    1.004    47 H    0.971
                            48 H    0.971
    20   7 N    3.062 --    21 C    1.016    19 C    1.010    49 H    0.961
    21   6 C    3.986 --    20 N    1.016    22 C    0.991    51 H    0.976
                            50 H    0.970
    22   6 C    3.981 --    17 N    0.993    21 C    0.991    53 H    0.968
                            52 H    0.966
    23   7 N    3.033 --    24 C    1.345     9 C    1.330
    24   6 C    3.965 --    23 N    1.345     6 C    1.232    25 N    1.197
    25   7 N    3.595 --    24 C    1.197    31 C    1.104    26 C    0.955
                            32 O    0.136
    26   6 C    3.950 --    27 C    0.982    30 C    0.982    25 N    0.955
                            54 H    0.954
    27   6 C    3.993 --    28 C    1.007    26 C    0.982    55 H    0.980
                            56 H    0.974
    28   6 C    3.997 --    29 C    1.007    27 C    1.007    58 H    0.980
                            57 H    0.979
    29   6 C    3.994 --    28 C    1.007    30 C    1.006    59 H    0.980
                            60 H    0.977
    30   6 C    3.994 --    29 C    1.006    26 C    0.982    61 H    0.981
                            62 H    0.977
    31   6 C    3.951 --    32 O    1.646    25 N    1.104     3 C    1.080
    32   8 O    1.975 --    31 C    1.646    25 N    0.136
    33   8 O    2.057 --     2 C    1.831
    34   1 H    0.995 --     1 C    0.982
    35   1 H    0.996 --     1 C    0.964
    36   1 H    0.989 --     1 C    0.936
    37   1 H    0.995 --     5 C    0.978
    38   1 H    0.994 --     5 C    0.964
    39   1 H    0.995 --     5 C    0.965
    40   1 H    0.996 --     7 C    0.958
    41   1 H    0.953 --    10 N    0.919
    42   1 H    0.998 --    13 C    0.960
    43   1 H    0.998 --    15 C    0.966
    44   1 H    0.996 --    16 C    0.956
    45   1 H    0.997 --    18 C    0.968
    46   1 H    0.995 --    18 C    0.964
    47   1 H    0.998 --    19 C    0.971
    48   1 H    1.000 --    19 C    0.971
    49   1 H    0.981 --    20 N    0.961
    50   1 H    0.998 --    21 C    0.970
[...]
    1    6 C      1-7, 9, 11, 13-16, 18, 19, 21, 22, 24, 26-31
    2    7 N      8, 10, 12, 17, 20, 23, 25
    3    8 O      32, 33
    4    1 H      34-62

           -------------------------------------------------
          |                Calculation Setup                |
           -------------------------------------------------

          program call               : xtb /rds/general/user/hgt20/home/callum/QDESCP/Palbociclib_rdkit_conf_20/Palbociclib_rdkit_conf_20.xyz --acc 1 --gfn 2 --chrg 0 --uhf 2 --etemp 300 --input /rds/general/user/hgt20/home/callum/QDESCP/Palbociclib_rdkit_conf_20/Palbociclib_rdkit_conf_20_xtb.inp -P 1
          hostname                   : login-c
          coordinate file            : /rds/general/user/hgt20/home/callum/QDESCP/Palbociclib_rdkit_conf_20/Palbociclib_rdkit_conf_20.xyz
          omp threads                :                     1


           -------------------------------------------------
          |                 G F N 2 - x T B                 |
           -------------------------------------------------

        Reference                      10.1021/acs.jctc.8b01176
      * Hamiltonian:
        H0-scaling (s, p, d)           1.850000    2.230000    2.230000
        zeta-weighting                 0.500000
      * Dispersion:
        s8                             2.700000
        a1                             0.520000
        a2                             5.000000
        s9                             5.000000
      * Repulsion:
        kExp                           1.500000    1.000000
        rExp                           1.000000
      * Coulomb:
        alpha                          2.000000
        third order                    shell-resolved
        anisotropic                    true
        a3                             3.000000
        a5                             4.000000
        cn-shift                       1.200000
        cn-exp                         4.000000
        max-rad                        5.000000


          ...................................................
          :                      SETUP                      :
          :.................................................:
          :  # basis functions                 161          :
          :  # atomic orbitals                 161          :
          :  # shells                           95          :
          :  # electrons                       172          :
          :  max. iterations                   250          :
          :  Hamiltonian                  GFN2-xTB          :
          :  restarted?                      false          :
          :  GBSA solvation                  false          :
          :  PC potential                    false          :
          :  electronic temp.          300.0000000     K    :
          :  accuracy                    1.0000000          :
          :  -> integral cutoff          0.2500000E+02      :
          :  -> integral neglect         0.1000000E-07      :
          :  -> SCF convergence          0.1000000E-05 Eh   :
          :  -> wf. convergence          0.1000000E-03 e    :
          :  Broyden damping             0.4000000          :
          :  net charge                          0          :
          :  unpaired electrons                  2          :
          ...................................................

 iter      E             dE          RMSdq      gap      omega  full diag
   1    -95.8188214 -0.958188E+02  0.380E+00    0.84       0.0  T
   2    -95.6772244  0.141597E+00  0.283E+00    0.51       1.0  T
   3    -95.7966558 -0.119431E+00  0.199E+00    0.85       1.0  T
   4    -96.0434995 -0.246844E+00  0.108E+00    0.26       1.0  T
   5    -96.0248878  0.186117E-01  0.853E-01    0.53       1.0  T
   6    -96.0346156 -0.972785E-02  0.731E-01    0.56       1.0  T
   7    -96.0713986 -0.367830E-01  0.449E-01    0.39       1.0  T
   8    -96.0830489 -0.116503E-01  0.354E-01    0.51       1.0  T
   9    -96.0962610 -0.132122E-01  0.222E-01    0.34       1.0  T
  10    -96.0983918 -0.213074E-02  0.934E-02    0.32       1.0  T
  11    -96.0990029 -0.611168E-03  0.700E-02    0.34       1.0  T
  12    -96.0991982 -0.195237E-03  0.346E-02    0.33       1.0  T
  13    -96.0991598  0.383636E-04  0.378E-02    0.32       1.0  T
  14    -96.0993296 -0.169792E-03  0.829E-03    0.32       1.5  T
  15    -96.0993397 -0.101180E-04  0.306E-03    0.33       4.1  T
  16    -96.0993403 -0.594933E-06  0.198E-03    0.33       6.4  T
  17    -96.0993405 -0.223283E-06  0.963E-04    0.33      13.2  T
  18    -96.0993406 -0.967417E-07  0.444E-04    0.33      28.6  T

   *** convergence criteria satisfied after 18 iterations ***

         #    Occupation            Energy/Eh            Energy/eV
      -------------------------------------------------------------
         1        2.0000           -0.6957808             -18.9332
       ...           ...                  ...                  ...
        81        2.0000           -0.3851991             -10.4818
        82        2.0000           -0.3831074             -10.4249
        83        2.0000           -0.3785506             -10.3009
        84        1.9148           -0.3677667             -10.0074
        85        1.8326           -0.3670353              -9.9875
        86        1.2526           -0.3644808              -9.9180
        87        0.9982           -0.2684697              -7.3054 (HOMO)
        88        0.0018           -0.2564760              -6.9791 (LUMO)
        89                         -0.2453586              -6.6765
        90                         -0.2320298              -6.3139
        91                         -0.2125570              -5.7840
        92                         -0.1969083              -5.3581
       ...                                ...                  ...
       161                          0.7135286              19.4161
      -------------------------------------------------------------
                  HL-Gap            0.0119937 Eh            0.3264 eV
             Fermi-level           -0.3139921 Eh           -8.5442 eV

 transition dipole moment (au) for excitation:          86          87
     X       Y       Z   
  -2.4010   0.4303   0.2659  total (au/Debye):    2.454   6.237
 dE (eV)             :    2.613
 oscillator strength :  0.54499E+00

 SCC (total)                   0 d,  0 h,  0 min,  0.201 sec
 SCC setup                      ...        0 min,  0.001 sec (  0.344%)
 Dispersion                     ...        0 min,  0.001 sec (  0.489%)
 classical contributions        ...        0 min,  0.000 sec (  0.156%)
 integral evaluation            ...        0 min,  0.014 sec (  6.826%)
 iterations                     ...        0 min,  0.110 sec ( 54.797%)
 molecular gradient             ...        0 min,  0.064 sec ( 31.810%)
 printout                       ...        0 min,  0.011 sec (  5.574%)

         :::::::::::::::::::::::::::::::::::::::::::::::::::::
         ::                     SUMMARY                     ::
         :::::::::::::::::::::::::::::::::::::::::::::::::::::
         :: total energy             -94.788928011779 Eh    ::
         :: gradient norm              0.099787095752 Eh/a0 ::
         :: HOMO-LUMO gap              0.326364749919 eV    ::
         ::.................................................::
         :: SCC energy               -96.099265620438 Eh    ::
         :: -> isotropic ES            0.111325256901 Eh    ::
         :: -> anisotropic ES          0.006336306837 Eh    ::
         :: -> anisotropic XC          0.048835650837 Eh    ::
         :: -> dispersion             -0.071421120267 Eh    ::
         :: repulsion energy           1.310337608658 Eh    ::
         :: add. restraining           0.000000000000 Eh    ::
         :: total charge               0.000000000000 e     ::
         :::::::::::::::::::::::::::::::::::::::::::::::::::::

           -------------------------------------------------
          |                Property Printout                |
           -------------------------------------------------

    * Orbital Energies and Occupations

         #    Occupation            Energy/Eh            Energy/eV
      -------------------------------------------------------------
         1        2.0000           -0.6957808             -18.9332
       ...           ...                  ...                  ...
        75        2.0000           -0.4264422             -11.6041
        76        2.0000           -0.4171684             -11.3517
        77        2.0000           -0.4155838             -11.3086
        78        2.0000           -0.4091839             -11.1345
        79        2.0000           -0.3995242             -10.8716
        80        2.0000           -0.3874040             -10.5418
        81        2.0000           -0.3851991             -10.4818
        82        2.0000           -0.3831074             -10.4249
        83        2.0000           -0.3785506             -10.3009
        84        1.9148           -0.3677667             -10.0074
        85        1.8326           -0.3670353              -9.9875
        86        1.2526           -0.3644808              -9.9180
        87        0.9982           -0.2684697              -7.3054 (HOMO)
        88        0.0018           -0.2564760              -6.9791 (LUMO)
        89                         -0.2453586              -6.6765
        90                         -0.2320298              -6.3139
        91                         -0.2125570              -5.7840
        92                         -0.1969083              -5.3581
        93                         -0.1429517              -3.8899
        94                         -0.1100310              -2.9941
        95                         -0.0737917              -2.0080
        96                         -0.0436258              -1.1871
        97                         -0.0072509              -0.1973
        98                          0.0101397               0.2759
       ...                                ...                  ...
       161                          0.7135286              19.4161
      -------------------------------------------------------------
                  HL-Gap            0.0119937 Eh            0.3264 eV
             Fermi-level           -0.3139921 Eh           -8.5442 eV

     #   Z          covCN         q      C6AA      α(0)
     1   6 C        3.754    -0.136    23.164     6.863
     2   6 C        2.817     0.244    22.916     7.843
     3   6 C        2.964    -0.074    29.842     8.960
     4   6 C        2.958    -0.001    28.050     8.687
     5   6 C        3.758    -0.108    22.618     6.780
     6   6 C        2.979    -0.037    28.910     8.820
     7   6 C        2.919     0.042    27.069     8.532
     8   7 N        1.851    -0.268    27.806     7.815
     9   6 C        2.881     0.213    23.515     7.950
    10   7 N        2.726    -0.118    23.571     7.211
    11   6 C        2.889     0.143    24.879     8.178
    12   7 N        1.852    -0.254    27.472     7.768
    13   6 C        2.906     0.037    27.171     8.547
    14   6 C        2.904     0.042    27.063     8.530
    15   6 C        2.933    -0.043    29.079     8.844
    16   6 C        2.911    -0.052    29.288     8.874
    17   7 N        2.741    -0.071    22.613     7.063
    18   6 C        3.748    -0.004    20.717     6.492
    19   6 C        3.745     0.012    20.445     6.450
    20   7 N        2.678    -0.253    26.577     7.657
    21   6 C        3.746     0.006    20.542     6.465
    22   6 C        3.746    -0.004    20.718     6.493
    23   7 N        1.846    -0.310    28.888     7.966
    24   6 C        2.924     0.163    24.488     8.115
    25   7 N        2.749    -0.082    22.832     7.097
    26   6 C        3.821     0.043    19.840     6.339
    27   6 C        3.828    -0.060    21.633     6.618
    28   6 C        3.829    -0.055    21.538     6.603
    29   6 C        3.829    -0.060    21.637     6.618
    30   6 C        3.820    -0.057    21.581     6.611
    31   6 C        2.774     0.257    22.674     7.799
    32   8 O        0.859    -0.444    22.589     6.372
    33   8 O        0.857    -0.373    21.141     6.165
    34   1 H        0.925     0.060     2.197     2.318
    35   1 H        0.925     0.054     2.274     2.358
    36   1 H        0.925     0.099     1.793     2.094
    37   1 H        0.925     0.064     2.154     2.295
    38   1 H        0.925     0.049     2.326     2.385
    39   1 H        0.925     0.041     2.429     2.437
    40   1 H        0.926     0.043     2.407     2.426
    41   1 H        0.860     0.216     1.027     1.588
    42   1 H        0.926     0.041     2.439     2.442
    43   1 H        0.926     0.037     2.485     2.465
    44   1 H        0.926     0.071     2.072     2.251
    45   1 H        0.924     0.055     2.255     2.348
    46   1 H        0.923     0.056     2.244     2.343
    47   1 H        0.924     0.049     2.329     2.387
    48   1 H        0.923     0.024     2.679     2.560
    49   1 H        0.860     0.142     1.459     1.892
    50   1 H        0.924     0.049     2.331     2.387
    51   1 H        0.924     0.043     2.403     2.424
    52   1 H        0.923     0.043     2.406     2.426
    53   1 H        0.924     0.052     2.291     2.367
    54   1 H        0.925     0.058     2.223     2.332
    55   1 H        0.925     0.025     2.654     2.548
    56   1 H        0.925     0.059     2.210     2.325
    57   1 H        0.925     0.034     2.533     2.489
    58   1 H        0.924     0.026     2.648     2.545
    59   1 H        0.925     0.029     2.604     2.524
    60   1 H        0.925     0.062     2.170     2.304
    61   1 H        0.924     0.027     2.627     2.535
    62   1 H        0.925     0.052     2.295     2.369

 Mol. C6AA /au·bohr⁶  :      42294.755242
 Mol. C8AA /au·bohr⁸  :     982116.532510
 Mol. α(0) /au        :        315.287138


Wiberg/Mayer (AO) data.
largest (>0.10) Wiberg bond orders for each atom

 ---------------------------------------------------------------------------
     #   Z sym  total        # sym  WBO       # sym  WBO       # sym  WBO
 ---------------------------------------------------------------------------
     1   6 C    3.966 --     2 C    0.995    34 H    0.982    35 H    0.967
                            36 H    0.941
     2   6 C    3.893 --    33 O    1.778     3 C    1.019     1 C    0.995
     3   6 C    3.821 --     4 C    1.381    31 C    1.123     2 C    1.019
     4   6 C    3.891 --     3 C    1.381     6 C    1.256     5 C    1.026
     5   6 C    3.987 --     4 C    1.026    37 H    0.978    38 H    0.968
                            39 H    0.968
     6   6 C    3.892 --     4 C    1.256     7 C    1.209    24 C    1.203
     7   6 C    3.873 --     8 N    1.466     6 C    1.209    40 H    0.952
     8   7 N    2.982 --     7 C    1.466     9 C    1.277
     9   6 C    3.914 --     8 N    1.277    23 N    1.254    10 N    1.169
    10   7 N    3.474 --     9 C    1.169    11 C    1.152    41 H    0.918
    11   6 C    3.902 --    12 N    1.292    16 C    1.285    10 N    1.152
    12   7 N    2.998 --    13 C    1.480    11 C    1.292
    13   6 C    3.931 --    12 N    1.480    14 C    1.292    42 H    0.959
    14   6 C    3.903 --    13 C    1.292    15 C    1.267    17 N    1.186
    15   6 C    3.939 --    16 C    1.529    14 C    1.267    43 H    0.965
    16   6 C    3.960 --    15 C    1.529    11 C    1.285    44 H    0.952
    17   7 N    3.347 --    14 C    1.186    18 C    0.996    22 C    0.995
    18   6 C    3.974 --    19 C    1.003    17 N    0.996    45 H    0.966
                            46 H    0.956
    19   6 C    3.984 --    20 N    1.010    18 C    1.003    47 H    0.970
                            48 H    0.969
    20   7 N    3.064 --    21 C    1.018    19 C    1.010    49 H    0.959
    21   6 C    3.982 --    20 N    1.018    22 C    0.987    51 H    0.976
                            50 H    0.969
    22   6 C    3.973 --    17 N    0.995    21 C    0.987    53 H    0.966
                            52 H    0.960
    23   7 N    2.974 --    24 C    1.360     9 C    1.254
    24   6 C    3.947 --    23 N    1.360     6 C    1.203    25 N    1.201
    25   7 N    3.557 --    24 C    1.201    31 C    1.069    26 C    0.958
                            32 O    0.105
    26   6 C    3.949 --    27 C    0.983    30 C    0.982    25 N    0.958
                            54 H    0.952
    27   6 C    3.990 --    28 C    1.007    26 C    0.983    55 H    0.980
                            56 H    0.973
    28   6 C    3.997 --    29 C    1.007    27 C    1.007    58 H    0.980
                            57 H    0.979
    29   6 C    3.994 --    28 C    1.007    30 C    1.006    59 H    0.980
                            60 H    0.976
    30   6 C    3.992 --    29 C    1.006    26 C    0.982    61 H    0.981
                            62 H    0.976
    31   6 C    3.932 --    32 O    1.604     3 C    1.123    25 N    1.069
    32   8 O    1.910 --    31 C    1.604    25 N    0.105
    33   8 O    1.996 --     2 C    1.778
    34   1 H    0.994 --     1 C    0.982
    35   1 H    0.995 --     1 C    0.967
    36   1 H    0.988 --     1 C    0.941
    37   1 H    0.995 --     5 C    0.978
    38   1 H    0.994 --     5 C    0.968
    39   1 H    0.994 --     5 C    0.968
    40   1 H    0.986 --     7 C    0.952
    41   1 H    0.952 --    10 N    0.918
    42   1 H    0.997 --    13 C    0.959
    43   1 H    0.998 --    15 C    0.965
    44   1 H    0.994 --    16 C    0.952
    45   1 H    0.994 --    18 C    0.966
    46   1 H    0.984 --    18 C    0.956
    47   1 H    0.997 --    19 C    0.970
    48   1 H    0.998 --    19 C    0.969
    49   1 H    0.980 --    20 N    0.959
    50   1 H    0.996 --    21 C    0.969
    51   1 H    0.997 --    21 C    0.976
    52   1 H    0.987 --    22 C    0.960
    53   1 H    0.995 --    22 C    0.966
    54   1 H    0.995 --    26 C    0.952
    55   1 H    0.999 --    27 C    0.980
    56   1 H    0.995 --    27 C    0.973
    57   1 H    0.998 --    28 C    0.979
    58   1 H    0.999 --    28 C    0.980
    59   1 H    0.999 --    29 C    0.980
    60   1 H    0.996 --    29 C    0.976
    61   1 H    0.998 --    30 C    0.981
    62   1 H    0.996 --    30 C    0.976
 ---------------------------------------------------------------------------

Topologies differ in total number of bonds
Writing topology from bond orders to xtbtopo.mol

molecular dipole:
                 x           y           z       tot (Debye)
 q only:        5.097      -1.287       1.904
   full:        4.724      -1.526       2.117      13.716
molecular quadrupole (traceless):
                xx          xy          yy          xz          yz          zz
 q only:       -1.260      12.818      -2.904       1.027       5.580       4.164
  q+dip:       -8.751      14.070       0.748       6.051       2.909       8.003
   full:      -11.704      14.458       5.633       6.704       2.875       6.072


           -------------------------------------------------
          | TOTAL ENERGY              -94.788928011779 Eh   |
          | GRADIENT NORM               0.099787095752 Eh/α |
          | HOMO-LUMO GAP               0.326364749919 eV   |
           -------------------------------------------------

------------------------------------------------------------------------
 * finished run on 2025/05/15 at 16:09:19.230     
------------------------------------------------------------------------
 total:
 * wall-time:     0 d,  0 h,  0 min,  0.222 sec
 *  cpu-time:     0 d,  0 h,  0 min,  0.172 sec
 * ratio c/w:     0.776 speedup
 SCF:
 * wall-time:     0 d,  0 h,  0 min,  0.201 sec
 *  cpu-time:     0 d,  0 h,  0 min,  0.153 sec
 * ratio c/w:     0.761 speedup


