57
 energy: -87.646518252779 gnorm: 0.000385246787 xtb: 6.7.1 (edcfbbe)
O           -3.62065748041732       -2.07153568835169        1.52847194230783
C           -3.20642828708645       -1.07242468130758        0.96225603656469
C           -2.39387982842733       -1.05377849192394       -0.22695556242042
C           -2.03740222470006       -2.39252176995304       -0.80141572878594
C           -0.86420063261754       -3.01310551951453       -0.02674848262369
N            0.35627068367275       -2.24569069537907       -0.22377149507223
C            1.19912554816188       -2.79761449034040       -1.26724731923068
C            2.31910996304459       -1.82514511663160       -1.62686643687338
C            3.14593998572682       -1.48161310634312       -0.38319121439049
C            2.21039646387964       -0.99604145830352        0.72834461455477
C            1.12383114332931       -2.03441933459468        0.98698180796140
C            4.17538873565047       -0.45555007884354       -0.70419906471842
N            5.44205637896959       -0.71965424499824       -0.60734841936436
O            6.16809598745007        0.38467561108936       -0.96266021067653
C            5.31068215032439        1.36482560954648       -1.28998048735292
C            3.98754611215634        0.89893993199257       -1.14898671887479
C            2.91788020893075        1.74784973577442       -1.43393933562439
C            3.19850945475153        3.02892348172377       -1.84759439027416
C            4.52331513637814        3.45437916618914       -1.97541385888890
F            4.74019523024856        4.71892843878709       -2.38352127981871
C            5.61154254036027        2.65403357731291       -1.70706333099599
C           -1.96534392225586        0.14373941037237       -0.72079533253688
N           -2.30666123104536        1.32184645041804       -0.14070961559772
C           -3.06259045063346        1.32655094791798        0.90946309582844
N           -3.53154143562174        0.19645186600133        1.48120722653407
C           -4.34739844984450        0.18309657245241        2.68560860683301
C           -5.04589444044338        1.50959113514634        2.92298465050729
C           -4.00959532812180        2.62417590619103        2.86525314887637
C           -3.43878153550807        2.67484026745770        1.45501182706229
C           -1.09613724378498        0.26881955757009       -1.93051856357911
H           -2.89844971674858       -3.05381362885924       -0.68543019664903
H           -1.78784713485114       -2.30743305423921       -1.85779096803235
H           -0.73402118116902       -4.05964820894254       -0.33852790820947
H           -1.12950593802125       -3.01691257755780        1.03217217027716
H            1.64274571386521       -3.76216075659871       -0.95485559963747
H            0.58172923339895       -2.98191231875241       -2.14996729180706
H            1.89000411841583       -0.91194075961672       -2.04084268793909
H            2.96094891057460       -2.27368636325811       -2.38730075067630
H            3.67169144517987       -2.37982572436247       -0.04309735309971
H            2.77914799070638       -0.81989903844492        1.64291518794813
H            1.73419405252807       -0.06158586534374        0.43160979311201
H            0.44905447431974       -1.66473472261094        1.76269030092889
H            1.58715661161793       -2.97124666403710        1.34884642366798
H            1.89665785153038        1.41794317825309       -1.33271627425736
H            2.40904077172296        3.72610739347040       -2.07877055080336
H            6.62245003325620        3.00756274960661       -1.81383722083620
H           -3.69741599637249       -0.06207219573122        3.53420822238567
H           -5.05949966853331       -0.64042997215580        2.57559097054883
H           -5.54029123454039        1.48029378738424        3.89411830010132
H           -5.80641597098465        1.67503239054691        2.15706355155533
H           -4.45714730483879        3.58611937141136        3.11782251618132
H           -3.21514627267586        2.42206449716074        3.58669582136161
H           -2.55755255029965        3.31475623193468        1.39790024562119
H           -4.18175924295083        3.09755455050773        0.77166658905671
H           -0.23143972178935       -0.37896897513858       -1.82370046335506
H           -0.78685319542567        1.30429690146716       -2.03991032594231
H           -1.64464931044441       -0.02813321554485       -2.82320861082906
