----- Optimization -----
      -----------------------------------------------------------      
     |                   =====================                   |     
     |                           x T B                           |     
     |                   =====================                   |     
     |                         S. Grimme                         |     
     |          Mulliken Center for Theoretical Chemistry        |     
     |                    University of Bonn                     |     
      -----------------------------------------------------------      

   * xtb version 6.7.1 (edcfbbe) compiled by 'conda@3ef47c1a292c' on 2024-11-25

   xtb is free software: you can redistribute it and/or modify it under
   the terms of the GNU Lesser General Public License as published by
   the Free Software Foundation, either version 3 of the License, or
   (at your option) any later version.
   
   xtb is distributed in the hope that it will be useful,
   but WITHOUT ANY WARRANTY; without even the implied warranty of
   MERCHANTABILITY or FITNESS FOR A PARTICULAR PURPOSE.  See the
   GNU Lesser General Public License for more details.
   
   Cite this work as:
   * C. Bannwarth, E. Caldeweyher, S. Ehlert, A. Hansen, P. Pracht,
     J. Seibert, S. Spicher, S. Grimme, WIREs Comput. Mol. Sci., 2020, 11,
     e01493. DOI: 10.1002/wcms.1493
   
   for GFN2-xTB:
   * C. Bannwarth, S. Ehlert and S. Grimme., J. Chem. Theory Comput., 2019,
     15, 1652-1671. DOI: 10.1021/acs.jctc.8b01176
   for GFN1-xTB:
   * S. Grimme, C. Bannwarth, P. Shushkov, J. Chem. Theory Comput., 2017,
     13, 1989-2009. DOI: 10.1021/acs.jctc.7b00118
   for GFN0-xTB:
   * P. Pracht, E. Caldeweyher, S. Ehlert, S. Grimme, ChemRxiv, 2019, preprint.
     DOI: 10.26434/chemrxiv.8326202.v1
   for GFN-FF:
   * S. Spicher and S. Grimme, Angew. Chem. Int. Ed., 2020, 59, 15665-15673.
     DOI: 10.1002/anie.202004239
   
   for ALPB and GBSA implicit solvation:
   * S. Ehlert, M. Stahn, S. Spicher, S. Grimme, J. Chem. Theory Comput.,
     2021, 17, 4250-4261. DOI: 10.1021/acs.jctc.1c00471
   
   for ddCOSMO and CPCM-X implicit solvation:
   * M. Stahn, S. Ehlert, S. Grimme, J. Phys. Chem. A,
     2023, XX, XXXX-XXXX. DOI: 10.1021/acs.jpca.3c04382
   
   for DFT-D4:
   * E. Caldeweyher, C. Bannwarth and S. Grimme, J. Chem. Phys., 2017,
     147, 034112. DOI: 10.1063/1.4993215
   * E. Caldeweyher, S. Ehlert, A. Hansen, H. Neugebauer, S. Spicher,
     C. Bannwarth and S. Grimme, J. Chem. Phys., 2019, 150, 154122.
     DOI: 10.1063/1.5090222
   * E. Caldeweyher, J.-M. Mewes, S. Ehlert and S. Grimme, Phys. Chem. Chem. Phys.
     2020, 22, 8499-8512. DOI: 10.1039/D0CP00502A
   
   for sTDA-xTB:
   * S. Grimme and C. Bannwarth, J. Chem. Phys., 2016, 145, 054103.
     DOI: 10.1063/1.4959605
   
   in the mass-spec context:
   * V. Asgeirsson, C. Bauer and S. Grimme, Chem. Sci., 2017, 8, 4879.
     DOI: 10.1039/c7sc00601b
   * J. Koopman and S. Grimme, ACS Omega 2019, 4, 12, 15120-15133.
     DOI: 10.1021/acsomega.9b02011
   
   for metadynamics refer to:
   * S. Grimme, J. Chem. Theory Comput., 2019, 155, 2847-2862
     DOI: 10.1021/acs.jctc.9b00143
   
   for SPH calculations refer to:
   * S. Spicher and S. Grimme, J. Chem. Theory Comput., 2021, 17, 1701-1714
     DOI: 10.1021/acs.jctc.0c01306
   
   for ONIOM refer to:
   * C. Plett, A. Katbashev, S. Ehlert, S. Grimme, M. Bursch,
     Phys. Chem. Chem. Phys., 2023, 25, 17860-17868. DOI: 10.1039/D3CP02178E
   
   for DIPRO refer to:
   * J. Kohn, N. Gildemeister, S. Grimme, D. Fazzi, A. Hansen,
     J. Chem. Phys., 2023, just accepted.
   
   for PTB refer to:
   * S. Grimme, M. Mueller, A. Hansen, J. Chem. Phys., 2023, 158, 124111.
     DOI: 10.1063/5.0137838
   
   with help from (in alphabetical order)
   P. Atkinson, C. Bannwarth, F. Bohle, G. Brandenburg, E. Caldeweyher
   M. Checinski, S. Dohm, S. Ehlert, S. Ehrlich, I. Gerasimov, C. Hölzer
   A. Katbashev, J. Kohn, J. Koopman, C. Lavigne, S. Lehtola, F. März, M. Müller,
   F. Musil, H. Neugebauer, J. Pisarek, C. Plett, P. Pracht, F. Pultar,
   J. Seibert, P. Shushkov, S. Spicher, M. Stahn, M. Steiner, T. Strunk,
   J. Stückrath, T. Rose, and J. Unsleber
   
 * started run on 2025/05/15 at 16:32:15.632     
   ID    Z sym.   atoms
    1    8 O      1, 14
    2    6 C      2-5, 7-12, 15-19, 21, 22, 24, 26-30
    3    7 N      6, 13, 23, 25
    4    9 F      20
    5    1 H      31-57

           -------------------------------------------------
          |                Calculation Setup                |
           -------------------------------------------------

          program call               : xtb /rds/general/user/hgt20/home/callum/QDESCP/Risperidone_rdkit_conf_3/Risperidone_rdkit_conf_3.xyz --opt normal --acc 1 --gfn 2 --chrg 0 --uhf 0 -P 1
          hostname                   : login-c
          coordinate file            : /rds/general/user/hgt20/home/callum/QDESCP/Risperidone_rdkit_conf_3/Risperidone_rdkit_conf_3.xyz
          omp threads                :                     1


           -------------------------------------------------
          |                 G F N 2 - x T B                 |
           -------------------------------------------------

        Reference                      10.1021/acs.jctc.8b01176
      * Hamiltonian:
        H0-scaling (s, p, d)           1.850000    2.230000    2.230000
        zeta-weighting                 0.500000
      * Dispersion:
        s8                             2.700000
        a1                             0.520000
        a2                             5.000000
        s9                             5.000000
      * Repulsion:
        kExp                           1.500000    1.000000
        rExp                           1.000000
      * Coulomb:
        alpha                          2.000000
        third order                    shell-resolved
        anisotropic                    true
        a3                             3.000000
        a5                             4.000000
        cn-shift                       1.200000
        cn-exp                         4.000000
        max-rad                        5.000000


          ...................................................
          :                      SETUP                      :
          :.................................................:
          :  # basis functions                 147          :
          :  # atomic orbitals                 147          :
          :  # shells                           87          :
          :  # electrons                       158          :
          :  max. iterations                   250          :
          :  Hamiltonian                  GFN2-xTB          :
          :  restarted?                      false          :
          :  GBSA solvation                  false          :
          :  PC potential                    false          :
          :  electronic temp.          300.0000000     K    :
          :  accuracy                    1.0000000          :
          :  -> integral cutoff          0.2500000E+02      :
          :  -> integral neglect         0.1000000E-07      :
          :  -> SCF convergence          0.1000000E-05 Eh   :
          :  -> wf. convergence          0.1000000E-03 e    :
          :  Broyden damping             0.4000000          :
          :  net charge                          0          :
          :  unpaired electrons                  0          :
          ...................................................

 iter      E             dE          RMSdq      gap      omega  full diag
   1    -88.5851824 -0.885852E+02  0.369E+00    3.07       0.0  T
   2    -88.7132356 -0.128053E+00  0.226E+00    2.57       1.0  T
   3    -88.7160602 -0.282460E-02  0.120E+00    2.17       1.0  T
   4    -88.7334379 -0.173777E-01  0.424E-01    1.76       1.0  T
   5    -88.7393188 -0.588093E-02  0.113E-01    1.73       1.0  T
   6    -88.7395710 -0.252170E-03  0.597E-02    1.76       1.0  T
   7    -88.7396518 -0.808931E-04  0.245E-02    1.78       1.0  T
   8    -88.7396570 -0.519603E-05  0.974E-03    1.79       1.4  T
   9    -88.7396586 -0.159895E-05  0.416E-03    1.79       3.2  T
  10    -88.7396589 -0.269582E-06  0.129E-03    1.79      10.2  T
  11    -88.7396589 -0.155502E-07  0.746E-04    1.79      17.8  T
  12    -88.7396589 -0.995564E-08  0.318E-04    1.79      41.6  T

   *** convergence criteria satisfied after 12 iterations ***

         #    Occupation            Energy/Eh            Energy/eV
      -------------------------------------------------------------
         1        2.0000           -0.8305450             -22.6003
       ...           ...                  ...                  ...
        73        2.0000           -0.4233194             -11.5191
        74        2.0000           -0.4171108             -11.3502
        75        2.0000           -0.4100945             -11.1592
        76        2.0000           -0.3879320             -10.5562
        77        2.0000           -0.3832501             -10.4288
        78        2.0000           -0.3824757             -10.4077
        79        2.0000           -0.3515928              -9.5673 (HOMO)
        80                         -0.2858837              -7.7793 (LUMO)
        81                         -0.2516580              -6.8480
        82                         -0.2431874              -6.6175
        83                         -0.2273359              -6.1861
        84                         -0.2098635              -5.7107
       ...                                ...                  ...
       147                          0.6940162              18.8851
      -------------------------------------------------------------
                  HL-Gap            0.0657091 Eh            1.7880 eV
             Fermi-level           -0.3187383 Eh           -8.6733 eV

 SCC (total)                   0 d,  0 h,  0 min,  0.102 sec
 SCC setup                      ...        0 min,  0.001 sec (  0.556%)
 Dispersion                     ...        0 min,  0.001 sec (  0.806%)
 classical contributions        ...        0 min,  0.000 sec (  0.254%)
 integral evaluation            ...        0 min,  0.012 sec ( 11.693%)
 iterations                     ...        0 min,  0.044 sec ( 43.477%)
 molecular gradient             ...        0 min,  0.044 sec ( 42.910%)
 printout                       ...        0 min,  0.000 sec (  0.297%)

         :::::::::::::::::::::::::::::::::::::::::::::::::::::
         ::                     SUMMARY                     ::
         :::::::::::::::::::::::::::::::::::::::::::::::::::::
         :: total energy             -87.629840995841 Eh    ::
         :: gradient norm              0.107925606767 Eh/a0 ::
         :: HOMO-LUMO gap              1.788034463307 eV    ::
         ::.................................................::
         :: SCC energy               -88.738688512944 Eh    ::
         :: -> isotropic ES            0.080998756632 Eh    ::
         :: -> anisotropic ES          0.009767176147 Eh    ::
         :: -> anisotropic XC          0.041313953471 Eh    ::
         :: -> dispersion             -0.062541556866 Eh    ::
         :: repulsion energy           1.108847517103 Eh    ::
         :: add. restraining           0.000000000000 Eh    ::
         :: total charge              -0.000000000000 e     ::
         :::::::::::::::::::::::::::::::::::::::::::::::::::::

      ----------------------------------------------------------- 
     |                   =====================                   |
     |                        A N C O P T                        |
     |                   =====================                   |
     |               Approximate Normal Coordinate               |
     |                Rational Function Optimizer                |
      ----------------------------------------------------------- 
      ----------------------------------------------------------- 
     |                   =====================                   |
     |                        A N C O P T                        |
     |                   =====================                   |
     |               Approximate Normal Coordinate               |
     |                Rational Function Optimizer                |
      ----------------------------------------------------------- 

          ...................................................
          :                      SETUP                      :
          :.................................................:
          :   optimization level            normal          :
          :   max. optcycles                   200          :
          :   ANC micro-cycles                  20          :
          :   degrees of freedom               165          :
          :.................................................:
          :   RF solver                   davidson          :
          :   write xtbopt.log                true          :
          :   linear?                        false          :
          :   energy convergence         0.5000000E-05 Eh   :
          :   grad. convergence          0.1000000E-02 Eh/α :
          :   maxmium RF displ.          1.0000000          :
          :   Hlow (freq-cutoff)         0.1000000E-01      :
          :   Hmax (freq-cutoff)         5.0000000          :
          :   S6 in model hess.         20.0000000          :
          ...................................................

generating ANC from exact Hessian ...
Using Lindh-Hessian (1995)
 Shifting diagonal of input Hessian by    9.9064609481663516E-003
 Lowest  eigenvalues of input Hessian
    0.000000    0.000000    0.000000    0.000000    0.000000    0.000000
    0.010000    0.010190    0.010264    0.010765    0.010966    0.011395
    0.011659    0.012594    0.013198    0.014287    0.017026    0.017253
 Highest eigenvalues
    1.921982    1.940233    2.067847    2.167271    2.176060    2.311855


........................................................................
.............................. CYCLE    1 ..............................
........................................................................

 iter      E             dE          RMSdq      gap      omega  full diag
   1    -88.7396589 -0.887397E+02  0.134E-04    1.79       0.0  T
   2    -88.7396589 -0.162530E-09  0.992E-05    1.79     133.5  T
   3    -88.7396589 -0.306287E-09  0.503E-05    1.79     263.5  T
     SCC iter.                  ...        0 min,  0.012 sec
     gradient                   ...        0 min,  0.045 sec
 * total energy  :   -87.6298410 Eh     change       -0.2259000E-08 Eh
   gradient norm :     0.1079253 Eh/α   predicted     0.0000000E+00 (-100.00%)
   displ. norm   :     0.2979896 α      lambda       -0.1512476E-01
   maximum displ.:     0.0931226 α      in ANC's #28, #30, #54, ...

........................................................................
.............................. CYCLE    2 ..............................
........................................................................

 iter      E             dE          RMSdq      gap      omega  full diag
   1    -88.7764097 -0.887764E+02  0.186E-01    1.92       0.0  T
   2    -88.7765011 -0.914016E-04  0.109E-01    1.96       1.0  T
   3    -88.7764552  0.459047E-04  0.441E-02    1.97       1.0  T
   4    -88.7765137 -0.585088E-04  0.112E-02    1.96       1.2  T
   5    -88.7765197 -0.594534E-05  0.386E-03    1.96       3.4  T
   6    -88.7765201 -0.397742E-06  0.161E-03    1.96       8.2  T
   7    -88.7765201 -0.183301E-07  0.641E-04    1.96      20.7  T
   8    -88.7765201 -0.802760E-08  0.234E-04    1.96      56.7  T
     SCC iter.                  ...        0 min,  0.045 sec
     gradient                   ...        0 min,  0.044 sec
 * total energy  :   -87.6401817 Eh     change       -0.1034069E-01 Eh
   gradient norm :     0.0470375 Eh/α   predicted    -0.8238500E-02 ( -20.33%)
   displ. norm   :     0.2588491 α      lambda       -0.4473143E-02
   maximum displ.:     0.0874984 α      in ANC's #28, #9, #30, ...

........................................................................
.............................. CYCLE    3 ..............................
........................................................................

 iter      E             dE          RMSdq      gap      omega  full diag
   1    -88.7974810 -0.887975E+02  0.114E-01    2.03       0.0  T
   2    -88.7975335 -0.525482E-04  0.671E-02    2.04       1.0  T
   3    -88.7975083  0.252418E-04  0.393E-02    2.05       1.0  T
   4    -88.7975497 -0.414015E-04  0.815E-03    2.04       1.6  T
   5    -88.7975532 -0.348245E-05  0.230E-03    2.05       5.8  T
   6    -88.7975533 -0.118843E-06  0.957E-04    2.05      13.8  T
   7    -88.7975533 -0.118774E-07  0.415E-04    2.05      31.9  T
     SCC iter.                  ...        0 min,  0.033 sec
     gradient                   ...        0 min,  0.044 sec
 * total energy  :   -87.6427904 Eh     change       -0.2608676E-02 Eh
   gradient norm :     0.0156334 Eh/α   predicted    -0.2387758E-02 (  -8.47%)
   displ. norm   :     0.1633275 α      lambda       -0.6354408E-03
   maximum displ.:     0.0803717 α      in ANC's #9, #10, #17, ...

........................................................................
.............................. CYCLE    4 ..............................
........................................................................

 iter      E             dE          RMSdq      gap      omega  full diag
   1    -88.7993832 -0.887994E+02  0.398E-02    2.04       0.0  T
   2    -88.7993883 -0.505492E-05  0.232E-02    2.05       1.0  T
   3    -88.7993853  0.294812E-05  0.150E-02    2.05       1.0  T
   4    -88.7993918 -0.648973E-05  0.242E-03    2.05       5.5  T
   5    -88.7993921 -0.246145E-06  0.863E-04    2.05      15.3  T
   6    -88.7993921 -0.111448E-07  0.431E-04    2.05      30.7  T
     SCC iter.                  ...        0 min,  0.022 sec
     gradient                   ...        0 min,  0.044 sec
 * total energy  :   -87.6432517 Eh     change       -0.4612906E-03 Eh
   gradient norm :     0.0087783 Eh/α   predicted    -0.3261992E-03 ( -29.29%)
   displ. norm   :     0.2075940 α      lambda       -0.4240867E-03
   maximum displ.:     0.1112132 α      in ANC's #9, #10, #7, ...

........................................................................
.............................. CYCLE    5 ..............................
........................................................................

 iter      E             dE          RMSdq      gap      omega  full diag
   1    -88.7990491 -0.887990E+02  0.369E-02    2.04       0.0  T
   2    -88.7990521 -0.301034E-05  0.212E-02    2.04       1.0  T
   3    -88.7990486  0.349503E-05  0.123E-02    2.04       1.1  T
   4    -88.7990538 -0.512049E-05  0.204E-03    2.04       6.5  T
   5    -88.7990539 -0.172193E-06  0.746E-04    2.04      17.7  T
   6    -88.7990539 -0.410185E-08  0.356E-04    2.04      37.2  T
     SCC iter.                  ...        0 min,  0.022 sec
     gradient                   ...        0 min,  0.044 sec
 * total energy  :   -87.6435211 Eh     change       -0.2694910E-03 Eh
   gradient norm :     0.0045097 Eh/α   predicted    -0.2212553E-03 ( -17.90%)
   displ. norm   :     0.1335332 α      lambda       -0.1209648E-03
   maximum displ.:     0.0722990 α      in ANC's #9, #7, #2, ...

........................................................................
.............................. CYCLE    6 ..............................
........................................................................

 iter      E             dE          RMSdq      gap      omega  full diag
   1    -88.7988412 -0.887988E+02  0.199E-02    2.03       0.0  T
   2    -88.7988419 -0.626729E-06  0.118E-02    2.03       1.1  T
   3    -88.7988416  0.306176E-06  0.319E-03    2.03       4.2  T
   4    -88.7988420 -0.397341E-06  0.859E-04    2.03      15.4  T
   5    -88.7988420 -0.308105E-07  0.318E-04    2.03      41.6  T
     SCC iter.                  ...        0 min,  0.019 sec
     gradient                   ...        0 min,  0.049 sec
 * total energy  :   -87.6436080 Eh     change       -0.8689822E-04 Eh
   gradient norm :     0.0041322 Eh/α   predicted    -0.6156107E-04 ( -29.16%)
   displ. norm   :     0.1466178 α      lambda       -0.9109430E-04
   maximum displ.:     0.0748253 α      in ANC's #9, #7, #2, ...

........................................................................
.............................. CYCLE    7 ..............................
........................................................................

 iter      E             dE          RMSdq      gap      omega  full diag
   1    -88.7991349 -0.887991E+02  0.200E-02    2.02       0.0  T
   2    -88.7991356 -0.735085E-06  0.121E-02    2.02       1.1  T
   3    -88.7991345  0.114963E-05  0.597E-03    2.02       2.2  T
   4    -88.7991360 -0.152496E-05  0.907E-04    2.02      14.6  T
   5    -88.7991360 -0.288547E-07  0.392E-04    2.02      33.8  T
   6    -88.7991360 -0.290910E-08  0.174E-04    2.02      76.0  T
     SCC iter.                  ...        0 min,  0.022 sec
     gradient                   ...        0 min,  0.044 sec
 * total energy  :   -87.6436723 Eh     change       -0.6429044E-04 Eh
   gradient norm :     0.0035932 Eh/α   predicted    -0.4653190E-04 ( -27.62%)
   displ. norm   :     0.1430402 α      lambda       -0.6378986E-04
   maximum displ.:     0.0626261 α      in ANC's #2, #9, #7, ...

........................................................................
.............................. CYCLE    8 ..............................
........................................................................

 iter      E             dE          RMSdq      gap      omega  full diag
   1    -88.7996338 -0.887996E+02  0.187E-02    2.02       0.0  T
   2    -88.7996342 -0.472575E-06  0.110E-02    2.02       1.2  T
   3    -88.7996331  0.116276E-05  0.605E-03    2.02       2.2  T
   4    -88.7996346 -0.153756E-05  0.713E-04    2.02      18.6  T
   5    -88.7996346 -0.153306E-07  0.359E-04    2.02      36.9  T
   6    -88.7996346 -0.257327E-08  0.150E-04    2.02      88.5  T
     SCC iter.                  ...        0 min,  0.022 sec
     gradient                   ...        0 min,  0.042 sec
 * total energy  :   -87.6437207 Eh     change       -0.4834114E-04 Eh
   gradient norm :     0.0030711 Eh/α   predicted    -0.3254804E-04 ( -32.67%)
   displ. norm   :     0.1827690 α      lambda       -0.7043423E-04
   maximum displ.:     0.0858900 α      in ANC's #2, #7, #4, ...

........................................................................
.............................. CYCLE    9 ..............................
........................................................................

 iter      E             dE          RMSdq      gap      omega  full diag
   1    -88.8002057 -0.888002E+02  0.234E-02    2.01       0.0  T
   2    -88.8002063 -0.550343E-06  0.136E-02    2.01       1.0  T
   3    -88.8002047  0.155616E-05  0.647E-03    2.01       2.0  T
   4    -88.8002066 -0.191558E-05  0.830E-04    2.01      16.0  T
   5    -88.8002066 -0.225357E-07  0.377E-04    2.01      35.1  T
   6    -88.8002066 -0.131564E-08  0.161E-04    2.01      82.4  T
     SCC iter.                  ...        0 min,  0.029 sec
     gradient                   ...        0 min,  0.045 sec
 * total energy  :   -87.6437755 Eh     change       -0.5480246E-04 Eh
   gradient norm :     0.0030257 Eh/α   predicted    -0.3639498E-04 ( -33.59%)
   displ. norm   :     0.2359916 α      lambda       -0.8090211E-04
   maximum displ.:     0.1156840 α      in ANC's #2, #7, #8, ...

........................................................................
.............................. CYCLE   10 ..............................
........................................................................

 iter      E             dE          RMSdq      gap      omega  full diag
   1    -88.8004780 -0.888005E+02  0.306E-02    2.00       0.0  T
   2    -88.8004789 -0.865281E-06  0.178E-02    2.01       1.0  T
   3    -88.8004777  0.120427E-05  0.558E-03    2.01       2.4  T
   4    -88.8004792 -0.147106E-05  0.117E-03    2.01      11.3  T
   5    -88.8004792 -0.535037E-07  0.475E-04    2.01      27.9  T
   6    -88.8004792 -0.171364E-08  0.164E-04    2.01      80.7  T
     SCC iter.                  ...        0 min,  0.032 sec
     gradient                   ...        0 min,  0.044 sec
 * total energy  :   -87.6438387 Eh     change       -0.6319737E-04 Eh
   gradient norm :     0.0036515 Eh/α   predicted    -0.4270494E-04 ( -32.43%)
   displ. norm   :     0.2756212 α      lambda       -0.8446814E-04
   maximum displ.:     0.1395249 α      in ANC's #2, #8, #7, ...

........................................................................
.............................. CYCLE   11 ..............................
........................................................................

 iter      E             dE          RMSdq      gap      omega  full diag
   1    -88.8003268 -0.888003E+02  0.363E-02    2.00       0.0  T
   2    -88.8003279 -0.111933E-05  0.213E-02    2.00       1.0  T
   3    -88.8003269  0.995918E-06  0.509E-03    2.00       2.6  T
   4    -88.8003282 -0.132068E-05  0.116E-03    2.00      11.4  T
   5    -88.8003282 -0.334990E-07  0.542E-04    2.00      24.4  T
   6    -88.8003282 -0.361551E-08  0.220E-04    2.00      60.2  T
     SCC iter.                  ...        0 min,  0.037 sec
     gradient                   ...        0 min,  0.044 sec
 * total energy  :   -87.6439043 Eh     change       -0.6563990E-04 Eh
   gradient norm :     0.0041639 Eh/α   predicted    -0.4544662E-04 ( -30.76%)
   displ. norm   :     0.2730180 α      lambda       -0.7761131E-04
   maximum displ.:     0.1437447 α      in ANC's #2, #8, #3, ...

........................................................................
.............................. CYCLE   12 ..............................
........................................................................

 iter      E             dE          RMSdq      gap      omega  full diag
   1    -88.7999927 -0.888000E+02  0.367E-02    1.99       0.0  T
   2    -88.7999938 -0.106225E-05  0.215E-02    1.99       1.0  T
   3    -88.7999922  0.161780E-05  0.626E-03    1.99       2.1  T
   4    -88.7999942 -0.203486E-05  0.115E-03    1.99      11.5  T
   5    -88.7999942 -0.248657E-07  0.569E-04    1.99      23.3  T
   6    -88.7999942 -0.519584E-08  0.240E-04    1.99      55.1  T
     SCC iter.                  ...        0 min,  0.022 sec
     gradient                   ...        0 min,  0.056 sec
 * total energy  :   -87.6439644 Eh     change       -0.6011928E-04 Eh
   gradient norm :     0.0039311 Eh/α   predicted    -0.4170090E-04 ( -30.64%)
   displ. norm   :     0.2487690 α      lambda       -0.6615722E-04
   maximum displ.:     0.1375549 α      in ANC's #2, #8, #3, ...

........................................................................
.............................. CYCLE   13 ..............................
........................................................................

 iter      E             dE          RMSdq      gap      omega  full diag
   1    -88.7997739 -0.887998E+02  0.342E-02    1.99       0.0  T
   2    -88.7997748 -0.904984E-06  0.199E-02    1.99       1.0  T
   3    -88.7997731  0.169388E-05  0.653E-03    1.99       2.0  T
   4    -88.7997752 -0.207090E-05  0.114E-03    1.99      11.6  T
   5    -88.7997752 -0.333347E-07  0.536E-04    1.99      24.7  T
   6    -88.7997752 -0.347607E-08  0.251E-04    1.99      52.8  T
     SCC iter.                  ...        0 min,  0.022 sec
     gradient                   ...        0 min,  0.059 sec
 * total energy  :   -87.6440154 Eh     change       -0.5099245E-04 Eh
   gradient norm :     0.0029854 Eh/α   predicted    -0.3512937E-04 ( -31.11%)
   displ. norm   :     0.2185508 α      lambda       -0.5118695E-04
   maximum displ.:     0.1280394 α      in ANC's #2, #8, #3, ...

........................................................................
.............................. CYCLE   14 ..............................
........................................................................

 iter      E             dE          RMSdq      gap      omega  full diag
   1    -88.7996734 -0.887997E+02  0.305E-02    1.99       0.0  T
   2    -88.7996741 -0.726212E-06  0.177E-02    1.99       1.0  T
   3    -88.7996733  0.837160E-06  0.484E-03    1.99       2.7  T
   4    -88.7996743 -0.102939E-05  0.115E-03    1.99      11.5  T
   5    -88.7996744 -0.498705E-07  0.456E-04    1.99      29.0  T
   6    -88.7996744 -0.100836E-08  0.175E-04    1.99      75.5  T
     SCC iter.                  ...        0 min,  0.022 sec
     gradient                   ...        0 min,  0.061 sec
 * total energy  :   -87.6440555 Eh     change       -0.4005897E-04 Eh
   gradient norm :     0.0022160 Eh/α   predicted    -0.2681701E-04 ( -33.06%)
   displ. norm   :     0.1844053 α      lambda       -0.4126841E-04
   maximum displ.:     0.1148759 α      in ANC's #2, #3, #8, ...

........................................................................
.............................. CYCLE   15 ..............................
........................................................................

 iter      E             dE          RMSdq      gap      omega  full diag
   1    -88.7998730 -0.887999E+02  0.262E-02    1.99       0.0  T
   2    -88.7998736 -0.574347E-06  0.152E-02    1.99       1.0  T
   3    -88.7998733  0.262079E-06  0.308E-03    1.99       4.3  T
   4    -88.7998737 -0.364807E-06  0.978E-04    1.99      13.5  T
   5    -88.7998737 -0.353914E-07  0.411E-04    1.99      32.3  T
     SCC iter.                  ...        0 min,  0.019 sec
     gradient                   ...        0 min,  0.064 sec
 * total energy  :   -87.6440890 Eh     change       -0.3352576E-04 Eh
   gradient norm :     0.0022439 Eh/α   predicted    -0.2133811E-04 ( -36.35%)
   displ. norm   :     0.1783647 α      lambda       -0.4012440E-04
   maximum displ.:     0.1160758 α      in ANC's #2, #3, #1, ...

........................................................................
.............................. CYCLE   16 ..............................
........................................................................

 iter      E             dE          RMSdq      gap      omega  full diag
   1    -88.8001335 -0.888001E+02  0.259E-02    1.99       0.0  T
   2    -88.8001340 -0.470354E-06  0.151E-02    1.99       1.0  T
   3    -88.8001337  0.300286E-06  0.299E-03    1.99       4.4  T
   4    -88.8001341 -0.430358E-06  0.805E-04    1.99      16.5  T
   5    -88.8001341 -0.136032E-07  0.376E-04    1.99      35.2  T
     SCC iter.                  ...        0 min,  0.019 sec
     gradient                   ...        0 min,  0.052 sec
 * total energy  :   -87.6441229 Eh     change       -0.3390835E-04 Eh
   gradient norm :     0.0026141 Eh/α   predicted    -0.2070534E-04 ( -38.94%)
   displ. norm   :     0.1981364 α      lambda       -0.4542702E-04
   maximum displ.:     0.1317558 α      in ANC's #2, #3, #1, ...

........................................................................
.............................. CYCLE   17 ..............................
........................................................................

 iter      E             dE          RMSdq      gap      omega  full diag
   1    -88.8003519 -0.888004E+02  0.293E-02    1.99       0.0  T
   2    -88.8003524 -0.477621E-06  0.171E-02    1.99       1.0  T
   3    -88.8003520  0.394602E-06  0.332E-03    1.99       4.0  T
   4    -88.8003526 -0.562303E-06  0.867E-04    1.99      15.3  T
   5    -88.8003526 -0.996546E-08  0.409E-04    1.99      32.4  T
     SCC iter.                  ...        0 min,  0.019 sec
     gradient                   ...        0 min,  0.044 sec
 * total energy  :   -87.6441625 Eh     change       -0.3961863E-04 Eh
   gradient norm :     0.0027245 Eh/α   predicted    -0.2360536E-04 ( -40.42%)
   displ. norm   :     0.2397956 α      lambda       -0.5668252E-04
   maximum displ.:     0.1604349 α      in ANC's #2, #3, #1, ...

........................................................................
.............................. CYCLE   18 ..............................
........................................................................

 iter      E             dE          RMSdq      gap      omega  full diag
   1    -88.8004158 -0.888004E+02  0.363E-02    1.99       0.0  T
   2    -88.8004165 -0.637271E-06  0.212E-02    1.99       1.0  T
   3    -88.8004161  0.344139E-06  0.342E-03    1.99       3.9  T
   4    -88.8004167 -0.563509E-06  0.107E-03    1.99      12.4  T
   5    -88.8004167 -0.166480E-07  0.465E-04    1.99      28.5  T
   6    -88.8004167 -0.219167E-08  0.210E-04    1.99      63.0  T
     SCC iter.                  ...        0 min,  0.024 sec
     gradient                   ...        0 min,  0.044 sec
 * total energy  :   -87.6442136 Eh     change       -0.5107568E-04 Eh
   gradient norm :     0.0025137 Eh/α   predicted    -0.2997163E-04 ( -41.32%)
   displ. norm   :     0.3167572 α      lambda       -0.7934171E-04
   maximum displ.:     0.2106902 α      in ANC's #2, #3, #1, ...

........................................................................
.............................. CYCLE   19 ..............................
........................................................................

 iter      E             dE          RMSdq      gap      omega  full diag
   1    -88.8001574 -0.888002E+02  0.491E-02    1.99       0.0  T
   2    -88.8001586 -0.112110E-05  0.286E-02    1.99       1.0  T
   3    -88.8001583  0.240493E-06  0.371E-03    1.99       3.6  T
   4    -88.8001589 -0.584488E-06  0.149E-03    1.99       8.9  T
   5    -88.8001590 -0.443494E-07  0.617E-04    1.99      21.5  T
   6    -88.8001590 -0.388661E-08  0.224E-04    1.99      59.0  T
     SCC iter.                  ...        0 min,  0.022 sec
     gradient                   ...        0 min,  0.042 sec
 * total energy  :   -87.6442865 Eh     change       -0.7289087E-04 Eh
   gradient norm :     0.0027299 Eh/α   predicted    -0.4365382E-04 ( -40.11%)
   displ. norm   :     0.4374914 α      lambda       -0.1185526E-03
   maximum displ.:     0.2882774 α      in ANC's #2, #3, #12, ...

........................................................................
.............................. CYCLE   20 ..............................
........................................................................

 iter      E             dE          RMSdq      gap      omega  full diag
   1    -88.7990243 -0.887990E+02  0.690E-02    1.99       0.0  T
   2    -88.7990265 -0.224024E-05  0.402E-02    1.99       1.0  T
   3    -88.7990265 -0.163149E-07  0.425E-03    1.99       3.1  T
   4    -88.7990272 -0.616671E-06  0.204E-03    1.99       6.5  T
   5    -88.7990272 -0.855060E-07  0.894E-04    1.99      14.8  T
   6    -88.7990272 -0.123379E-07  0.281E-04    1.99      47.2  T
     SCC iter.                  ...        0 min,  0.035 sec
     gradient                   ...        0 min,  0.044 sec
 * total energy  :   -87.6443917 Eh     change       -0.1052361E-03 Eh
   gradient norm :     0.0047294 Eh/α   predicted    -0.7062180E-04 ( -32.89%)
   displ. norm   :     0.5068396 α      lambda       -0.1523893E-03
   maximum displ.:     0.3343090 α      in ANC's #2, #3, #12, ...
 * RMSD in coord.:     0.4859560 α      energy gain  -0.1455074E-01 Eh

generating ANC from exact Hessian ...
Using Lindh-Hessian (1995)
 Shifting diagonal of input Hessian by    9.8996521609186535E-003
 Lowest  eigenvalues of input Hessian
    0.000000    0.000000    0.000000    0.000000    0.000000    0.000000
    0.010000    0.010251    0.010275    0.010851    0.011028    0.011522
    0.011842    0.012849    0.013413    0.014710    0.017406    0.017595
 Highest eigenvalues
    1.967581    1.980649    2.081737    2.206651    2.210491    2.368294


........................................................................
.............................. CYCLE   21 ..............................
........................................................................

 iter      E             dE          RMSdq      gap      omega  full diag
   1    -88.7971422 -0.887971E+02  0.808E-02    1.99       0.0  T
   2    -88.7971453 -0.309956E-05  0.471E-02    1.99       1.0  T
   3    -88.7971456 -0.284700E-06  0.455E-03    1.99       2.9  T
   4    -88.7971462 -0.608627E-06  0.224E-03    1.99       5.9  T
   5    -88.7971462 -0.771253E-07  0.103E-03    1.99      12.9  T
   6    -88.7971463 -0.209832E-07  0.343E-04    1.99      38.6  T
   7    -88.7971463 -0.433181E-08  0.137E-04    1.99      96.9  T
     SCC iter.                  ...        0 min,  0.026 sec
     gradient                   ...        0 min,  0.044 sec
 * total energy  :   -87.6445135 Eh     change       -0.1217573E-03 Eh
   gradient norm :     0.0081594 Eh/α   predicted     0.0000000E+00 (-100.00%)
   displ. norm   :     0.0554670 α      lambda       -0.1406480E-03
   maximum displ.:     0.0309637 α      in ANC's #10, #13, #2, ...

........................................................................
.............................. CYCLE   22 ..............................
........................................................................

 iter      E             dE          RMSdq      gap      omega  full diag
   1    -88.8005089 -0.888005E+02  0.151E-02    1.99       0.0  T
   2    -88.8005102 -0.126896E-05  0.834E-03    1.99       1.6  T
   3    -88.8005101  0.101232E-06  0.379E-03    1.99       3.5  T
   4    -88.8005103 -0.214354E-06  0.120E-03    1.99      11.1  T
   5    -88.8005104 -0.559567E-07  0.365E-04    1.99      36.3  T
   6    -88.8005104 -0.660933E-09  0.232E-04    1.99      57.2  T
     SCC iter.                  ...        0 min,  0.022 sec
     gradient                   ...        0 min,  0.042 sec
 * total energy  :   -87.6446204 Eh     change       -0.1068806E-03 Eh
   gradient norm :     0.0037141 Eh/α   predicted    -0.7342684E-04 ( -31.30%)
   displ. norm   :     0.1078013 α      lambda       -0.1150853E-03
   maximum displ.:     0.0592118 α      in ANC's #10, #13, #2, ...

........................................................................
.............................. CYCLE   23 ..............................
........................................................................

 iter      E             dE          RMSdq      gap      omega  full diag
   1    -88.8027363 -0.888027E+02  0.186E-02    1.99       0.0  T
   2    -88.8027377 -0.132225E-05  0.106E-02    1.99       1.3  T
   3    -88.8027373  0.332071E-06  0.467E-03    1.99       2.8  T
   4    -88.8027378 -0.506167E-06  0.125E-03    1.99      10.6  T
   5    -88.8027379 -0.663169E-07  0.369E-04    1.99      35.9  T
   6    -88.8027379 -0.173681E-08  0.220E-04    1.99      60.2  T
     SCC iter.                  ...        0 min,  0.029 sec
     gradient                   ...        0 min,  0.045 sec
 * total energy  :   -87.6447036 Eh     change       -0.8325304E-04 Eh
   gradient norm :     0.0024099 Eh/α   predicted    -0.5821561E-04 ( -30.07%)
   displ. norm   :     0.1677232 α      lambda       -0.1097329E-03
   maximum displ.:     0.0847440 α      in ANC's #10, #13, #2, ...

........................................................................
.............................. CYCLE   24 ..............................
........................................................................

 iter      E             dE          RMSdq      gap      omega  full diag
   1    -88.8031159 -0.888031E+02  0.249E-02    1.99       0.0  T
   2    -88.8031169 -0.971525E-06  0.145E-02    1.99       1.0  T
   3    -88.8031162  0.743130E-06  0.503E-03    1.99       2.6  T
   4    -88.8031171 -0.944404E-06  0.109E-03    1.99      12.1  T
   5    -88.8031172 -0.450099E-07  0.419E-04    1.99      31.6  T
   6    -88.8031172 -0.231006E-08  0.218E-04    1.99      60.7  T
     SCC iter.                  ...        0 min,  0.043 sec
     gradient                   ...        0 min,  0.045 sec
 * total energy  :   -87.6447915 Eh     change       -0.8791619E-04 Eh
   gradient norm :     0.0041518 Eh/α   predicted    -0.5641837E-04 ( -35.83%)
   displ. norm   :     0.3357114 α      lambda       -0.1807672E-03
   maximum displ.:     0.1529839 α      in ANC's #13, #10, #2, ...

........................................................................
.............................. CYCLE   25 ..............................
........................................................................

 iter      E             dE          RMSdq      gap      omega  full diag
   1    -88.8006549 -0.888007E+02  0.481E-02    1.99       0.0  T
   2    -88.8006568 -0.185737E-05  0.284E-02    1.99       1.0  T
   3    -88.8006553  0.152507E-05  0.682E-03    1.99       1.9  T
   4    -88.8006573 -0.199809E-05  0.165E-03    1.99       8.0  T
   5    -88.8006573 -0.611995E-07  0.807E-04    1.99      16.4  T
   6    -88.8006573 -0.704425E-08  0.351E-04    1.99      37.8  T
     SCC iter.                  ...        0 min,  0.037 sec
     gradient                   ...        0 min,  0.042 sec
 * total energy  :   -87.6449023 Eh     change       -0.1107430E-03 Eh
   gradient norm :     0.0070402 Eh/α   predicted    -0.1005717E-03 (  -9.18%)
   displ. norm   :     0.1057339 α      lambda       -0.7230540E-04
   maximum displ.:     0.0485356 α      in ANC's #2, #12, #13, ...

........................................................................
.............................. CYCLE   26 ..............................
........................................................................

 iter      E             dE          RMSdq      gap      omega  full diag
   1    -88.7995699 -0.887996E+02  0.153E-02    1.99       0.0  T
   2    -88.7995701 -0.214605E-06  0.902E-03    1.99       1.5  T
   3    -88.7995699  0.159743E-06  0.214E-03    1.99       6.2  T
   4    -88.7995701 -0.206160E-06  0.581E-04    1.99      22.8  T
   5    -88.7995701 -0.104115E-07  0.256E-04    1.99      51.8  T
     SCC iter.                  ...        0 min,  0.034 sec
     gradient                   ...        0 min,  0.044 sec
 * total energy  :   -87.6449664 Eh     change       -0.6409946E-04 Eh
   gradient norm :     0.0063794 Eh/α   predicted    -0.3658735E-04 ( -42.92%)
   displ. norm   :     0.3044347 α      lambda       -0.3278359E-03
   maximum displ.:     0.1493578 α      in ANC's #2, #12, #15, ...

........................................................................
.............................. CYCLE   27 ..............................
........................................................................

 iter      E             dE          RMSdq      gap      omega  full diag
   1    -88.7974439 -0.887974E+02  0.489E-02    1.99       0.0  T
   2    -88.7974507 -0.675134E-05  0.286E-02    1.99       1.0  T
   3    -88.7974474  0.327659E-05  0.120E-02    1.99       1.1  T
   4    -88.7974518 -0.443836E-05  0.308E-03    1.99       4.3  T
   5    -88.7974522 -0.415897E-06  0.101E-03    1.99      13.1  T
   6    -88.7974523 -0.184546E-07  0.517E-04    1.99      25.6  T
   7    -88.7974523 -0.576425E-08  0.165E-04    1.99      80.1  T
     SCC iter.                  ...        0 min,  0.049 sec
     gradient                   ...        0 min,  0.042 sec
 * total energy  :   -87.6451616 Eh     change       -0.1951647E-03 Eh
   gradient norm :     0.0071544 Eh/α   predicted    -0.1791520E-03 (  -8.20%)
   displ. norm   :     0.2440346 α      lambda       -0.1228296E-03
   maximum displ.:     0.1220551 α      in ANC's #2, #12, #13, ...

........................................................................
.............................. CYCLE   28 ..............................
........................................................................

 iter      E             dE          RMSdq      gap      omega  full diag
   1    -88.7958590 -0.887959E+02  0.354E-02    1.99       0.0  T
   2    -88.7958601 -0.116106E-05  0.208E-02    1.99       1.0  T
   3    -88.7958597  0.435568E-06  0.408E-03    1.99       3.2  T
   4    -88.7958603 -0.592616E-06  0.161E-03    1.99       8.2  T
   5    -88.7958604 -0.908196E-07  0.615E-04    1.99      21.5  T
   6    -88.7958604 -0.432934E-09  0.212E-04    1.99      62.5  T
     SCC iter.                  ...        0 min,  0.022 sec
     gradient                   ...        0 min,  0.053 sec
 * total energy  :   -87.6452240 Eh     change       -0.6245195E-04 Eh
   gradient norm :     0.0115305 Eh/α   predicted    -0.6507421E-04 (   4.20%)
   displ. norm   :     0.2256129 α      lambda       -0.2814082E-03
   maximum displ.:     0.1232258 α      in ANC's #2, #12, #9, ...

........................................................................
.............................. CYCLE   29 ..............................
........................................................................

 iter      E             dE          RMSdq      gap      omega  full diag
   1    -88.7991062 -0.887991E+02  0.357E-02    1.99       0.0  T
   2    -88.7991087 -0.254318E-05  0.207E-02    1.99       1.0  T
   3    -88.7991070  0.168250E-05  0.737E-03    1.99       1.8  T
   4    -88.7991091 -0.211015E-05  0.200E-03    1.99       6.6  T
   5    -88.7991093 -0.151878E-06  0.731E-04    1.99      18.1  T
   6    -88.7991093 -0.450358E-08  0.359E-04    1.99      36.9  T
     SCC iter.                  ...        0 min,  0.055 sec
     gradient                   ...        0 min,  0.042 sec
 * total energy  :   -87.6454199 Eh     change       -0.1958968E-03 Eh
   gradient norm :     0.0093868 Eh/α   predicted    -0.1478666E-03 ( -24.52%)
   displ. norm   :     0.2931742 α      lambda       -0.2334718E-03
   maximum displ.:     0.1806688 α      in ANC's #2, #12, #3, ...

........................................................................
.............................. CYCLE   30 ..............................
........................................................................

 iter      E             dE          RMSdq      gap      omega  full diag
   1    -88.8006808 -0.888007E+02  0.429E-02    2.00       0.0  T
   2    -88.8006821 -0.127769E-05  0.252E-02    2.00       1.0  T
   3    -88.8006814  0.716561E-06  0.449E-03    2.00       2.9  T
   4    -88.8006824 -0.105541E-05  0.133E-03    2.00      10.0  T
   5    -88.8006825 -0.350781E-07  0.637E-04    2.00      20.8  T
   6    -88.8006825 -0.234061E-08  0.205E-04    2.00      64.6  T
     SCC iter.                  ...        0 min,  0.053 sec
     gradient                   ...        0 min,  0.045 sec
 * total energy  :   -87.6456086 Eh     change       -0.1886833E-03 Eh
   gradient norm :     0.0076346 Eh/α   predicted    -0.1267799E-03 ( -32.81%)
   displ. norm   :     0.3975264 α      lambda       -0.3279885E-03
   maximum displ.:     0.2643558 α      in ANC's #2, #13, #3, ...

........................................................................
.............................. CYCLE   31 ..............................
........................................................................

 iter      E             dE          RMSdq      gap      omega  full diag
   1    -88.8022935 -0.888023E+02  0.596E-02    2.01       0.0  T
   2    -88.8022975 -0.396977E-05  0.346E-02    2.01       1.0  T
   3    -88.8022948  0.270513E-05  0.945E-03    2.01       1.4  T
   4    -88.8022983 -0.348812E-05  0.249E-03    2.01       5.3  T
   5    -88.8022985 -0.221016E-06  0.105E-03    2.01      12.6  T
   6    -88.8022985 -0.639488E-08  0.495E-04    2.01      26.7  T
   7    -88.8022985 -0.805572E-08  0.123E-04    2.01     108.0  T
     SCC iter.                  ...        0 min,  0.047 sec
     gradient                   ...        0 min,  0.044 sec
 * total energy  :   -87.6458492 Eh     change       -0.2406623E-03 Eh
   gradient norm :     0.0049710 Eh/α   predicted    -0.1899129E-03 ( -21.09%)
   displ. norm   :     0.5843202 α      lambda       -0.2809359E-03
   maximum displ.:     0.3759071 α      in ANC's #2, #13, #12, ...

........................................................................
.............................. CYCLE   32 ..............................
........................................................................

 iter      E             dE          RMSdq      gap      omega  full diag
   1    -88.7955660 -0.887956E+02  0.874E-02    2.02       0.0  T
   2    -88.7955728 -0.676493E-05  0.509E-02    2.02       1.0  T
   3    -88.7955704  0.235320E-05  0.965E-03    2.02       1.4  T
   4    -88.7955739 -0.349632E-05  0.367E-03    2.02       3.6  T
   5    -88.7955743 -0.443411E-06  0.167E-03    2.02       7.9  T
   6    -88.7955744 -0.187589E-07  0.630E-04    2.02      21.0  T
   7    -88.7955744 -0.103139E-07  0.176E-04    2.02      75.1  T
     SCC iter.                  ...        0 min,  0.026 sec
     gradient                   ...        0 min,  0.075 sec
 * total energy  :   -87.6458319 Eh     change        0.1736162E-04 Eh
   gradient norm :     0.0149096 Eh/α   predicted    -0.1884387E-03 (*******%)
   displ. norm   :     0.1071739 α      lambda       -0.6234075E-03
   maximum displ.:     0.0496774 α      in ANC's #2, #12, #15, ...

........................................................................
.............................. CYCLE   33 ..............................
........................................................................

 iter      E             dE          RMSdq      gap      omega  full diag
   1    -88.8013537 -0.888014E+02  0.394E-02    2.03       0.0  T
   2    -88.8013623 -0.855558E-05  0.212E-02    2.03       1.0  T
   3    -88.8013619  0.377230E-06  0.903E-03    2.03       1.5  T
   4    -88.8013626 -0.655241E-06  0.365E-03    2.03       3.6  T
   5    -88.8013631 -0.567205E-06  0.110E-03    2.03      12.0  T
   6    -88.8013631  0.320010E-08  0.463E-04    2.03      28.6  T
   7    -88.8013631 -0.812459E-08  0.131E-04    2.03     101.2  T
     SCC iter.                  ...        0 min,  0.026 sec
     gradient                   ...        0 min,  0.082 sec
 * total energy  :   -87.6461064 Eh     change       -0.2745616E-03 Eh
   gradient norm :     0.0056496 Eh/α   predicted    -0.3152863E-03 (  14.83%)
   displ. norm   :     0.2246164 α      lambda       -0.9819646E-04
   maximum displ.:     0.1576225 α      in ANC's #2, #13, #3, ...

........................................................................
.............................. CYCLE   34 ..............................
........................................................................

 iter      E             dE          RMSdq      gap      omega  full diag
   1    -88.8003331 -0.888003E+02  0.324E-02    2.03       0.0  T
   2    -88.8003338 -0.634674E-06  0.190E-02    2.03       1.0  T
   3    -88.8003335  0.280614E-06  0.289E-03    2.03       4.6  T
   4    -88.8003339 -0.423301E-06  0.113E-03    2.03      11.7  T
   5    -88.8003339 -0.388569E-07  0.510E-04    2.03      26.0  T
   6    -88.8003339 -0.154432E-08  0.212E-04    2.03      62.5  T
     SCC iter.                  ...        0 min,  0.067 sec
     gradient                   ...        0 min,  0.045 sec
 * total energy  :   -87.6461890 Eh     change       -0.8252925E-04 Eh
   gradient norm :     0.0047437 Eh/α   predicted    -0.5157611E-04 ( -37.51%)
   displ. norm   :     0.4186185 α      lambda       -0.1606750E-03
   maximum displ.:     0.3025793 α      in ANC's #2, #13, #3, ...

........................................................................
.............................. CYCLE   35 ..............................
........................................................................

 iter      E             dE          RMSdq      gap      omega  full diag
   1    -88.7990381 -0.887990E+02  0.606E-02    2.03       0.0  T
   2    -88.7990409 -0.278092E-05  0.355E-02    2.03       1.0  T
   3    -88.7990404  0.500893E-06  0.481E-03    2.03       2.8  T
   4    -88.7990414 -0.990167E-06  0.201E-03    2.03       6.6  T
   5    -88.7990415 -0.126361E-06  0.912E-04    2.03      14.5  T
   6    -88.7990415 -0.408291E-08  0.365E-04    2.03      36.3  T
     SCC iter.                  ...        0 min,  0.042 sec
     gradient                   ...        0 min,  0.042 sec
 * total energy  :   -87.6462680 Eh     change       -0.7905160E-04 Eh
   gradient norm :     0.0067255 Eh/α   predicted    -0.9441802E-04 (  19.44%)
   displ. norm   :     0.0462389 α      lambda       -0.7523836E-04
   maximum displ.:     0.0236462 α      in ANC's #4, #7, #14, ...

........................................................................
.............................. CYCLE   36 ..............................
........................................................................

 iter      E             dE          RMSdq      gap      omega  full diag
   1    -88.8016517 -0.888017E+02  0.115E-02    2.03       0.0  T
   2    -88.8016522 -0.556083E-06  0.641E-03    2.03       2.1  T
   3    -88.8016521  0.120103E-06  0.302E-03    2.03       4.4  T
   4    -88.8016523 -0.197050E-06  0.891E-04    2.03      14.9  T
   5    -88.8016524 -0.294382E-07  0.351E-04    2.03      37.7  T
     SCC iter.                  ...        0 min,  0.055 sec
     gradient                   ...        0 min,  0.095 sec
 * total energy  :   -87.6463190 Eh     change       -0.5092730E-04 Eh
   gradient norm :     0.0039524 Eh/α   predicted    -0.3770050E-04 ( -25.97%)
   displ. norm   :     0.1735491 α      lambda       -0.6230760E-04
   maximum displ.:     0.1372624 α      in ANC's #2, #13, #5, ...

........................................................................
.............................. CYCLE   37 ..............................
........................................................................

 iter      E             dE          RMSdq      gap      omega  full diag
   1    -88.8023294 -0.888023E+02  0.266E-02    2.03       0.0  T
   2    -88.8023298 -0.428476E-06  0.154E-02    2.03       1.0  T
   3    -88.8023297  0.117720E-06  0.228E-03    2.03       5.8  T
   4    -88.8023299 -0.217701E-06  0.850E-04    2.03      15.6  T
   5    -88.8023299 -0.190568E-07  0.410E-04    2.03      32.3  T
     SCC iter.                  ...        0 min,  0.019 sec
     gradient                   ...        0 min,  0.075 sec
 * total energy  :   -87.6463657 Eh     change       -0.4673336E-04 Eh
   gradient norm :     0.0025653 Eh/α   predicted    -0.3209209E-04 ( -31.33%)
   displ. norm   :     0.2523320 α      lambda       -0.5742980E-04
   maximum displ.:     0.1994473 α      in ANC's #2, #13, #12, ...

........................................................................
.............................. CYCLE   38 ..............................
........................................................................

 iter      E             dE          RMSdq      gap      omega  full diag
   1    -88.8019440 -0.888019E+02  0.383E-02    2.02       0.0  T
   2    -88.8019445 -0.520621E-06  0.224E-02    2.02       1.0  T
   3    -88.8019444  0.154379E-06  0.284E-03    2.02       4.7  T
   4    -88.8019448 -0.360121E-06  0.100E-03    2.02      13.2  T
   5    -88.8019448 -0.703851E-08  0.470E-04    2.02      28.2  T
   6    -88.8019448 -0.532413E-08  0.140E-04    2.02      94.6  T
     SCC iter.                  ...        0 min,  0.022 sec
     gradient                   ...        0 min,  0.081 sec
 * total energy  :   -87.6464075 Eh     change       -0.4178838E-04 Eh
   gradient norm :     0.0015970 Eh/α   predicted    -0.3054302E-04 ( -26.91%)
   displ. norm   :     0.3299823 α      lambda       -0.3756335E-04
   maximum displ.:     0.2622956 α      in ANC's #2, #13, #5, ...

........................................................................
.............................. CYCLE   39 ..............................
........................................................................

 iter      E             dE          RMSdq      gap      omega  full diag
   1    -88.8011889 -0.888012E+02  0.505E-02    2.01       0.0  T
   2    -88.8011898 -0.900427E-06  0.295E-02    2.01       1.0  T
   3    -88.8011895  0.351317E-06  0.394E-03    2.02       3.4  T
   4    -88.8011902 -0.717480E-06  0.135E-03    2.02       9.8  T
   5    -88.8011902 -0.154372E-07  0.614E-04    2.02      21.6  T
   6    -88.8011902 -0.783257E-08  0.180E-04    2.02      73.6  T
     SCC iter.                  ...        0 min,  0.069 sec
     gradient                   ...        0 min,  0.045 sec
 * total energy  :   -87.6464317 Eh     change       -0.2425451E-04 Eh
   gradient norm :     0.0029229 Eh/α   predicted    -0.1969348E-04 ( -18.80%)
   displ. norm   :     0.0557742 α      lambda       -0.2735850E-04
   maximum displ.:     0.0292444 α      in ANC's #4, #2, #9, ...

........................................................................
.............................. CYCLE   40 ..............................
........................................................................

 iter      E             dE          RMSdq      gap      omega  full diag
   1    -88.8022835 -0.888023E+02  0.974E-03    2.01       0.0  T
   2    -88.8022837 -0.147128E-06  0.563E-03    2.01       2.4  T
   3    -88.8022837  0.563941E-08  0.989E-04    2.01      13.4  T
   4    -88.8022837 -0.210843E-07  0.371E-04    2.01      35.7  T
     SCC iter.                  ...        0 min,  0.015 sec
     gradient                   ...        0 min,  0.083 sec
 * total energy  :   -87.6464464 Eh     change       -0.1465265E-04 Eh
   gradient norm :     0.0023983 Eh/α   predicted    -0.1372315E-04 (  -6.34%)
   displ. norm   :     0.0374179 α      lambda       -0.1331806E-04
   maximum displ.:     0.0189421 α      in ANC's #4, #2, #15, ...

........................................................................
.............................. CYCLE   41 ..............................
........................................................................

 iter      E             dE          RMSdq      gap      omega  full diag
   1    -88.8028491 -0.888028E+02  0.590E-03    2.02       0.0  T
   2    -88.8028491 -0.443403E-07  0.349E-03    2.02       3.8  T
   3    -88.8028491  0.340788E-07  0.989E-04    2.02      13.4  T
   4    -88.8028492 -0.468742E-07  0.200E-04    2.02      66.3  T
     SCC iter.                  ...        0 min,  0.015 sec
     gradient                   ...        0 min,  0.090 sec
 * total energy  :   -87.6464570 Eh     change       -0.1062142E-04 Eh
   gradient norm :     0.0014549 Eh/α   predicted    -0.6672979E-05 ( -37.17%)
   displ. norm   :     0.1253137 α      lambda       -0.1681131E-04
   maximum displ.:     0.0692812 α      in ANC's #2, #4, #3, ...

........................................................................
.............................. CYCLE   42 ..............................
........................................................................

 iter      E             dE          RMSdq      gap      omega  full diag
   1    -88.8028870 -0.888029E+02  0.198E-02    2.02       0.0  T
   2    -88.8028873 -0.276938E-06  0.116E-02    2.02       1.1  T
   3    -88.8028868  0.419308E-06  0.310E-03    2.02       4.3  T
   4    -88.8028874 -0.528808E-06  0.650E-04    2.02      20.4  T
   5    -88.8028874 -0.870928E-08  0.334E-04    2.02      39.6  T
     SCC iter.                  ...        0 min,  0.064 sec
     gradient                   ...        0 min,  0.045 sec
 * total energy  :   -87.6464682 Eh     change       -0.1121141E-04 Eh
   gradient norm :     0.0014415 Eh/α   predicted    -0.8469122E-05 ( -24.46%)
   displ. norm   :     0.0315911 α      lambda       -0.4645915E-05
   maximum displ.:     0.0195210 α      in ANC's #4, #3, #5, ...
 * RMSD in coord.:     0.5156338 α      energy gain  -0.2076478E-02 Eh

generating ANC from exact Hessian ...
Using Lindh-Hessian (1995)
 Shifting diagonal of input Hessian by    9.9003799077403976E-003
 Lowest  eigenvalues of input Hessian
    0.000000    0.000000    0.000000    0.000000    0.000000    0.000000
    0.010000    0.010228    0.010320    0.010890    0.011045    0.011451
    0.011887    0.012824    0.013535    0.014766    0.017436    0.017769
 Highest eigenvalues
    1.976876    1.983253    2.085758    2.208834    2.210059    2.370992


........................................................................
.............................. CYCLE   43 ..............................
........................................................................

 iter      E             dE          RMSdq      gap      omega  full diag
   1    -88.8030383 -0.888030E+02  0.427E-03    2.02       0.0  T
   2    -88.8030383 -0.330325E-07  0.249E-03    2.02       5.3  T
   3    -88.8030383  0.200254E-07  0.728E-04    2.02      18.2  T
   4    -88.8030383 -0.257654E-07  0.213E-04    2.02      62.1  T
     SCC iter.                  ...        0 min,  0.015 sec
     gradient                   ...        0 min,  0.084 sec
 * total energy  :   -87.6464737 Eh     change       -0.5457524E-05 Eh
   gradient norm :     0.0011147 Eh/α   predicted     0.0000000E+00 (-100.00%)
   displ. norm   :     0.0229606 α      lambda       -0.4489679E-05
   maximum displ.:     0.0112063 α      in ANC's #4, #2, #3, ...

........................................................................
.............................. CYCLE   44 ..............................
........................................................................

 iter      E             dE          RMSdq      gap      omega  full diag
   1    -88.8026101 -0.888026E+02  0.360E-03    2.02       0.0  T
   2    -88.8026101 -0.172253E-07  0.211E-03    2.02       6.3  T
   3    -88.8026101  0.282240E-08  0.400E-04    2.02      33.1  T
   4    -88.8026101 -0.536676E-08  0.147E-04    2.02      90.1  T
     SCC iter.                  ...        0 min,  0.054 sec
     gradient                   ...        0 min,  0.044 sec
 * total energy  :   -87.6464789 Eh     change       -0.5217983E-05 Eh
   gradient norm :     0.0003381 Eh/α   predicted    -0.2301274E-05 ( -55.90%)
   displ. norm   :     0.0534075 α      lambda       -0.5855703E-05
   maximum displ.:     0.0280401 α      in ANC's #4, #2, #3, ...

........................................................................
.............................. CYCLE   45 ..............................
........................................................................

 iter      E             dE          RMSdq      gap      omega  full diag
   1    -88.8023651 -0.888024E+02  0.648E-03    2.02       0.0  T
   2    -88.8023651 -0.346781E-07  0.380E-03    2.02       3.5  T
   3    -88.8023651  0.460730E-08  0.528E-04    2.02      25.1  T
   4    -88.8023651 -0.102052E-07  0.253E-04    2.02      52.3  T
     SCC iter.                  ...        0 min,  0.015 sec
     gradient                   ...        0 min,  0.083 sec
 * total energy  :   -87.6464852 Eh     change       -0.6347135E-05 Eh
   gradient norm :     0.0007497 Eh/α   predicted    -0.2931778E-05 ( -53.81%)
   displ. norm   :     0.0577363 α      lambda       -0.4190349E-05
   maximum displ.:     0.0312234 α      in ANC's #4, #2, #3, ...

........................................................................
.............................. CYCLE   46 ..............................
........................................................................

 iter      E             dE          RMSdq      gap      omega  full diag
   1    -88.8023183 -0.888023E+02  0.670E-03    2.02       0.0  T
   2    -88.8023183 -0.262557E-07  0.390E-03    2.02       3.4  T
   3    -88.8023183  0.111410E-07  0.604E-04    2.01      21.9  T
   4    -88.8023183 -0.176487E-07  0.246E-04    2.01      53.9  T
     SCC iter.                  ...        0 min,  0.015 sec
     gradient                   ...        0 min,  0.084 sec
 * total energy  :   -87.6464904 Eh     change       -0.5179535E-05 Eh
   gradient norm :     0.0008391 Eh/α   predicted    -0.2108161E-05 ( -59.30%)
   displ. norm   :     0.0786101 α      lambda       -0.5339090E-05
   maximum displ.:     0.0436352 α      in ANC's #2, #4, #3, ...

........................................................................
.............................. CYCLE   47 ..............................
........................................................................

 iter      E             dE          RMSdq      gap      omega  full diag
   1    -88.8023601 -0.888024E+02  0.923E-03    2.02       0.0  T
   2    -88.8023601 -0.447137E-07  0.536E-03    2.02       2.5  T
   3    -88.8023601  0.228989E-07  0.864E-04    2.02      15.3  T
   4    -88.8023601 -0.362816E-07  0.317E-04    2.02      41.8  T
     SCC iter.                  ...        0 min,  0.015 sec
     gradient                   ...        0 min,  0.083 sec
 * total energy  :   -87.6464972 Eh     change       -0.6786808E-05 Eh
   gradient norm :     0.0006017 Eh/α   predicted    -0.2685402E-05 ( -60.43%)
   displ. norm   :     0.1177911 α      lambda       -0.7305868E-05
   maximum displ.:     0.0669740 α      in ANC's #2, #4, #3, ...

........................................................................
.............................. CYCLE   48 ..............................
........................................................................

 iter      E             dE          RMSdq      gap      omega  full diag
   1    -88.8024591 -0.888025E+02  0.136E-02    2.02       0.0  T
   2    -88.8024592 -0.923491E-07  0.787E-03    2.02       1.7  T
   3    -88.8024591  0.380716E-07  0.121E-03    2.02      11.0  T
   4    -88.8024592 -0.651769E-07  0.460E-04    2.02      28.8  T
   5    -88.8024592 -0.497023E-08  0.197E-04    2.02      67.4  T
     SCC iter.                  ...        0 min,  0.019 sec
     gradient                   ...        0 min,  0.077 sec
 * total energy  :   -87.6465060 Eh     change       -0.8833359E-05 Eh
   gradient norm :     0.0003970 Eh/α   predicted    -0.3675921E-05 ( -58.39%)
   displ. norm   :     0.1396409 α      lambda       -0.6958403E-05
   maximum displ.:     0.0811734 α      in ANC's #2, #4, #3, ...

........................................................................
.............................. CYCLE   49 ..............................
........................................................................

 iter      E             dE          RMSdq      gap      omega  full diag
   1    -88.8024945 -0.888025E+02  0.159E-02    2.02       0.0  T
   2    -88.8024947 -0.135404E-06  0.921E-03    2.01       1.4  T
   3    -88.8024946  0.747852E-07  0.158E-03    2.01       8.4  T
   4    -88.8024947 -0.118824E-06  0.548E-04    2.01      24.2  T
   5    -88.8024947 -0.631644E-08  0.240E-04    2.01      55.2  T
     SCC iter.                  ...        0 min,  0.054 sec
     gradient                   ...        0 min,  0.045 sec
 * total energy  :   -87.6465139 Eh     change       -0.7825174E-05 Eh
   gradient norm :     0.0004510 Eh/α   predicted    -0.3510183E-05 ( -55.14%)
   displ. norm   :     0.1067253 α      lambda       -0.3985964E-05
   maximum displ.:     0.0648570 α      in ANC's #2, #4, #3, ...

........................................................................
.............................. CYCLE   50 ..............................
........................................................................

 iter      E             dE          RMSdq      gap      omega  full diag
   1    -88.8026011 -0.888026E+02  0.121E-02    2.01       0.0  T
   2    -88.8026012 -0.805238E-07  0.701E-03    2.01       1.9  T
   3    -88.8026012  0.127550E-07  0.978E-04    2.01      13.6  T
   4    -88.8026012 -0.358127E-07  0.413E-04    2.01      32.1  T
     SCC iter.                  ...        0 min,  0.055 sec
     gradient                   ...        0 min,  0.042 sec
 * total energy  :   -87.6465182 Eh     change       -0.4385360E-05 Eh
   gradient norm :     0.0003841 Eh/α   predicted    -0.2003344E-05 ( -54.32%)
   displ. norm   :     0.0555150 α      lambda       -0.1918953E-05
   maximum displ.:     0.0367985 α      in ANC's #2, #4, #3, ...

   *** GEOMETRY OPTIMIZATION CONVERGED AFTER 50 ITERATIONS ***

------------------------------------------------------------------------
 total energy gain   :        -0.0166773 Eh      -10.4651 kcal/mol
 total RMSD          :         0.9264306 a0        0.4902 Å
 total power (kW/mol):        -0.8757224 (step)   -8.2672 (real)
------------------------------------------------------------------------

 ANCopt (total)                0 d,  0 h,  0 min,  5.296 sec
 optimizer setup                ...        0 min,  0.000 sec (  0.002%)
 model hessian                  ...        0 min,  0.150 sec (  2.840%)
 ANC generation                 ...        0 min,  0.016 sec (  0.308%)
 coordinate transformation      ...        0 min,  0.001 sec (  0.012%)
 single point calculation       ...        0 min,  5.073 sec ( 95.786%)
 optimization log               ...        0 min,  0.010 sec (  0.180%)
 hessian update                 ...        0 min,  0.001 sec (  0.019%)
 rational function              ...        0 min,  0.043 sec (  0.818%)

================
 final structure:
================
57
 xtb: 6.7.1 (edcfbbe)
O           -3.62065748041732       -2.07153568835169        1.52847194230783
C           -3.20642828708645       -1.07242468130758        0.96225603656469
C           -2.39387982842733       -1.05377849192394       -0.22695556242042
C           -2.03740222470006       -2.39252176995304       -0.80141572878594
C           -0.86420063261754       -3.01310551951453       -0.02674848262369
N            0.35627068367275       -2.24569069537907       -0.22377149507223
C            1.19912554816188       -2.79761449034040       -1.26724731923068
C            2.31910996304459       -1.82514511663160       -1.62686643687338
C            3.14593998572682       -1.48161310634312       -0.38319121439049
C            2.21039646387964       -0.99604145830352        0.72834461455477
C            1.12383114332931       -2.03441933459468        0.98698180796140
C            4.17538873565047       -0.45555007884354       -0.70419906471842
N            5.44205637896959       -0.71965424499824       -0.60734841936436
O            6.16809598745007        0.38467561108936       -0.96266021067653
C            5.31068215032439        1.36482560954648       -1.28998048735292
C            3.98754611215634        0.89893993199257       -1.14898671887479
C            2.91788020893075        1.74784973577442       -1.43393933562439
C            3.19850945475153        3.02892348172377       -1.84759439027416
C            4.52331513637814        3.45437916618914       -1.97541385888890
F            4.74019523024856        4.71892843878709       -2.38352127981871
C            5.61154254036027        2.65403357731291       -1.70706333099599
C           -1.96534392225586        0.14373941037237       -0.72079533253688
N           -2.30666123104536        1.32184645041804       -0.14070961559772
C           -3.06259045063346        1.32655094791798        0.90946309582844
N           -3.53154143562174        0.19645186600133        1.48120722653407
C           -4.34739844984450        0.18309657245241        2.68560860683301
C           -5.04589444044338        1.50959113514634        2.92298465050729
C           -4.00959532812180        2.62417590619103        2.86525314887637
C           -3.43878153550807        2.67484026745770        1.45501182706229
C           -1.09613724378498        0.26881955757009       -1.93051856357911
H           -2.89844971674858       -3.05381362885924       -0.68543019664903
H           -1.78784713485114       -2.30743305423921       -1.85779096803235
H           -0.73402118116902       -4.05964820894254       -0.33852790820947
H           -1.12950593802125       -3.01691257755780        1.03217217027716
H            1.64274571386521       -3.76216075659871       -0.95485559963747
H            0.58172923339895       -2.98191231875241       -2.14996729180706
H            1.89000411841583       -0.91194075961672       -2.04084268793909
H            2.96094891057460       -2.27368636325811       -2.38730075067630
H            3.67169144517987       -2.37982572436247       -0.04309735309971
H            2.77914799070638       -0.81989903844492        1.64291518794813
H            1.73419405252807       -0.06158586534374        0.43160979311201
H            0.44905447431974       -1.66473472261094        1.76269030092889
H            1.58715661161793       -2.97124666403710        1.34884642366798
H            1.89665785153038        1.41794317825309       -1.33271627425736
H            2.40904077172296        3.72610739347040       -2.07877055080336
H            6.62245003325620        3.00756274960661       -1.81383722083620
H           -3.69741599637249       -0.06207219573122        3.53420822238567
H           -5.05949966853331       -0.64042997215580        2.57559097054883
H           -5.54029123454039        1.48029378738424        3.89411830010132
H           -5.80641597098465        1.67503239054691        2.15706355155533
H           -4.45714730483879        3.58611937141136        3.11782251618132
H           -3.21514627267586        2.42206449716074        3.58669582136161
H           -2.55755255029965        3.31475623193468        1.39790024562119
H           -4.18175924295083        3.09755455050773        0.77166658905671
H           -0.23143972178935       -0.37896897513858       -1.82370046335506
H           -0.78685319542567        1.30429690146716       -2.03991032594231
H           -1.64464931044441       -0.02813321554485       -2.82320861082906

 Bond Distances (Angstroems)
 ---------------------------
O1-C2=1.2208         C2-O1=1.2208         C2-C3=1.4404         C2-N25=1.4089        C3-C2=1.4404         C3-C4=1.4998         
C3-C22=1.3644        C4-C3=1.4998         C4-C5=1.5368         C4-H31=1.0919        C4-H32=1.0888        C5-C4=1.5368         
C5-N6=1.4551         C5-H33=1.0997        C5-H34=1.0917        N6-C5=1.4551         N6-C7=1.4505         N6-C11=1.4490        
C7-N6=1.4505         C7-C8=1.5262         C7-H35=1.1067        C7-H36=1.0929        C8-C7=1.5262         C8-C9=1.5324         
C8-H37=1.0906        C8-H38=1.0915        C9-C8=1.5324         C9-C10=1.5318        C9-C12=1.4885        C9-H39=1.0949        
C10-C9=1.5318        C10-C11=1.5250       C10-H40=1.0913       C10-H41=1.0900       C11-N6=1.4490        C11-C10=1.5250       
C11-H42=1.0926       C11-H43=1.1060       C12-C9=1.4885        C12-N13=1.2975       C12-C16=1.4380       N13-C12=1.2975       
N13-O14=1.3685       O14-N13=1.3685       O14-C15=1.3428       C15-O14=1.3428       C15-C16=1.4098       C15-C21=1.3880       
C16-C12=1.4380       C16-C15=1.4098       C16-C17=1.3950       C17-C16=1.3950       C17-C18=1.3751       C17-H44=1.0780       
C18-C17=1.3751       C18-C19=1.3973       C18-H45=1.0783       C19-C18=1.3973       C19-F20=1.3464       C19-C21=1.3772       
F20-C19=1.3464       C21-C15=1.3880       C21-C19=1.3772       C21-H46=1.0763       C22-C3=1.3644        C22-N23=1.3568       
C22-C30=1.4949       N23-C22=1.3568       N23-C24=1.2940       C24-N23=1.2940       C24-N25=1.3505       C24-C29=1.5023       
N25-C2=1.4089        N25-C24=1.3505       N25-C26=1.4548       C26-N25=1.4548       C26-C27=1.5178       C26-H47=1.0967       
C26-H48=1.0943       C27-C26=1.5178       C27-C28=1.5230       C27-H49=1.0901       C27-H50=1.0920       C28-C27=1.5230       
C28-C29=1.5222       C28-H51=1.0906       C28-H52=1.0920       C29-C24=1.5023       C29-C28=1.5222       C29-H53=1.0906       
C29-H54=1.0944       C30-C22=1.4949       C30-H55=1.0857       C30-H56=1.0862       C30-H57=1.0890       H31-C4=1.0919        
H32-C4=1.0888        H33-C5=1.0997        H34-C5=1.0917        H35-C7=1.1067        H36-C7=1.0929        H37-C8=1.0906        
H38-C8=1.0915        H39-C9=1.0949        H40-C10=1.0913       H41-C10=1.0900       H42-C11=1.0926       H43-C11=1.1060       
H44-C17=1.0780       H45-C18=1.0783       H46-C21=1.0763       H47-C26=1.0967       H48-C26=1.0943       H49-C27=1.0901       
H50-C27=1.0920       H51-C28=1.0906       H52-C28=1.0920       H53-C29=1.0906       H54-C29=1.0944       H55-C30=1.0857       
H56-C30=1.0862       H57-C30=1.0890       
 C  H  Rav=1.0912 sigma=0.0068  Rmin=1.0763  Rmax=1.1067    27
 C  C  Rav=1.4660 sigma=0.0620  Rmin=1.3644  Rmax=1.5368    21
 N  C  Rav=1.3908 sigma=0.0636  Rmin=1.2940  Rmax=1.4551     9
 O  C  Rav=1.2818 sigma=0.0610  Rmin=1.2208  Rmax=1.3428     2
 O  N  Rav=1.3685 sigma=0.0000  Rmin=1.3685  Rmax=1.3685     1
 F  C  Rav=1.3464 sigma=0.0000  Rmin=1.3464  Rmax=1.3464     1

 selected bond angles (degree)
 --------------------
C3-C2-O1=125.80                N25-C2-O1=119.20               N25-C2-C3=115.00               C4-C3-C2=116.02                
C22-C3-C2=119.17               C22-C3-C4=124.76               C5-C4-C3=110.42                H31-C4-C3=108.21               
H31-C4-C5=107.69               H32-C4-C3=110.88               H32-C4-C5=110.22               H32-C4-H31=109.34              
N6-C5-C4=111.04                H33-C5-C4=109.38               H33-C5-N6=111.36               H34-C5-C4=107.75               
H34-C5-N6=109.70               H34-C5-H33=107.48              C7-N6-C5=112.59                C11-N6-C5=114.08               
C11-N6-C7=110.41               C8-C7-N6=110.70                H35-C7-N6=111.19               H35-C7-C8=109.13               
H36-C7-N6=108.48               H36-C7-C8=109.37               H36-C7-H35=107.91              C9-C8-C7=110.34                
H37-C8-C7=109.53               H37-C8-C9=109.43               H38-C8-C7=109.50               H38-C8-C9=109.89               
H38-C8-H37=108.12              C10-C9-C8=109.29               C12-C9-C8=110.65               C12-C9-C10=111.12              
H39-C9-C8=109.10               H39-C9-C10=109.14              H39-C9-C12=107.48              C11-C10-C9=110.02              
H40-C10-C9=109.94              H40-C10-C11=109.82             H41-C10-C9=109.94              H41-C10-C11=108.58             
H41-C10-H40=108.51             

 selected dihedral angles (degree)
 ---------------------------------
C4-C3-C2-O1=359.96            C4-C3-C2-N25=180.17           C22-C3-C2-O1=182.31           C22-C3-C2-N25=  2.53          
C5-C4-C3-C2=279.83            C5-C4-C3-C22= 97.33           H31-C4-C3-C2= 37.47           H31-C4-C3-C22=214.96          
H32-C4-C3-C2=157.37           H32-C4-C3-C22=334.87          N6-C5-C4-C3=293.22            N6-C5-C4-H31=175.27           
N6-C5-C4-H32= 56.06           H33-C5-C4-C3=169.92           H33-C5-C4-H31= 51.97          H33-C5-C4-H32=292.76          
H34-C5-C4-C3= 53.37           H34-C5-C4-H31=295.42          H34-C5-C4-H32=176.21          C7-N6-C5-C4=263.56            
C7-N6-C5-H33= 25.71           C7-N6-C5-H34=144.57           C11-N6-C5-C4=136.71           C11-N6-C5-H33=258.86          
C11-N6-C5-H34= 17.72          C8-C7-N6-C5=168.95            C8-C7-N6-C11=297.74           H35-C7-N6-C5=290.43           
H35-C7-N6-C11= 59.22          H36-C7-N6-C5= 48.94           H36-C7-N6-C11=177.73          C9-C8-C7-N6= 56.94            
C9-C8-C7-H35=294.25           C9-C8-C7-H36=176.42           H37-C8-C7-N6=296.42           H37-C8-C7-H35=173.73          
H37-C8-C7-H36= 55.90          H38-C8-C7-N6=178.02           H38-C8-C7-H35= 55.33          H38-C8-C7-H36=297.49          
[...]
   J. Seibert, P. Shushkov, S. Spicher, M. Stahn, M. Steiner, T. Strunk,
   J. Stückrath, T. Rose, and J. Unsleber
   
 * started run on 2025/05/15 at 16:32:24.926     
   ID    Z sym.   atoms
    1    8 O      1, 14
    2    6 C      2-5, 7-12, 15-19, 21, 22, 24, 26-30
    3    7 N      6, 13, 23, 25
    4    9 F      20
    5    1 H      31-57

           -------------------------------------------------
          |                Calculation Setup                |
           -------------------------------------------------

          program call               : xtb /rds/general/user/hgt20/home/callum/QDESCP/Risperidone_rdkit_conf_3/Risperidone_rdkit_conf_3.xyz --acc 1 --gfn 2 --chrg 0 --uhf 2 --etemp 300 --input /rds/general/user/hgt20/home/callum/QDESCP/Risperidone_rdkit_conf_3/Risperidone_rdkit_conf_3_xtb.inp -P 1
          hostname                   : login-c
          coordinate file            : /rds/general/user/hgt20/home/callum/QDESCP/Risperidone_rdkit_conf_3/Risperidone_rdkit_conf_3.xyz
          omp threads                :                     1


           -------------------------------------------------
          |                 G F N 2 - x T B                 |
           -------------------------------------------------

        Reference                      10.1021/acs.jctc.8b01176
      * Hamiltonian:
        H0-scaling (s, p, d)           1.850000    2.230000    2.230000
        zeta-weighting                 0.500000
      * Dispersion:
        s8                             2.700000
        a1                             0.520000
        a2                             5.000000
        s9                             5.000000
      * Repulsion:
        kExp                           1.500000    1.000000
        rExp                           1.000000
      * Coulomb:
        alpha                          2.000000
        third order                    shell-resolved
        anisotropic                    true
        a3                             3.000000
        a5                             4.000000
        cn-shift                       1.200000
        cn-exp                         4.000000
        max-rad                        5.000000


          ...................................................
          :                      SETUP                      :
          :.................................................:
          :  # basis functions                 147          :
          :  # atomic orbitals                 147          :
          :  # shells                           87          :
          :  # electrons                       158          :
          :  max. iterations                   250          :
          :  Hamiltonian                  GFN2-xTB          :
          :  restarted?                      false          :
          :  GBSA solvation                  false          :
          :  PC potential                    false          :
          :  electronic temp.          300.0000000     K    :
          :  accuracy                    1.0000000          :
          :  -> integral cutoff          0.2500000E+02      :
          :  -> integral neglect         0.1000000E-07      :
          :  -> SCF convergence          0.1000000E-05 Eh   :
          :  -> wf. convergence          0.1000000E-03 e    :
          :  Broyden damping             0.4000000          :
          :  net charge                          0          :
          :  unpaired electrons                  2          :
          ...................................................

 iter      E             dE          RMSdq      gap      omega  full diag
   1    -88.3616002 -0.883616E+02  0.350E+00    0.16       0.0  T
   2    -88.2828426  0.787576E-01  0.304E+00    0.98       1.0  T
   3    -88.4332924 -0.150450E+00  0.208E+00    1.07       1.0  T
   4    -88.3601617  0.731306E-01  0.187E+00    0.89       1.0  T
   5    -88.4708935 -0.110732E+00  0.155E+00    0.61       1.0  T
   6    -88.5644185 -0.935251E-01  0.101E+00    0.31       1.0  T
   7    -88.4523864  0.112032E+00  0.121E+00    0.27       1.0  T
   8    -88.6123963 -0.160010E+00  0.661E-01    0.05       1.0  T
   9    -88.6533160 -0.409197E-01  0.579E-01    0.15       1.0  T
  10    -88.6648390 -0.115230E-01  0.456E-01    0.10       1.0  T
  11    -88.6378175  0.270215E-01  0.507E-01    0.05       1.0  T
  12    -88.6469392 -0.912167E-02  0.521E-01    0.13       1.0  T
  13    -88.6478751 -0.935923E-03  0.439E-01    0.08       1.0  T
  14    -88.6698247 -0.219496E-01  0.303E-01    0.01       1.0  T
  15    -88.6809626 -0.111379E-01  0.878E-02    0.04       1.0  T
  16    -88.6818592 -0.896605E-03  0.657E-02    0.02       1.0  T
  17    -88.6820126 -0.153402E-03  0.527E-02    0.04       1.0  T
  18    -88.6825214 -0.508792E-03  0.766E-03    0.03       1.7  T
  19    -88.6825013  0.200722E-04  0.110E-02    0.03       1.2  T
  20    -88.6825223 -0.209554E-04  0.405E-03    0.03       3.3  T
  21    -88.6825242 -0.192275E-05  0.284E-03    0.03       4.7  T
  22    -88.6825255 -0.135087E-05  0.472E-04    0.03      28.1  T
  23    -88.6825255  0.263464E-07  0.623E-04    0.03      21.3  T
  24    -88.6825255 -0.400350E-07  0.134E-04    0.03      98.8  T

   *** convergence criteria satisfied after 24 iterations ***

         #    Occupation            Energy/Eh            Energy/eV
      -------------------------------------------------------------
         1        2.0000           -0.8048969             -21.9024
       ...           ...                  ...                  ...
        74        2.0000           -0.3995361             -10.8719
        75        2.0000           -0.3986241             -10.8471
        76        1.9725           -0.3917744             -10.6607
        77        1.9259           -0.3907855             -10.6338
        78        1.9020           -0.3904951             -10.6259
        79        1.1996           -0.3870671             -10.5326
        80        0.6367           -0.2536935              -6.9034 (HOMO)
        81        0.3633           -0.2526278              -6.8744 (LUMO)
        82                         -0.2291457              -6.2354
        83                         -0.2156036              -5.8669
        84                         -0.1806110              -4.9147
        85                         -0.1266861              -3.4473
       ...                                ...                  ...
       147                          0.7011431              19.0791
      -------------------------------------------------------------
                  HL-Gap            0.0010658 Eh            0.0290 eV
             Fermi-level           -0.3207735 Eh           -8.7287 eV

 transition dipole moment (au) for excitation:          79          80
     X       Y       Z   
   0.0506  -1.2232  -0.0124  total (au/Debye):    1.224   3.112
 dE (eV)             :    3.629
 oscillator strength :  0.18847E+00

 SCC (total)                   0 d,  0 h,  0 min,  0.208 sec
 SCC setup                      ...        0 min,  0.001 sec (  0.275%)
 Dispersion                     ...        0 min,  0.001 sec (  0.408%)
 classical contributions        ...        0 min,  0.000 sec (  0.124%)
 integral evaluation            ...        0 min,  0.012 sec (  5.872%)
 iterations                     ...        0 min,  0.143 sec ( 68.639%)
 molecular gradient             ...        0 min,  0.041 sec ( 19.772%)
 printout                       ...        0 min,  0.010 sec (  4.905%)

         :::::::::::::::::::::::::::::::::::::::::::::::::::::
         ::                     SUMMARY                     ::
         :::::::::::::::::::::::::::::::::::::::::::::::::::::
         :: total energy             -87.526442582532 Eh    ::
         :: gradient norm              0.120872008766 Eh/a0 ::
         :: HOMO-LUMO gap              0.029001018110 eV    ::
         ::.................................................::
         :: SCC energy               -88.681384183347 Eh    ::
         :: -> isotropic ES            0.076235920440 Eh    ::
         :: -> anisotropic ES          0.005469560003 Eh    ::
         :: -> anisotropic XC          0.036252705602 Eh    ::
         :: -> dispersion             -0.064435207444 Eh    ::
         :: repulsion energy           1.154941600815 Eh    ::
         :: add. restraining           0.000000000000 Eh    ::
         :: total charge               0.000000000035 e     ::
         :::::::::::::::::::::::::::::::::::::::::::::::::::::

           -------------------------------------------------
          |                Property Printout                |
           -------------------------------------------------

    * Orbital Energies and Occupations

         #    Occupation            Energy/Eh            Energy/eV
      -------------------------------------------------------------
         1        2.0000           -0.8048969             -21.9024
       ...           ...                  ...                  ...
        68        2.0000           -0.4451904             -12.1142
        69        2.0000           -0.4422631             -12.0346
        70        2.0000           -0.4308065             -11.7228
        71        2.0000           -0.4276727             -11.6376
        72        2.0000           -0.4263590             -11.6018
        73        2.0000           -0.4033433             -10.9755
        74        2.0000           -0.3995361             -10.8719
        75        2.0000           -0.3986241             -10.8471
        76        1.9725           -0.3917744             -10.6607
        77        1.9259           -0.3907855             -10.6338
        78        1.9020           -0.3904951             -10.6259
        79        1.1996           -0.3870671             -10.5326
        80        0.6367           -0.2536935              -6.9034 (HOMO)
        81        0.3633           -0.2526278              -6.8744 (LUMO)
        82                         -0.2291457              -6.2354
        83                         -0.2156036              -5.8669
        84                         -0.1806110              -4.9147
        85                         -0.1266861              -3.4473
        86                         -0.0841505              -2.2899
        87                         -0.0220143              -0.5990
        88                         -0.0152752              -0.4157
        89                         -0.0088455              -0.2407
        90                          0.0418456               1.1387
        91                          0.0507543               1.3811
       ...                                ...                  ...
       147                          0.7011431              19.0791
      -------------------------------------------------------------
                  HL-Gap            0.0010658 Eh            0.0290 eV
             Fermi-level           -0.3207735 Eh           -8.7287 eV

     #   Z          covCN         q      C6AA      α(0)
     1   8 O        0.858    -0.441    22.507     6.361
     2   6 C        2.790     0.251    22.787     7.819
     3   6 C        2.959    -0.048    29.199     8.863
     4   6 C        3.808    -0.057    21.588     6.614
     5   6 C        3.756     0.004    20.565     6.466
     6   7 N        2.731    -0.105    23.293     7.168
     7   6 C        3.766     0.004    20.543     6.460
     8   6 C        3.810    -0.063    21.705     6.632
     9   6 C        3.862    -0.021    20.915     6.504
    10   6 C        3.811    -0.065    21.729     6.635
    11   6 C        3.764     0.005    20.530     6.458
    12   6 C        3.014     0.061    26.608     8.462
    13   7 N        1.958    -0.156    25.157     7.438
    14   8 O        1.801    -0.148    16.514     5.488
    15   6 C        3.056     0.132    25.067     8.211
    16   6 C        3.027    -0.042    29.025     8.837
    17   6 C        2.914    -0.050    29.230     8.866
    18   6 C        2.920    -0.060    29.504     8.907
    19   6 C        2.797     0.159    24.542     8.115
    20   9 F        0.788    -0.227    11.517     4.009
    21   6 C        2.905    -0.083    30.072     8.992
    22   6 C        2.941     0.069    26.463     8.437
    23   7 N        1.851    -0.251    27.394     7.757
    24   6 C        2.880     0.136    25.027     8.201
    25   7 N        2.745    -0.093    23.053     7.131
    26   6 C        3.756     0.007    20.510     6.457
    27   6 C        3.808    -0.064    21.716     6.634
    28   6 C        3.808    -0.058    21.616     6.618
    29   6 C        3.817    -0.072    21.859     6.654
    30   6 C        3.761    -0.118    22.798     6.807
    31   1 H        0.924     0.070     2.084     2.258
    32   1 H        0.925     0.053     2.279     2.361
    33   1 H        0.923     0.045     2.378     2.411
    34   1 H        0.924     0.061     2.191     2.315
    35   1 H        0.922     0.032     2.557     2.501
    36   1 H        0.924     0.046     2.365     2.405
    37   1 H        0.924     0.052     2.299     2.371
    38   1 H        0.924     0.046     2.374     2.410
    39   1 H        0.924     0.051     2.311     2.377
    40   1 H        0.924     0.045     2.380     2.412
    41   1 H        0.925     0.057     2.238     2.340
    42   1 H        0.924     0.045     2.378     2.412
    43   1 H        0.922     0.034     2.524     2.485
    44   1 H        0.926     0.036     2.508     2.476
    45   1 H        0.926     0.052     2.297     2.370
    46   1 H        0.926     0.063     2.164     2.301
    47   1 H        0.924     0.050     2.324     2.384
    48   1 H        0.924     0.073     2.057     2.243
    49   1 H        0.925     0.045     2.377     2.411
    50   1 H        0.924     0.046     2.374     2.409
    51   1 H        0.924     0.042     2.420     2.433
    52   1 H        0.924     0.042     2.422     2.434
    53   1 H        0.924     0.067     2.124     2.279
    54   1 H        0.924     0.063     2.166     2.302
    55   1 H        0.925     0.063     2.160     2.299
    56   1 H        0.925     0.063     2.165     2.301
    57   1 H        0.925     0.050     2.322     2.383

 Mol. C6AA /au·bohr⁶  :      34301.871381
 Mol. C8AA /au·bohr⁸  :     797365.798305
 Mol. α(0) /au        :        282.079452


Wiberg/Mayer (AO) data.
largest (>0.10) Wiberg bond orders for each atom

 ---------------------------------------------------------------------------
     #   Z sym  total        # sym  WBO       # sym  WBO       # sym  WBO
 ---------------------------------------------------------------------------
     1   8 O    1.924 --     2 C    1.605
     2   6 C    3.920 --     1 O    1.605     3 C    1.176    25 N    1.030
     3   6 C    3.754 --    22 C    1.245     2 C    1.176     4 C    1.041
     4   6 C    3.978 --     3 C    1.041    32 H    0.967    31 H    0.959
                             5 C    0.940
     5   6 C    3.959 --     6 N    1.023    34 H    0.968    33 H    0.953
                             4 C    0.940
     6   7 N    3.272 --     5 C    1.023     7 C    1.002    11 C    1.001
     7   6 C    3.975 --     6 N    1.002     8 C    1.002    36 H    0.969
                            35 H    0.952
     8   6 C    3.988 --     7 C    1.002     9 C    0.982    38 H    0.975
                            37 H    0.968
     9   6 C    3.993 --    12 C    1.003    10 C    0.984     8 C    0.982
                            39 H    0.963
    10   6 C    3.988 --    11 C    1.002     9 C    0.984    40 H    0.975
                            41 H    0.971
    11   6 C    3.975 --    10 C    1.002     6 N    1.001    42 H    0.969
                            43 H    0.951
    12   6 C    3.885 --    13 N    1.534    16 C    1.203     9 C    1.003
    13   7 N    2.792 --    12 C    1.534    14 O    1.048
    14   8 O    2.367 --    15 C    1.116    13 N    1.048
    15   6 C    3.930 --    21 C    1.343    16 C    1.273    14 O    1.116
    16   6 C    3.945 --    17 C    1.274    15 C    1.273    12 C    1.203
    17   6 C    3.844 --    18 C    1.470    16 C    1.274    44 H    0.965
    18   6 C    3.975 --    17 C    1.470    19 C    1.360    45 H    0.968
    19   6 C    3.795 --    21 C    1.365    18 C    1.360    20 F    0.956
    20   9 F    1.071 --    19 C    0.956
    21   6 C    3.865 --    19 C    1.365    15 C    1.343    46 H    0.964
    22   6 C    3.773 --    23 N    1.316     3 C    1.245    30 C    1.029
    23   7 N    3.014 --    24 C    1.433    22 C    1.316
    24   6 C    3.804 --    23 N    1.433    25 N    1.189    29 C    1.005
    25   7 N    3.461 --    24 C    1.189     2 C    1.030    26 C    0.976
    26   6 C    3.963 --    27 C    1.008    25 N    0.976    48 H    0.962
                            47 H    0.961
    27   6 C    3.995 --    26 C    1.008    28 C    1.008    50 H    0.976
                            49 H    0.975
    28   6 C    3.995 --    29 C    1.008    27 C    1.008    51 H    0.976
                            52 H    0.976
    29   6 C    3.988 --    28 C    1.008    24 C    1.005    53 H    0.961
                            54 H    0.948
    30   6 C    3.987 --    22 C    1.029    56 H    0.983    57 H    0.961
                            55 H    0.952
    31   1 H    0.989 --     4 C    0.959
    32   1 H    0.995 --     4 C    0.967
    33   1 H    0.986 --     5 C    0.953
    34   1 H    0.995 --     5 C    0.968
    35   1 H    0.984 --     7 C    0.952
    36   1 H    0.996 --     7 C    0.969
    37   1 H    0.997 --     8 C    0.968
    38   1 H    0.998 --     8 C    0.975
    39   1 H    0.996 --     9 C    0.963
    40   1 H    0.998 --    10 C    0.975
    41   1 H    0.996 --    10 C    0.971
    42   1 H    0.997 --    11 C    0.969
    43   1 H    0.987 --    11 C    0.951
    44   1 H    0.999 --    17 C    0.965
    45   1 H    0.997 --    18 C    0.968
    46   1 H    0.996 --    21 C    0.964
    47   1 H    0.991 --    26 C    0.961
    48   1 H    0.992 --    26 C    0.962
    49   1 H    0.997 --    27 C    0.975
    50   1 H    0.998 --    27 C    0.976
    51   1 H    0.997 --    28 C    0.976
    52   1 H    0.997 --    28 C    0.976
    53   1 H    0.990 --    29 C    0.961
    54   1 H    0.986 --    29 C    0.948
    55   1 H    0.989 --    30 C    0.952
    56   1 H    0.995 --    30 C    0.983
    57   1 H    0.988 --    30 C    0.961
 ---------------------------------------------------------------------------

Topologies differ in total number of bonds
Writing topology from bond orders to xtbtopo.mol

molecular dipole:
                 x           y           z       tot (Debye)
 q only:       -2.279      -0.816       0.532
   full:       -2.530      -1.016       0.617       7.104
molecular quadrupole (traceless):
                xx          xy          yy          xz          yz          zz
 q only:      -24.549     -28.703       6.135       5.576      18.826      18.414
  q+dip:      -26.958     -26.765       7.573       6.284      18.897      19.385
   full:      -27.381     -26.060       5.920       6.666      20.199      21.461


           -------------------------------------------------
          | TOTAL ENERGY              -87.526442582532 Eh   |
          | GRADIENT NORM               0.120872008766 Eh/α |
          | HOMO-LUMO GAP               0.029001018110 eV   |
           -------------------------------------------------

------------------------------------------------------------------------
 * finished run on 2025/05/15 at 16:32:25.191     
------------------------------------------------------------------------
 total:
 * wall-time:     0 d,  0 h,  0 min,  0.265 sec
 *  cpu-time:     0 d,  0 h,  0 min,  0.171 sec
 * ratio c/w:     0.647 speedup
 SCF:
 * wall-time:     0 d,  0 h,  0 min,  0.208 sec
 *  cpu-time:     0 d,  0 h,  0 min,  0.155 sec
 * ratio c/w:     0.745 speedup


