33
 energy: -45.171179575549 gnorm: 0.000781829898 xtb: 6.7.1 (edcfbbe)
C            3.50379662267482        0.49571151254115        0.62086431045141
C            3.35113012716487       -0.25630218965881       -0.69790529403514
C            2.28838865950117        0.40003066792848       -1.60337505831938
C            0.91071382378486        0.40007468714576       -1.00754976066743
C            0.47546335661045        1.45593852738647       -0.21635147016920
C           -0.78911966280891        1.45179196250027        0.34384045598597
C           -1.65299053986871        0.38758762552371        0.12842250180574
C           -3.03781392219832        0.38099724445061        0.74195506040867
C           -4.01839224696746        0.30012541283937       -0.40843522523718
O           -4.37219790596029        1.51876930864159       -0.83831040248222
O           -4.42268764500724       -0.70787958499251       -0.92198669989620
C           -3.22724225393698       -0.79257287597088        1.70265200614008
C           -1.22856102363751       -0.66553089625947       -0.67202125765494
C            0.03535648673549       -0.65644734826525       -1.23137890000202
C            3.03345653148320       -1.72550492905676       -0.43668242537027
H            2.58317403695354        0.44426483809133        1.19765760895377
H            3.74521418157391        1.54159925515260        0.44330311190498
H            4.30432032494662        0.05751933570774        1.21308384245129
H            4.30468246617234       -0.20132230860913       -1.23693741240559
H            2.27003338267949       -0.13660968196523       -2.55473368624960
H            2.59594816601918        1.42933947570871       -1.80193292095546
H            1.12930402063951        2.29841361781551       -0.04291722689401
H           -1.10725458166228        2.28624873914221        0.95263866776582
H           -3.20107906274716        1.33023125240054        1.25900509850969
H           -4.96238493303188        1.45058386240397       -1.60599669921412
H           -3.19773808764530       -1.73127897780279        1.15671974044706
H           -2.43825304567387       -0.79223782554267        2.45068092263734
H           -4.18951824511951       -0.71801263747957        2.20425123638034
H           -1.89824102316072       -1.48865763385111       -0.87166928507765
H            0.34215482382192       -1.47902776232247       -1.86102680084871
H            2.10092482710895       -1.82168359114904        0.11446964066520
H            2.94236407321873       -2.27305587436651       -1.37227021454111
H            3.82714826833625       -2.18330320808895        0.14973653551274
