29
 energy: -55.280020956233 gnorm: 0.000234640645 xtb: 6.7.1 (edcfbbe)
O           -1.81227450475535        0.39116478666335       -1.25408630245672
C           -2.82202434274651       -0.26747371410779       -0.52024315132248
C           -2.41099826367722       -0.34572568076839        0.95412793395545
C           -1.93825667155128        1.00400935309588        1.51224782280073
C           -0.42290463462491        0.96448288878562        1.23869550305224
C           -0.11845150683556       -0.55753557377970        1.18471986189609
N            0.68173323469932       -0.86577975100345        0.01906264204649
C            0.42586819150017       -1.67589029732532       -1.02388711029590
N            1.40830452709226       -1.62632951931819       -1.88457551651757
C            2.28041143788465       -0.75688317585619       -1.33220377695436
C            3.57610306687290       -0.37013547922055       -1.94339900854076
N            4.34185062014479        0.36592504417694       -1.10148403803761
O            3.91845684835189       -0.67049978286239       -3.06260962441635
N            1.86395184081858       -0.27503152981613       -0.16847603001255
O           -1.32530498786301       -1.24475993627965        1.15232580674492
O            0.26730041520442        1.63437494781836        2.25583666350458
O           -2.22583006235589        1.08115770242710        2.87707269340837
H           -2.03311117468485        0.36304148207098       -2.19157349503479
H           -2.97168364493604       -1.28962238101792       -0.88962850150871
H           -3.77211438038161        0.27878334914407       -0.58984634054199
H           -3.24691766515344       -0.73021166684343        1.54401751875583
H           -2.40835689713654        1.83959804250806        0.97683149792129
H           -0.21579459740395        1.40370193504037        0.25601359821761
H            0.45104501200046       -0.86517442264280        2.07654942011384
H           -0.45560702015820       -2.27518695787533       -1.10084880407714
H            4.00932436185845        0.59587000600871       -0.18270835552628
H            5.24323545727496        0.68653447912788       -1.41184224945493
H            1.20159518790821        1.66585632126534        2.02482169908339
H           -1.48914984734715        1.54163953058643        3.30308964319242
