42
 energy: -71.307132664403 gnorm: 0.000885098762 xtb: 6.7.1 (edcfbbe)
O           -5.99952528172398        0.21192033596420       -0.47137353980822
C           -5.25450898384322        1.08211139155942       -0.07237044880707
O           -5.70115719838805        2.26588737190078        0.33391189601063
C           -3.79262656339874        0.91529627010570        0.01857314760922
C           -3.31772142407377       -0.33965930658957       -0.21600434116655
N           -2.02129883341196       -0.69156725110771       -0.17773559983731
C           -1.07099734117963        0.24960430378606        0.19199470708716
C            0.26973725644473       -0.10345205459855        0.32902420733732
C            1.25857650080808        0.81351864051459        0.69656544941699
N            2.56328077932724        0.44461061064417        0.91303155052371
C            2.95138824624652       -0.94797963662497        0.95704108789991
C            3.39271383413036       -1.44894515711646       -0.42284315409060
N            4.50835292255448       -0.62501330142648       -0.84761807195354
C            4.11772025258360        0.76972953368484       -0.94178427400454
C            3.67313879604338        1.25224943236656        0.44431871097003
C            0.80897670158502        2.13432211921697        0.92707798555487
F            1.68200565845996        3.08690967202507        1.34234214985980
C           -0.49999660726278        2.50164076242163        0.78667269849651
C           -1.47678820511076        1.57238222969509        0.42036767637498
C           -2.87766695386236        2.01755340183612        0.31571301327505
O           -3.19669011249304        3.18398998124493        0.45747808819785
C           -1.64381329919764       -2.04055085013845       -0.48109398669494
C           -0.84128707746872       -2.31478456720956       -1.72229378191756
C           -2.27624027249408       -2.73314480331885       -1.65001853379498
H           -6.66480727002559        2.31124200025916        0.23618887878834
H           -4.02588799409506       -1.12469594996154       -0.44580581092998
H            0.55054094720563       -1.12285521771786        0.13430507609559
H            2.14549522423662       -1.55473499582345        1.36812924295154
H            3.81190209951089       -1.01689990506480        1.63005641906414
H            3.72647646385294       -2.48640009036780       -0.35460803247692
H            2.54045582684738       -1.39636631852271       -1.12509412336684
H            4.88331766470445       -0.95312520204158       -1.73135808083799
H            4.97810054918927        1.35276793250328       -1.27408917306623
H            3.28759577514334        0.92706881668887       -1.65545316389249
H            3.40849099989571        2.30367143502678        0.39649818522033
H            4.50220992740411        1.12791322312912        1.14643750732561
H           -0.80538448187488        3.51816824303507        0.98100397630501
H           -1.42775532451590       -2.63460484384834        0.40260947551615
H           -0.59712069598238       -1.47280393183531       -2.35180918258623
H           -0.07155865797788       -3.07043799232029       -1.67968389782947
H           -2.50919934721332       -3.78160607298836       -1.54971009978311
H           -2.98834450057232       -2.18283025898928       -2.24459383303368
