39
 energy: -51.133863951673 gnorm: 0.000223288064 xtb: 6.7.1 (edcfbbe)
C           -2.12558655186308        1.83015575419711       -1.78836991611115
C           -2.71582907104757        0.73137539940318       -0.96405764526130
C           -4.09431761479622        0.59151330494968       -0.86458142621338
C           -4.65875310321982       -0.38787891362151       -0.07080235823500
C           -3.84515935493286       -1.24457399291573        0.64919066346467
C           -2.46614880560810       -1.14504655915521        0.56395586561393
C           -1.57872752660706       -2.07755806744052        1.33475578068199
C           -1.90558349763447       -0.16223914349910       -0.25963775102214
N           -0.50003748234278       -0.07949501458900       -0.32724905722428
C            0.27790703092533       -0.11698463666933       -1.42878801901286
C            1.77260613370608       -0.12443776296819       -1.08699786192845
N            2.02542532700587        0.19871369823272        0.30490438482537
C            2.14219688874612        1.62663450367431        0.55124211574423
C            3.43867117313168        2.28730706094670        0.07281410194816
C            3.05587116488657       -0.61294820466433        0.93335763251756
C            2.51063266381823       -1.98864157562356        1.30873866254966
O           -0.11376498161447       -0.16873634830405       -2.57549600220393
H           -1.66426803373038        1.41696288263837       -2.68489882240624
H           -2.89115932726112        2.54417253673886       -2.08066068493036
H           -1.34772609690255        2.35094102704281       -1.23025625534094
H           -4.73075398894533        1.27043562792541       -1.41327434887498
H           -5.73261499473135       -0.48070166148725       -0.00600378470838
H           -4.28455371207681       -2.00571704584971        1.27769392361108
H           -2.16924145201534       -2.85253791998434        1.81635617737261
H           -1.03161825177824       -1.53694175878683        2.10899518105019
H           -0.85342670839209       -2.55158499271832        0.67477491756158
H            0.02306045683998       -0.16999355737788        0.53925169993360
H            2.27495317937109        0.55329064134442       -1.78963421415726
H            2.13599291217831       -1.13075652518748       -1.30908116432187
H            2.04055322363395        1.78186967069669        1.63047842932186
H            1.29077175496999        2.10781217118194        0.06231992277841
H            3.56916121482826        2.16178799120747       -0.99938432083944
H            3.40503978738103        3.35182071693918        0.28876679680677
H            4.30120019316227        1.85979067577996        0.57848162420618
H            3.37281832782588       -0.10346763464764        1.84638944862073
H            3.94026985577273       -0.73199358364486        0.28863086567133
H            1.67691805830784       -1.88655948124964        1.99870253585601
H            2.16621671412862       -2.52909497566674        0.43061750695607
H            3.28870449488135       -2.57659430685208        1.78875539570092
