----- Optimization -----
      -----------------------------------------------------------      
     |                   =====================                   |     
     |                           x T B                           |     
     |                   =====================                   |     
     |                         S. Grimme                         |     
     |          Mulliken Center for Theoretical Chemistry        |     
     |                    University of Bonn                     |     
      -----------------------------------------------------------      

   * xtb version 6.7.1 (edcfbbe) compiled by 'conda@3ef47c1a292c' on 2024-11-25

   xtb is free software: you can redistribute it and/or modify it under
   the terms of the GNU Lesser General Public License as published by
   the Free Software Foundation, either version 3 of the License, or
   (at your option) any later version.
   
   xtb is distributed in the hope that it will be useful,
   but WITHOUT ANY WARRANTY; without even the implied warranty of
   MERCHANTABILITY or FITNESS FOR A PARTICULAR PURPOSE.  See the
   GNU Lesser General Public License for more details.
   
   Cite this work as:
   * C. Bannwarth, E. Caldeweyher, S. Ehlert, A. Hansen, P. Pracht,
     J. Seibert, S. Spicher, S. Grimme, WIREs Comput. Mol. Sci., 2020, 11,
     e01493. DOI: 10.1002/wcms.1493
   
   for GFN2-xTB:
   * C. Bannwarth, S. Ehlert and S. Grimme., J. Chem. Theory Comput., 2019,
     15, 1652-1671. DOI: 10.1021/acs.jctc.8b01176
   for GFN1-xTB:
   * S. Grimme, C. Bannwarth, P. Shushkov, J. Chem. Theory Comput., 2017,
     13, 1989-2009. DOI: 10.1021/acs.jctc.7b00118
   for GFN0-xTB:
   * P. Pracht, E. Caldeweyher, S. Ehlert, S. Grimme, ChemRxiv, 2019, preprint.
     DOI: 10.26434/chemrxiv.8326202.v1
   for GFN-FF:
   * S. Spicher and S. Grimme, Angew. Chem. Int. Ed., 2020, 59, 15665-15673.
     DOI: 10.1002/anie.202004239
   
   for ALPB and GBSA implicit solvation:
   * S. Ehlert, M. Stahn, S. Spicher, S. Grimme, J. Chem. Theory Comput.,
     2021, 17, 4250-4261. DOI: 10.1021/acs.jctc.1c00471
   
   for ddCOSMO and CPCM-X implicit solvation:
   * M. Stahn, S. Ehlert, S. Grimme, J. Phys. Chem. A,
     2023, XX, XXXX-XXXX. DOI: 10.1021/acs.jpca.3c04382
   
   for DFT-D4:
   * E. Caldeweyher, C. Bannwarth and S. Grimme, J. Chem. Phys., 2017,
     147, 034112. DOI: 10.1063/1.4993215
   * E. Caldeweyher, S. Ehlert, A. Hansen, H. Neugebauer, S. Spicher,
     C. Bannwarth and S. Grimme, J. Chem. Phys., 2019, 150, 154122.
     DOI: 10.1063/1.5090222
   * E. Caldeweyher, J.-M. Mewes, S. Ehlert and S. Grimme, Phys. Chem. Chem. Phys.
     2020, 22, 8499-8512. DOI: 10.1039/D0CP00502A
   
   for sTDA-xTB:
   * S. Grimme and C. Bannwarth, J. Chem. Phys., 2016, 145, 054103.
     DOI: 10.1063/1.4959605
   
   in the mass-spec context:
   * V. Asgeirsson, C. Bauer and S. Grimme, Chem. Sci., 2017, 8, 4879.
     DOI: 10.1039/c7sc00601b
   * J. Koopman and S. Grimme, ACS Omega 2019, 4, 12, 15120-15133.
     DOI: 10.1021/acsomega.9b02011
   
   for metadynamics refer to:
   * S. Grimme, J. Chem. Theory Comput., 2019, 155, 2847-2862
     DOI: 10.1021/acs.jctc.9b00143
   
   for SPH calculations refer to:
   * S. Spicher and S. Grimme, J. Chem. Theory Comput., 2021, 17, 1701-1714
     DOI: 10.1021/acs.jctc.0c01306
   
   for ONIOM refer to:
   * C. Plett, A. Katbashev, S. Ehlert, S. Grimme, M. Bursch,
     Phys. Chem. Chem. Phys., 2023, 25, 17860-17868. DOI: 10.1039/D3CP02178E
   
   for DIPRO refer to:
   * J. Kohn, N. Gildemeister, S. Grimme, D. Fazzi, A. Hansen,
     J. Chem. Phys., 2023, just accepted.
   
   for PTB refer to:
   * S. Grimme, M. Mueller, A. Hansen, J. Chem. Phys., 2023, 158, 124111.
     DOI: 10.1063/5.0137838
   
   with help from (in alphabetical order)
   P. Atkinson, C. Bannwarth, F. Bohle, G. Brandenburg, E. Caldeweyher
   M. Checinski, S. Dohm, S. Ehlert, S. Ehrlich, I. Gerasimov, C. Hölzer
   A. Katbashev, J. Kohn, J. Koopman, C. Lavigne, S. Lehtola, F. März, M. Müller,
   F. Musil, H. Neugebauer, J. Pisarek, C. Plett, P. Pracht, F. Pultar,
   J. Seibert, P. Shushkov, S. Spicher, M. Stahn, M. Steiner, T. Strunk,
   J. Stückrath, T. Rose, and J. Unsleber
   
 * started run on 2025/05/15 at 16:08:08.215     
   ID    Z sym.   atoms
    1    6 C      1-8, 10, 11, 13-16
    2    7 N      9, 12
    3    8 O      17
    4    1 H      18-39

           -------------------------------------------------
          |                Calculation Setup                |
           -------------------------------------------------

          program call               : xtb /rds/general/user/hgt20/home/callum/QDESCP/Lidocaine_rdkit_conf_1/Lidocaine_rdkit_conf_1.xyz --opt normal --acc 1 --gfn 2 --chrg 0 --uhf 0 -P 1
          hostname                   : login-c
          coordinate file            : /rds/general/user/hgt20/home/callum/QDESCP/Lidocaine_rdkit_conf_1/Lidocaine_rdkit_conf_1.xyz
          omp threads                :                     1


           -------------------------------------------------
          |                 G F N 2 - x T B                 |
           -------------------------------------------------

        Reference                      10.1021/acs.jctc.8b01176
      * Hamiltonian:
        H0-scaling (s, p, d)           1.850000    2.230000    2.230000
        zeta-weighting                 0.500000
      * Dispersion:
        s8                             2.700000
        a1                             0.520000
        a2                             5.000000
        s9                             5.000000
      * Repulsion:
        kExp                           1.500000    1.000000
        rExp                           1.000000
      * Coulomb:
        alpha                          2.000000
        third order                    shell-resolved
        anisotropic                    true
        a3                             3.000000
        a5                             4.000000
        cn-shift                       1.200000
        cn-exp                         4.000000
        max-rad                        5.000000


          ...................................................
          :                      SETUP                      :
          :.................................................:
          :  # basis functions                  90          :
          :  # atomic orbitals                  90          :
          :  # shells                           56          :
          :  # electrons                        94          :
          :  max. iterations                   250          :
          :  Hamiltonian                  GFN2-xTB          :
          :  restarted?                      false          :
          :  GBSA solvation                  false          :
          :  PC potential                    false          :
          :  electronic temp.          300.0000000     K    :
          :  accuracy                    1.0000000          :
          :  -> integral cutoff          0.2500000E+02      :
          :  -> integral neglect         0.1000000E-07      :
          :  -> SCF convergence          0.1000000E-05 Eh   :
          :  -> wf. convergence          0.1000000E-03 e    :
          :  Broyden damping             0.4000000          :
          :  net charge                          0          :
          :  unpaired electrons                  0          :
          ...................................................

 iter      E             dE          RMSdq      gap      omega  full diag
   1    -51.7400027 -0.517400E+02  0.336E+00    3.58       0.0  T
   2    -51.8258534 -0.858507E-01  0.190E+00    3.77       1.0  T
   3    -51.8285271 -0.267366E-02  0.948E-01    3.80       1.0  T
   4    -51.8308279 -0.230087E-02  0.229E-01    3.68       1.0  T
   5    -51.8323341 -0.150620E-02  0.862E-02    3.74       1.0  T
   6    -51.8324746 -0.140491E-03  0.426E-02    3.74       1.0  T
   7    -51.8324936 -0.190093E-04  0.193E-02    3.73       1.0  T
   8    -51.8324983 -0.467652E-05  0.489E-03    3.74       3.3  T
   9    -51.8324984 -0.107345E-06  0.189E-03    3.74       8.5  T
  10    -51.8324985 -0.498631E-07  0.103E-03    3.74      15.6  T
  11    -51.8324985 -0.725255E-08  0.377E-04    3.74      42.5  T
  12    -51.8324985 -0.707963E-09  0.899E-05    3.74     178.1  T

   *** convergence criteria satisfied after 12 iterations ***

         #    Occupation            Energy/Eh            Energy/eV
      -------------------------------------------------------------
         1        2.0000           -0.6909962             -18.8030
       ...           ...                  ...                  ...
        41        2.0000           -0.4320310             -11.7562
        42        2.0000           -0.4194288             -11.4132
        43        2.0000           -0.4187360             -11.3944
        44        2.0000           -0.3916319             -10.6568
        45        2.0000           -0.3812031             -10.3731
        46        2.0000           -0.3714531             -10.1078
        47        2.0000           -0.3682971             -10.0219 (HOMO)
        48                         -0.2309417              -6.2842 (LUMO)
        49                         -0.2163593              -5.8874
        50                         -0.1938809              -5.2758
        51                         -0.0925205              -2.5176
        52                         -0.0168533              -0.4586
       ...                                ...                  ...
        90                          0.6377459              17.3539
      -------------------------------------------------------------
                  HL-Gap            0.1373554 Eh            3.7376 eV
             Fermi-level           -0.2996194 Eh           -8.1531 eV

 SCC (total)                   0 d,  0 h,  0 min,  0.044 sec
 SCC setup                      ...        0 min,  0.000 sec (  0.658%)
 Dispersion                     ...        0 min,  0.000 sec (  0.880%)
 classical contributions        ...        0 min,  0.000 sec (  0.279%)
 integral evaluation            ...        0 min,  0.006 sec ( 13.180%)
 iterations                     ...        0 min,  0.019 sec ( 42.488%)
 molecular gradient             ...        0 min,  0.019 sec ( 42.214%)
 printout                       ...        0 min,  0.000 sec (  0.287%)

         :::::::::::::::::::::::::::::::::::::::::::::::::::::
         ::                     SUMMARY                     ::
         :::::::::::::::::::::::::::::::::::::::::::::::::::::
         :: total energy             -51.122320004886 Eh    ::
         :: gradient norm              0.060256535971 Eh/a0 ::
         :: HOMO-LUMO gap              3.737630465247 eV    ::
         ::.................................................::
         :: SCC energy               -51.832005671747 Eh    ::
         :: -> isotropic ES            0.046389706728 Eh    ::
         :: -> anisotropic ES          0.008606389542 Eh    ::
         :: -> anisotropic XC          0.029443461417 Eh    ::
         :: -> dispersion             -0.036286924158 Eh    ::
         :: repulsion energy           0.709685666861 Eh    ::
         :: add. restraining           0.000000000000 Eh    ::
         :: total charge               0.000000000000 e     ::
         :::::::::::::::::::::::::::::::::::::::::::::::::::::

      ----------------------------------------------------------- 
     |                   =====================                   |
     |                        A N C O P T                        |
     |                   =====================                   |
     |               Approximate Normal Coordinate               |
     |                Rational Function Optimizer                |
      ----------------------------------------------------------- 
      ----------------------------------------------------------- 
     |                   =====================                   |
     |                        A N C O P T                        |
     |                   =====================                   |
     |               Approximate Normal Coordinate               |
     |                Rational Function Optimizer                |
      ----------------------------------------------------------- 

          ...................................................
          :                      SETUP                      :
          :.................................................:
          :   optimization level            normal          :
          :   max. optcycles                   200          :
          :   ANC micro-cycles                  20          :
          :   degrees of freedom               111          :
          :.................................................:
          :   RF solver                   davidson          :
          :   write xtbopt.log                true          :
          :   linear?                        false          :
          :   energy convergence         0.5000000E-05 Eh   :
          :   grad. convergence          0.1000000E-02 Eh/α :
          :   maxmium RF displ.          1.0000000          :
          :   Hlow (freq-cutoff)         0.1000000E-01      :
          :   Hmax (freq-cutoff)         5.0000000          :
          :   S6 in model hess.         20.0000000          :
          ...................................................

generating ANC from exact Hessian ...
Using Lindh-Hessian (1995)
 Shifting diagonal of input Hessian by    9.7421236241081021E-003
 Lowest  eigenvalues of input Hessian
    0.000000    0.000000    0.000000    0.000000    0.000000    0.000000
    0.010000    0.010175    0.010625    0.011081    0.011848    0.012390
    0.013423    0.014453    0.015218    0.015466    0.016545    0.017666
 Highest eigenvalues
    1.555171    1.800303    1.819937    1.933623    2.005313    2.246520


........................................................................
.............................. CYCLE    1 ..............................
........................................................................

 iter      E             dE          RMSdq      gap      omega  full diag
   1    -51.8324985 -0.518325E+02  0.465E-05    3.74       0.0  T
   2    -51.8324985 -0.115108E-10  0.266E-05    3.74     601.8  T
   3    -51.8324985 -0.569855E-11  0.176E-05    3.74     908.7  T
     SCC iter.                  ...        0 min,  0.005 sec
     gradient                   ...        0 min,  0.019 sec
 * total energy  :   -51.1223200 Eh     change       -0.1146603E-09 Eh
   gradient norm :     0.0602566 Eh/α   predicted     0.0000000E+00 (-100.00%)
   displ. norm   :     0.2943753 α      lambda       -0.9521485E-02
   maximum displ.:     0.1110696 α      in ANC's #35, #36, #15, ...

........................................................................
.............................. CYCLE    2 ..............................
........................................................................

 iter      E             dE          RMSdq      gap      omega  full diag
   1    -51.8715511 -0.518716E+02  0.179E-01    3.82       0.0  T
   2    -51.8715951 -0.439783E-04  0.107E-01    3.81       1.0  T
   3    -51.8715828  0.123270E-04  0.288E-02    3.81       1.0  T
   4    -51.8716021 -0.193023E-04  0.480E-03    3.80       3.3  T
   5    -51.8716025 -0.418811E-06  0.270E-03    3.80       5.9  T
   6    -51.8716026 -0.790451E-07  0.131E-03    3.80      12.2  T
   7    -51.8716026 -0.302997E-07  0.427E-04    3.80      37.5  T
   8    -51.8716026 -0.104131E-08  0.155E-04    3.80     103.5  T
     SCC iter.                  ...        0 min,  0.012 sec
     gradient                   ...        0 min,  0.019 sec
 * total energy  :   -51.1287112 Eh     change       -0.6391236E-02 Eh
   gradient norm :     0.0213874 Eh/α   predicted    -0.5173301E-02 ( -19.06%)
   displ. norm   :     0.2820839 α      lambda       -0.2575716E-02
   maximum displ.:     0.1034684 α      in ANC's #15, #7, #11, ...

........................................................................
.............................. CYCLE    3 ..............................
........................................................................

 iter      E             dE          RMSdq      gap      omega  full diag
   1    -51.8884507 -0.518885E+02  0.106E-01    3.80       0.0  T
   2    -51.8884840 -0.333004E-04  0.632E-02    3.81       1.0  T
   3    -51.8884808  0.319603E-05  0.218E-02    3.80       1.0  T
   4    -51.8884865 -0.571297E-05  0.550E-03    3.80       2.9  T
   5    -51.8884876 -0.109377E-05  0.182E-03    3.80       8.8  T
   6    -51.8884877 -0.312235E-07  0.887E-04    3.80      18.0  T
   7    -51.8884877 -0.774379E-08  0.247E-04    3.80      64.8  T
     SCC iter.                  ...        0 min,  0.010 sec
     gradient                   ...        0 min,  0.019 sec
 * total energy  :   -51.1303417 Eh     change       -0.1630505E-02 Eh
   gradient norm :     0.0098635 Eh/α   predicted    -0.1390930E-02 ( -14.69%)
   displ. norm   :     0.2654513 α      lambda       -0.8743069E-03
   maximum displ.:     0.1008503 α      in ANC's #15, #11, #7, ...

........................................................................
.............................. CYCLE    4 ..............................
........................................................................

 iter      E             dE          RMSdq      gap      omega  full diag
   1    -51.8908803 -0.518909E+02  0.723E-02    3.78       0.0  T
   2    -51.8908940 -0.136608E-04  0.424E-02    3.78       1.0  T
   3    -51.8908923  0.168459E-05  0.148E-02    3.78       1.1  T
   4    -51.8908951 -0.281719E-05  0.408E-03    3.78       3.9  T
   5    -51.8908956 -0.534594E-06  0.119E-03    3.78      13.5  T
   6    -51.8908956 -0.394873E-08  0.477E-04    3.78      33.6  T
   7    -51.8908956 -0.196736E-08  0.170E-04    3.78      94.4  T
     SCC iter.                  ...        0 min,  0.010 sec
     gradient                   ...        0 min,  0.019 sec
 * total energy  :   -51.1310290 Eh     change       -0.6872363E-03 Eh
   gradient norm :     0.0106483 Eh/α   predicted    -0.4679617E-03 ( -31.91%)
   displ. norm   :     0.4302127 α      lambda       -0.1060029E-02
   maximum displ.:     0.1511805 α      in ANC's #7, #15, #11, ...

........................................................................
.............................. CYCLE    5 ..............................
........................................................................

 iter      E             dE          RMSdq      gap      omega  full diag
   1    -51.8885573 -0.518886E+02  0.114E-01    3.75       0.0  T
   2    -51.8885744 -0.170620E-04  0.671E-02    3.75       1.0  T
   3    -51.8885670  0.740967E-05  0.210E-02    3.75       1.0  T
   4    -51.8885771 -0.101062E-04  0.492E-03    3.75       3.3  T
   5    -51.8885777 -0.662042E-06  0.173E-03    3.75       9.2  T
   6    -51.8885777 -0.703222E-08  0.641E-04    3.75      25.0  T
   7    -51.8885777 -0.295509E-08  0.263E-04    3.75      60.9  T
     SCC iter.                  ...        0 min,  0.010 sec
     gradient                   ...        0 min,  0.019 sec
 * total energy  :   -51.1317613 Eh     change       -0.7323149E-03 Eh
   gradient norm :     0.0135007 Eh/α   predicted    -0.6281155E-03 ( -14.23%)
   displ. norm   :     0.2985815 α      lambda       -0.5167773E-03
   maximum displ.:     0.1080472 α      in ANC's #7, #3, #13, ...

........................................................................
.............................. CYCLE    6 ..............................
........................................................................

 iter      E             dE          RMSdq      gap      omega  full diag
   1    -51.8874457 -0.518874E+02  0.726E-02    3.75       0.0  T
   2    -51.8874487 -0.306088E-05  0.422E-02    3.74       1.0  T
   3    -51.8874444  0.435733E-05  0.136E-02    3.74       1.2  T
   4    -51.8874499 -0.556489E-05  0.195E-03    3.74       8.2  T
   5    -51.8874500 -0.469882E-07  0.963E-04    3.74      16.6  T
   6    -51.8874500 -0.345503E-08  0.404E-04    3.74      39.6  T
     SCC iter.                  ...        0 min,  0.009 sec
     gradient                   ...        0 min,  0.019 sec
 * total energy  :   -51.1321238 Eh     change       -0.3625349E-03 Eh
   gradient norm :     0.0103316 Eh/α   predicted    -0.2814253E-03 ( -22.37%)
   displ. norm   :     0.2320405 α      lambda       -0.3213573E-03
   maximum displ.:     0.0993952 α      in ANC's #1, #8, #3, ...

........................................................................
.............................. CYCLE    7 ..............................
........................................................................

 iter      E             dE          RMSdq      gap      omega  full diag
   1    -51.8884350 -0.518884E+02  0.545E-02    3.76       0.0  T
   2    -51.8884402 -0.516684E-05  0.316E-02    3.75       1.0  T
   3    -51.8884387  0.146880E-05  0.109E-02    3.75       1.5  T
   4    -51.8884408 -0.210089E-05  0.255E-03    3.75       6.3  T
   5    -51.8884410 -0.188249E-06  0.747E-04    3.75      21.4  T
   6    -51.8884410 -0.172552E-08  0.360E-04    3.75      44.5  T
     SCC iter.                  ...        0 min,  0.009 sec
     gradient                   ...        0 min,  0.019 sec
 * total energy  :   -51.1323525 Eh     change       -0.2286613E-03 Eh
   gradient norm :     0.0050206 Eh/α   predicted    -0.1693338E-03 ( -25.95%)
   displ. norm   :     0.2211246 α      lambda       -0.1975812E-03
   maximum displ.:     0.1064814 α      in ANC's #1, #8, #13, ...

........................................................................
.............................. CYCLE    8 ..............................
........................................................................

 iter      E             dE          RMSdq      gap      omega  full diag
   1    -51.8896565 -0.518897E+02  0.480E-02    3.76       0.0  T
   2    -51.8896593 -0.281464E-05  0.279E-02    3.75       1.0  T
   3    -51.8896582  0.112595E-05  0.822E-03    3.75       1.9  T
   4    -51.8896596 -0.147894E-05  0.197E-03    3.75       8.1  T
   5    -51.8896598 -0.120439E-06  0.624E-04    3.75      25.7  T
   6    -51.8896598 -0.958536E-09  0.245E-04    3.75      65.3  T
     SCC iter.                  ...        0 min,  0.009 sec
     gradient                   ...        0 min,  0.019 sec
 * total energy  :   -51.1324959 Eh     change       -0.1434444E-03 Eh
   gradient norm :     0.0040491 Eh/α   predicted    -0.1036219E-03 ( -27.76%)
   displ. norm   :     0.2019179 α      lambda       -0.1395447E-03
   maximum displ.:     0.1113450 α      in ANC's #1, #8, #13, ...

........................................................................
.............................. CYCLE    9 ..............................
........................................................................

 iter      E             dE          RMSdq      gap      omega  full diag
   1    -51.8913564 -0.518914E+02  0.395E-02    3.76       0.0  T
   2    -51.8913576 -0.122511E-05  0.231E-02    3.76       1.0  T
   3    -51.8913570  0.566763E-06  0.505E-03    3.76       3.2  T
   4    -51.8913577 -0.712061E-06  0.135E-03    3.76      11.9  T
   5    -51.8913578 -0.640441E-07  0.498E-04    3.76      32.2  T
   6    -51.8913578 -0.732335E-09  0.149E-04    3.76     107.7  T
     SCC iter.                  ...        0 min,  0.009 sec
     gradient                   ...        0 min,  0.019 sec
 * total energy  :   -51.1325964 Eh     change       -0.1004870E-03 Eh
   gradient norm :     0.0048719 Eh/α   predicted    -0.7261814E-04 ( -27.73%)
   displ. norm   :     0.2160900 α      lambda       -0.1013857E-03
   maximum displ.:     0.1189163 α      in ANC's #1, #8, #13, ...

........................................................................
.............................. CYCLE   10 ..............................
........................................................................

 iter      E             dE          RMSdq      gap      omega  full diag
   1    -51.8910422 -0.518910E+02  0.402E-02    3.76       0.0  T
   2    -51.8910427 -0.524321E-06  0.238E-02    3.76       1.0  T
   3    -51.8910419  0.832495E-06  0.476E-03    3.76       3.4  T
   4    -51.8910429 -0.100399E-05  0.864E-04    3.76      18.5  T
   5    -51.8910429 -0.122745E-07  0.411E-04    3.76      39.0  T
   6    -51.8910429 -0.531848E-09  0.136E-04    3.76     118.0  T
     SCC iter.                  ...        0 min,  0.009 sec
     gradient                   ...        0 min,  0.019 sec
 * total energy  :   -51.1326680 Eh     change       -0.7156300E-04 Eh
   gradient norm :     0.0041906 Eh/α   predicted    -0.5306268E-04 ( -25.85%)
   displ. norm   :     0.2109203 α      lambda       -0.1090074E-03
   maximum displ.:     0.1271165 α      in ANC's #1, #5, #8, ...

........................................................................
.............................. CYCLE   11 ..............................
........................................................................

 iter      E             dE          RMSdq      gap      omega  full diag
   1    -51.8928527 -0.518929E+02  0.393E-02    3.76       0.0  T
   2    -51.8928533 -0.586579E-06  0.230E-02    3.76       1.0  T
   3    -51.8928531  0.188257E-06  0.313E-03    3.76       5.1  T
   4    -51.8928534 -0.278331E-06  0.105E-03    3.76      15.3  T
   5    -51.8928534 -0.232637E-07  0.481E-04    3.76      33.3  T
   6    -51.8928534 -0.641933E-09  0.135E-04    3.76     118.3  T
     SCC iter.                  ...        0 min,  0.009 sec
     gradient                   ...        0 min,  0.019 sec
 * total energy  :   -51.1327337 Eh     change       -0.6571834E-04 Eh
   gradient norm :     0.0054476 Eh/α   predicted    -0.5694341E-04 ( -13.35%)
   displ. norm   :     0.1844487 α      lambda       -0.7762194E-04
   maximum displ.:     0.1111648 α      in ANC's #1, #5, #13, ...

........................................................................
.............................. CYCLE   12 ..............................
........................................................................

 iter      E             dE          RMSdq      gap      omega  full diag
   1    -51.8914673 -0.518915E+02  0.350E-02    3.75       0.0  T
   2    -51.8914686 -0.126232E-05  0.205E-02    3.75       1.0  T
   3    -51.8914683  0.321537E-06  0.468E-03    3.75       3.4  T
   4    -51.8914687 -0.427180E-06  0.109E-03    3.75      14.7  T
   5    -51.8914687 -0.425111E-07  0.385E-04    3.75      41.6  T
   6    -51.8914687 -0.951815E-09  0.152E-04    3.75     105.0  T
     SCC iter.                  ...        0 min,  0.009 sec
     gradient                   ...        0 min,  0.019 sec
 * total energy  :   -51.1327909 Eh     change       -0.5716164E-04 Eh
   gradient norm :     0.0028500 Eh/α   predicted    -0.4013178E-04 ( -29.79%)
   displ. norm   :     0.1833780 α      lambda       -0.7970791E-04
   maximum displ.:     0.1153311 α      in ANC's #1, #5, #13, ...

........................................................................
.............................. CYCLE   13 ..............................
........................................................................

 iter      E             dE          RMSdq      gap      omega  full diag
   1    -51.8909774 -0.518910E+02  0.412E-02    3.75       0.0  T
   2    -51.8909782 -0.884380E-06  0.240E-02    3.75       1.0  T
   3    -51.8909780  0.207513E-06  0.379E-03    3.75       4.2  T
   4    -51.8909784 -0.322950E-06  0.995E-04    3.75      16.1  T
   5    -51.8909784 -0.257464E-07  0.502E-04    3.75      31.9  T
     SCC iter.                  ...        0 min,  0.007 sec
     gradient                   ...        0 min,  0.019 sec
 * total energy  :   -51.1328487 Eh     change       -0.5784599E-04 Eh
   gradient norm :     0.0023443 Eh/α   predicted    -0.4119530E-04 ( -28.78%)
   displ. norm   :     0.1439931 α      lambda       -0.5486823E-04
   maximum displ.:     0.0919907 α      in ANC's #1, #5, #13, ...

........................................................................
.............................. CYCLE   14 ..............................
........................................................................

 iter      E             dE          RMSdq      gap      omega  full diag
   1    -51.8907489 -0.518907E+02  0.371E-02    3.74       0.0  T
   2    -51.8907496 -0.746704E-06  0.215E-02    3.75       1.0  T
   3    -51.8907495  0.107841E-06  0.322E-03    3.75       5.0  T
   4    -51.8907497 -0.212281E-06  0.827E-04    3.75      19.4  T
   5    -51.8907497 -0.131804E-07  0.464E-04    3.75      34.5  T
     SCC iter.                  ...        0 min,  0.008 sec
     gradient                   ...        0 min,  0.028 sec
 * total energy  :   -51.1328872 Eh     change       -0.3849695E-04 Eh
   gradient norm :     0.0028406 Eh/α   predicted    -0.2800772E-04 ( -27.25%)
   displ. norm   :     0.1226196 α      lambda       -0.3891254E-04
   maximum displ.:     0.0774865 α      in ANC's #1, #13, #11, ...

........................................................................
.............................. CYCLE   15 ..............................
........................................................................

 iter      E             dE          RMSdq      gap      omega  full diag
   1    -51.8906018 -0.518906E+02  0.313E-02    3.75       0.0  T
   2    -51.8906020 -0.235295E-06  0.184E-02    3.75       1.0  T
   3    -51.8906018  0.147654E-06  0.234E-03    3.75       6.9  T
   4    -51.8906021 -0.219065E-06  0.697E-04    3.75      23.0  T
   5    -51.8906021 -0.740155E-08  0.355E-04    3.75      45.1  T
     SCC iter.                  ...        0 min,  0.008 sec
     gradient                   ...        0 min,  0.019 sec
 * total energy  :   -51.1329144 Eh     change       -0.2718103E-04 Eh
   gradient norm :     0.0023046 Eh/α   predicted    -0.1975063E-04 ( -27.34%)
   displ. norm   :     0.1172688 α      lambda       -0.3927913E-04
   maximum displ.:     0.0720005 α      in ANC's #1, #15, #3, ...

........................................................................
.............................. CYCLE   16 ..............................
........................................................................

 iter      E             dE          RMSdq      gap      omega  full diag
   1    -51.8912787 -0.518913E+02  0.299E-02    3.75       0.0  T
   2    -51.8912790 -0.308692E-06  0.175E-02    3.75       1.0  T
   3    -51.8912789  0.105321E-06  0.266E-03    3.75       6.0  T
   4    -51.8912791 -0.175269E-06  0.710E-04    3.75      22.6  T
   5    -51.8912791 -0.552478E-08  0.358E-04    3.75      44.7  T
     SCC iter.                  ...        0 min,  0.007 sec
     gradient                   ...        0 min,  0.019 sec
 * total energy  :   -51.1329393 Eh     change       -0.2492727E-04 Eh
   gradient norm :     0.0025395 Eh/α   predicted    -0.1991418E-04 ( -20.11%)
   displ. norm   :     0.0957081 α      lambda       -0.2848712E-04
   maximum displ.:     0.0616100 α      in ANC's #1, #3, #15, ...

........................................................................
.............................. CYCLE   17 ..............................
........................................................................

 iter      E             dE          RMSdq      gap      omega  full diag
   1    -51.8913758 -0.518914E+02  0.189E-02    3.76       0.0  T
   2    -51.8913760 -0.177558E-06  0.111E-02    3.76       1.4  T
   3    -51.8913759  0.775541E-07  0.211E-03    3.76       7.6  T
   4    -51.8913761 -0.107082E-06  0.584E-04    3.76      27.4  T
   5    -51.8913761 -0.663150E-08  0.237E-04    3.76      67.6  T
     SCC iter.                  ...        0 min,  0.008 sec
     gradient                   ...        0 min,  0.023 sec
 * total energy  :   -51.1329603 Eh     change       -0.2102954E-04 Eh
   gradient norm :     0.0018504 Eh/α   predicted    -0.1438686E-04 ( -31.59%)
   displ. norm   :     0.1507365 α      lambda       -0.2431606E-04
   maximum displ.:     0.1023234 α      in ANC's #1, #3, #15, ...

........................................................................
.............................. CYCLE   18 ..............................
........................................................................

 iter      E             dE          RMSdq      gap      omega  full diag
   1    -51.8917933 -0.518918E+02  0.266E-02    3.76       0.0  T
   2    -51.8917935 -0.208682E-06  0.156E-02    3.76       1.0  T
   3    -51.8917932  0.320077E-06  0.359E-03    3.76       4.5  T
   4    -51.8917936 -0.406101E-06  0.594E-04    3.76      26.9  T
   5    -51.8917936 -0.317684E-08  0.295E-04    3.76      54.4  T
     SCC iter.                  ...        0 min,  0.010 sec
     gradient                   ...        0 min,  0.019 sec
 * total energy  :   -51.1329836 Eh     change       -0.2324315E-04 Eh
   gradient norm :     0.0019776 Eh/α   predicted    -0.1228516E-04 ( -47.15%)
   displ. norm   :     0.0803544 α      lambda       -0.1224295E-04
   maximum displ.:     0.0608388 α      in ANC's #1, #3, #6, ...

........................................................................
.............................. CYCLE   19 ..............................
........................................................................

 iter      E             dE          RMSdq      gap      omega  full diag
   1    -51.8915825 -0.518916E+02  0.136E-02    3.76       0.0  T
   2    -51.8915828 -0.261302E-06  0.794E-03    3.76       2.0  T
   3    -51.8915827  0.636817E-07  0.209E-03    3.76       7.7  T
   4    -51.8915828 -0.878642E-07  0.488E-04    3.76      32.8  T
   5    -51.8915828 -0.916178E-08  0.157E-04    3.76     102.1  T
     SCC iter.                  ...        0 min,  0.007 sec
     gradient                   ...        0 min,  0.019 sec
 * total energy  :   -51.1329982 Eh     change       -0.1461446E-04 Eh
   gradient norm :     0.0013383 Eh/α   predicted    -0.6141255E-05 ( -57.98%)
   displ. norm   :     0.0912372 α      lambda       -0.1557367E-04
   maximum displ.:     0.0659017 α      in ANC's #1, #3, #13, ...

........................................................................
.............................. CYCLE   20 ..............................
........................................................................

 iter      E             dE          RMSdq      gap      omega  full diag
   1    -51.8919099 -0.518919E+02  0.157E-02    3.75       0.0  T
   2    -51.8919101 -0.178254E-06  0.919E-03    3.76       1.7  T
   3    -51.8919101  0.312797E-07  0.163E-03    3.76       9.9  T
   4    -51.8919101 -0.485370E-07  0.431E-04    3.76      37.1  T
   5    -51.8919101 -0.440295E-08  0.179E-04    3.76      89.2  T
     SCC iter.                  ...        0 min,  0.008 sec
     gradient                   ...        0 min,  0.019 sec
 * total energy  :   -51.1330160 Eh     change       -0.1781720E-04 Eh
   gradient norm :     0.0015741 Eh/α   predicted    -0.7817703E-05 ( -56.12%)
   displ. norm   :     0.1361949 α      lambda       -0.2019500E-04
   maximum displ.:     0.0973035 α      in ANC's #1, #3, #13, ...
 * RMSD in coord.:     0.4659598 α      energy gain  -0.1069602E-01 Eh

generating ANC from exact Hessian ...
Using Lindh-Hessian (1995)
 Shifting diagonal of input Hessian by    9.6888963022978194E-003
 Lowest  eigenvalues of input Hessian
    0.000000    0.000000    0.000000    0.000000    0.000000    0.000000
    0.010000    0.010230    0.010640    0.011158    0.011831    0.012517
    0.013579    0.014889    0.015701    0.015806    0.017545    0.018021
 Highest eigenvalues
    1.630148    1.885656    1.909176    2.016792    2.108369    2.359091


........................................................................
.............................. CYCLE   21 ..............................
........................................................................

 iter      E             dE          RMSdq      gap      omega  full diag
   1    -51.8914001 -0.518914E+02  0.222E-02    3.75       0.0  T
   2    -51.8914004 -0.310412E-06  0.131E-02    3.75       1.2  T
   3    -51.8914003  0.110398E-06  0.251E-03    3.75       6.4  T
   4    -51.8914005 -0.139934E-06  0.681E-04    3.75      23.5  T
   5    -51.8914005 -0.115890E-07  0.229E-04    3.75      69.9  T
     SCC iter.                  ...        0 min,  0.007 sec
     gradient                   ...        0 min,  0.019 sec
 * total energy  :   -51.1330401 Eh     change       -0.2411099E-04 Eh
   gradient norm :     0.0020654 Eh/α   predicted     0.0000000E+00 (-100.00%)
   displ. norm   :     0.0243901 α      lambda       -0.1284112E-04
   maximum displ.:     0.0172361 α      in ANC's #1, #2, #13, ...

........................................................................
.............................. CYCLE   22 ..............................
........................................................................

 iter      E             dE          RMSdq      gap      omega  full diag
   1    -51.8915671 -0.518916E+02  0.658E-03    3.76       0.0  T
   2    -51.8915672 -0.103330E-06  0.384E-03    3.75       4.2  T
   3    -51.8915672  0.404037E-08  0.115E-03    3.75      14.0  T
   4    -51.8915672 -0.113292E-07  0.211E-04    3.75      75.9  T
   5    -51.8915672 -0.134715E-08  0.924E-05    3.75     173.3  T
     SCC iter.                  ...        0 min,  0.008 sec
     gradient                   ...        0 min,  0.019 sec
 * total energy  :   -51.1330510 Eh     change       -0.1084690E-04 Eh
   gradient norm :     0.0009497 Eh/α   predicted    -0.6647840E-05 ( -38.71%)
   displ. norm   :     0.0832839 α      lambda       -0.1744958E-04
   maximum displ.:     0.0581733 α      in ANC's #1, #2, #13, ...

........................................................................
.............................. CYCLE   23 ..............................
........................................................................

 iter      E             dE          RMSdq      gap      omega  full diag
   1    -51.8916878 -0.518917E+02  0.192E-02    3.76       0.0  T
   2    -51.8916882 -0.461678E-06  0.113E-02    3.76       1.4  T
   3    -51.8916882  0.404358E-07  0.235E-03    3.76       6.8  T
   4    -51.8916883 -0.757603E-07  0.503E-04    3.76      31.8  T
   5    -51.8916883 -0.633852E-08  0.226E-04    3.76      70.7  T
     SCC iter.                  ...        0 min,  0.007 sec
     gradient                   ...        0 min,  0.019 sec
 * total energy  :   -51.1330654 Eh     change       -0.1441889E-04 Eh
   gradient norm :     0.0016560 Eh/α   predicted    -0.9151133E-05 ( -36.53%)
   displ. norm   :     0.0363380 α      lambda       -0.5741612E-05
   maximum displ.:     0.0278906 α      in ANC's #1, #2, #13, ...

........................................................................
.............................. CYCLE   24 ..............................
........................................................................

 iter      E             dE          RMSdq      gap      omega  full diag
   1    -51.8916330 -0.518916E+02  0.695E-03    3.76       0.0  T
   2    -51.8916330 -0.135328E-07  0.411E-03    3.76       3.9  T
   3    -51.8916330  0.300793E-08  0.441E-04    3.76      36.3  T
   4    -51.8916330 -0.508591E-08  0.145E-04    3.76     110.4  T
     SCC iter.                  ...        0 min,  0.006 sec
     gradient                   ...        0 min,  0.019 sec
 * total energy  :   -51.1330732 Eh     change       -0.7764346E-05 Eh
   gradient norm :     0.0011756 Eh/α   predicted    -0.2873587E-05 ( -62.99%)
   displ. norm   :     0.0811700 α      lambda       -0.1236928E-04
   maximum displ.:     0.0594665 α      in ANC's #1, #2, #13, ...

........................................................................
.............................. CYCLE   25 ..............................
........................................................................

 iter      E             dE          RMSdq      gap      omega  full diag
   1    -51.8915407 -0.518915E+02  0.144E-02    3.76       0.0  T
   2    -51.8915408 -0.758788E-07  0.850E-03    3.76       1.9  T
   3    -51.8915408  0.180541E-07  0.106E-03    3.76      15.1  T
   4    -51.8915408 -0.273477E-07  0.299E-04    3.76      53.5  T
   5    -51.8915408 -0.188816E-08  0.140E-04    3.76     114.4  T
     SCC iter.                  ...        0 min,  0.008 sec
     gradient                   ...        0 min,  0.019 sec
 * total energy  :   -51.1330879 Eh     change       -0.1470685E-04 Eh
   gradient norm :     0.0005054 Eh/α   predicted    -0.6205009E-05 ( -57.81%)
   displ. norm   :     0.1104257 α      lambda       -0.1095381E-04
   maximum displ.:     0.0814185 α      in ANC's #1, #2, #13, ...

........................................................................
.............................. CYCLE   26 ..............................
........................................................................

 iter      E             dE          RMSdq      gap      omega  full diag
   1    -51.8914117 -0.518914E+02  0.178E-02    3.76       0.0  T
   2    -51.8914117 -0.607414E-07  0.106E-02    3.76       1.5  T
   3    -51.8914117  0.553484E-08  0.846E-04    3.76      18.9  T
   4    -51.8914117 -0.149998E-07  0.322E-04    3.76      49.7  T
     SCC iter.                  ...        0 min,  0.006 sec
     gradient                   ...        0 min,  0.019 sec
 * total energy  :   -51.1331015 Eh     change       -0.1359157E-04 Eh
   gradient norm :     0.0009471 Eh/α   predicted    -0.5507768E-05 ( -59.48%)
   displ. norm   :     0.1037209 α      lambda       -0.8858475E-05
   maximum displ.:     0.0771477 α      in ANC's #1, #2, #13, ...

........................................................................
.............................. CYCLE   27 ..............................
........................................................................

 iter      E             dE          RMSdq      gap      omega  full diag
   1    -51.8914918 -0.518915E+02  0.162E-02    3.76       0.0  T
   2    -51.8914918 -0.379350E-07  0.961E-03    3.76       1.7  T
   3    -51.8914918  0.122872E-08  0.633E-04    3.76      25.3  T
   4    -51.8914918 -0.769931E-08  0.293E-04    3.76      54.6  T
     SCC iter.                  ...        0 min,  0.006 sec
     gradient                   ...        0 min,  0.019 sec
 * total energy  :   -51.1331131 Eh     change       -0.1164441E-04 Eh
   gradient norm :     0.0008156 Eh/α   predicted    -0.4454538E-05 ( -61.75%)
   displ. norm   :     0.0955975 α      lambda       -0.8060900E-05
   maximum displ.:     0.0717779 α      in ANC's #1, #2, #13, ...

........................................................................
.............................. CYCLE   28 ..............................
........................................................................

 iter      E             dE          RMSdq      gap      omega  full diag
   1    -51.8916725 -0.518917E+02  0.145E-02    3.76       0.0  T
   2    -51.8916725 -0.327130E-07  0.861E-03    3.76       1.9  T
   3    -51.8916725  0.470112E-08  0.589E-04    3.76      27.2  T
   4    -51.8916725 -0.100890E-07  0.276E-04    3.76      58.0  T
     SCC iter.                  ...        0 min,  0.006 sec
     gradient                   ...        0 min,  0.019 sec
 * total energy  :   -51.1331238 Eh     change       -0.1068141E-04 Eh
   gradient norm :     0.0004824 Eh/α   predicted    -0.4047192E-05 ( -62.11%)
   displ. norm   :     0.0936446 α      lambda       -0.7530557E-05
   maximum displ.:     0.0705000 α      in ANC's #1, #2, #5, ...

........................................................................
.............................. CYCLE   29 ..............................
........................................................................

 iter      E             dE          RMSdq      gap      omega  full diag
   1    -51.8917898 -0.518918E+02  0.147E-02    3.76       0.0  T
   2    -51.8917898 -0.313974E-07  0.865E-03    3.76       1.9  T
   3    -51.8917898  0.673586E-08  0.640E-04    3.76      25.0  T
   4    -51.8917898 -0.132957E-07  0.274E-04    3.76      58.3  T
     SCC iter.                  ...        0 min,  0.006 sec
     gradient                   ...        0 min,  0.019 sec
 * total energy  :   -51.1331339 Eh     change       -0.1007787E-04 Eh
   gradient norm :     0.0002917 Eh/α   predicted    -0.3780535E-05 ( -62.49%)
   displ. norm   :     0.0920790 α      lambda       -0.7109912E-05
   maximum displ.:     0.0694580 α      in ANC's #1, #2, #5, ...

........................................................................
.............................. CYCLE   30 ..............................
........................................................................

 iter      E             dE          RMSdq      gap      omega  full diag
   1    -51.8918968 -0.518919E+02  0.149E-02    3.76       0.0  T
   2    -51.8918969 -0.360520E-07  0.878E-03    3.76       1.8  T
   3    -51.8918969  0.919421E-08  0.752E-04    3.76      21.3  T
   4    -51.8918969 -0.172746E-07  0.280E-04    3.76      57.2  T
     SCC iter.                  ...        0 min,  0.006 sec
     gradient                   ...        0 min,  0.019 sec
 * total energy  :   -51.1331435 Eh     change       -0.9666157E-05 Eh
   gradient norm :     0.0003763 Eh/α   predicted    -0.3569457E-05 ( -63.07%)
   displ. norm   :     0.0917954 α      lambda       -0.6970259E-05
   maximum displ.:     0.0694054 α      in ANC's #1, #2, #5, ...

........................................................................
.............................. CYCLE   31 ..............................
........................................................................

 iter      E             dE          RMSdq      gap      omega  full diag
   1    -51.8919217 -0.518919E+02  0.159E-02    3.76       0.0  T
   2    -51.8919217 -0.429605E-07  0.934E-03    3.76       1.7  T
   3    -51.8919217  0.759791E-08  0.830E-04    3.76      19.3  T
   4    -51.8919217 -0.178001E-07  0.301E-04    3.76      53.2  T
     SCC iter.                  ...        0 min,  0.006 sec
     gradient                   ...        0 min,  0.019 sec
 * total energy  :   -51.1331531 Eh     change       -0.9589565E-05 Eh
   gradient norm :     0.0003936 Eh/α   predicted    -0.3499040E-05 ( -63.51%)
   displ. norm   :     0.0952857 α      lambda       -0.7172413E-05
   maximum displ.:     0.0722200 α      in ANC's #1, #2, #5, ...

........................................................................
.............................. CYCLE   32 ..............................
........................................................................

 iter      E             dE          RMSdq      gap      omega  full diag
   1    -51.8919295 -0.518919E+02  0.174E-02    3.76       0.0  T
   2    -51.8919296 -0.585736E-07  0.102E-02    3.76       1.6  T
   3    -51.8919296  0.275163E-08  0.841E-04    3.76      19.0  T
   4    -51.8919296 -0.148256E-07  0.307E-04    3.76      52.1  T
     SCC iter.                  ...        0 min,  0.006 sec
     gradient                   ...        0 min,  0.019 sec
 * total energy  :   -51.1331630 Eh     change       -0.9843157E-05 Eh
   gradient norm :     0.0003450 Eh/α   predicted    -0.3601224E-05 ( -63.41%)
   displ. norm   :     0.1001446 α      lambda       -0.7271602E-05
   maximum displ.:     0.0761702 α      in ANC's #1, #2, #13, ...

........................................................................
.............................. CYCLE   33 ..............................
........................................................................

 iter      E             dE          RMSdq      gap      omega  full diag
   1    -51.8918896 -0.518919E+02  0.190E-02    3.76       0.0  T
   2    -51.8918896 -0.627322E-07  0.111E-02    3.76       1.4  T
   3    -51.8918896  0.772511E-08  0.944E-04    3.76      17.0  T
   4    -51.8918897 -0.221764E-07  0.346E-04    3.76      46.3  T
     SCC iter.                  ...        0 min,  0.006 sec
     gradient                   ...        0 min,  0.019 sec
 * total energy  :   -51.1331728 Eh     change       -0.9866405E-05 Eh
   gradient norm :     0.0003059 Eh/α   predicted    -0.3652332E-05 ( -62.98%)
   displ. norm   :     0.1001616 α      lambda       -0.6752231E-05
   maximum displ.:     0.0763457 α      in ANC's #1, #2, #13, ...

........................................................................
.............................. CYCLE   34 ..............................
........................................................................

 iter      E             dE          RMSdq      gap      omega  full diag
   1    -51.8918517 -0.518919E+02  0.191E-02    3.76       0.0  T
   2    -51.8918517 -0.720786E-07  0.112E-02    3.76       1.4  T
   3    -51.8918517  0.180666E-07  0.100E-03    3.76      16.0  T
   4    -51.8918517 -0.322914E-07  0.341E-04    3.76      47.0  T
   5    -51.8918517 -0.230656E-08  0.169E-04    3.76      94.8  T
     SCC iter.                  ...        0 min,  0.008 sec
     gradient                   ...        0 min,  0.019 sec
 * total energy  :   -51.1331819 Eh     change       -0.9100709E-05 Eh
   gradient norm :     0.0002264 Eh/α   predicted    -0.3393639E-05 ( -62.71%)
   displ. norm   :     0.0925436 α      lambda       -0.5685999E-05
   maximum displ.:     0.0708461 α      in ANC's #1, #2, #8, ...

........................................................................
.............................. CYCLE   35 ..............................
........................................................................

 iter      E             dE          RMSdq      gap      omega  full diag
   1    -51.8918508 -0.518919E+02  0.176E-02    3.76       0.0  T
   2    -51.8918509 -0.514106E-07  0.103E-02    3.76       1.6  T
   3    -51.8918509  0.220683E-07  0.947E-04    3.76      16.9  T
   4    -51.8918509 -0.339066E-07  0.310E-04    3.76      51.7  T
     SCC iter.                  ...        0 min,  0.006 sec
     gradient                   ...        0 min,  0.019 sec
 * total energy  :   -51.1331896 Eh     change       -0.7639629E-05 Eh
   gradient norm :     0.0002135 Eh/α   predicted    -0.2856270E-05 ( -62.61%)
   displ. norm   :     0.0787958 α      lambda       -0.4387388E-05
   maximum displ.:     0.0608980 α      in ANC's #1, #2, #8, ...

........................................................................
.............................. CYCLE   36 ..............................
........................................................................

 iter      E             dE          RMSdq      gap      omega  full diag
   1    -51.8918431 -0.518918E+02  0.147E-02    3.76       0.0  T
   2    -51.8918431 -0.412067E-07  0.860E-03    3.76       1.9  T
   3    -51.8918431  0.436542E-07  0.116E-03    3.76      13.8  T
   4    -51.8918431 -0.551789E-07  0.254E-04    3.76      63.1  T
   5    -51.8918431 -0.115900E-08  0.111E-04    3.76     144.7  T
     SCC iter.                  ...        0 min,  0.008 sec
     gradient                   ...        0 min,  0.019 sec
 * total energy  :   -51.1331955 Eh     change       -0.5946556E-05 Eh
   gradient norm :     0.0001925 Eh/α   predicted    -0.2201732E-05 ( -62.97%)
   displ. norm   :     0.0638281 α      lambda       -0.3290158E-05
   maximum displ.:     0.0499439 α      in ANC's #1, #2, #3, ...

........................................................................
.............................. CYCLE   37 ..............................
........................................................................

 iter      E             dE          RMSdq      gap      omega  full diag
   1    -51.8918733 -0.518919E+02  0.117E-02    3.76       0.0  T
   2    -51.8918734 -0.270741E-07  0.687E-03    3.76       2.3  T
   3    -51.8918733  0.348349E-07  0.103E-03    3.76      15.6  T
   4    -51.8918734 -0.430328E-07  0.192E-04    3.76      83.4  T
   5    -51.8918734 -0.599769E-09  0.801E-05    3.76     199.9  T
     SCC iter.                  ...        0 min,  0.008 sec
     gradient                   ...        0 min,  0.019 sec
 * total energy  :   -51.1332000 Eh     change       -0.4491833E-05 Eh
   gradient norm :     0.0001640 Eh/α   predicted    -0.1650570E-05 ( -63.25%)
   displ. norm   :     0.0509758 α      lambda       -0.2493432E-05
   maximum displ.:     0.0405577 α      in ANC's #1, #2, #3, ...

   *** GEOMETRY OPTIMIZATION CONVERGED AFTER 37 ITERATIONS ***

------------------------------------------------------------------------
 total energy gain   :        -0.0108800 Eh       -6.8273 kcal/mol
 total RMSD          :         0.5989888 a0        0.3170 Å
 total power (kW/mol):        -0.7720392 (step)  -22.0441 (real)
------------------------------------------------------------------------

 ANCopt (total)                0 d,  0 h,  0 min,  1.296 sec
 optimizer setup                ...        0 min,  0.000 sec (  0.007%)
 model hessian                  ...        0 min,  0.034 sec (  2.650%)
 ANC generation                 ...        0 min,  0.003 sec (  0.203%)
 coordinate transformation      ...        0 min,  0.000 sec (  0.018%)
 single point calculation       ...        0 min,  1.249 sec ( 96.374%)
 optimization log               ...        0 min,  0.006 sec (  0.452%)
 hessian update                 ...        0 min,  0.000 sec (  0.033%)
 rational function              ...        0 min,  0.002 sec (  0.170%)

================
 final structure:
================
39
 xtb: 6.7.1 (edcfbbe)
C           -0.55046867072257        2.48550309055218       -0.08690180555823
C           -1.76645773149444        1.73860536555785       -0.54913272537101
C           -2.92047372250002        2.41866105859684       -0.90250125211442
C           -4.03754816183575        1.73083062485939       -1.34148599496899
C           -4.01185756367668        0.35154948016678       -1.40639482749205
C           -2.87856675419667       -0.36631761750154       -1.04503136366618
C           -2.89813460808382       -1.86094792773786       -1.07251575295731
C           -1.74457517423770        0.34192772677356       -0.63744326205745
N           -0.56662283537210       -0.33587079802511       -0.26071059706942
C            0.12644585117759       -1.24249472039798       -0.98608282333940
C            1.34226873714332       -1.76326757870055       -0.21779314252905
N            1.97761114050390       -0.71324409084615        0.56344084886488
C            2.80198071776152        0.12415889588646       -0.30092170726234
C            3.16899283643386        1.45722448240399        0.34249450744661
C            2.69399623525951       -1.24527605210455        1.71667874442064
C            1.74104731268262       -1.51197316861365        2.87761768093273
O           -0.16898155645584       -1.64148296655905       -2.09170137812090
H           -0.70881128053586        3.55754811622475       -0.17110222747323
H           -0.32861064274059        2.25615125895902        0.95685925585555
H            0.31573107171045        2.21362286181999       -0.68815923208953
H           -2.94006123442499        3.49721309602701       -0.84106550007715
H           -4.92873530937890        2.27085224943016       -1.62439516102481
H           -4.88969815036919       -0.18655571479956       -1.73318405042300
H           -2.29109518022086       -2.22794527319891       -1.89985191116481
H           -2.47710448899180       -2.26674110027789       -0.15300276314439
H           -3.91450801378836       -2.22788692102666       -1.19054201677386
H           -0.05533266595490        0.02245976467204        0.53914317864881
H            0.97359246668641       -2.54103663256554        0.45593054127008
H            2.03107564247411       -2.23898535624056       -0.93292527077933
H            2.21338668427182        0.31869257966519       -1.20202852621183
H            3.71994273888804       -0.40265374721866       -0.61277424001871
H            2.28968612236266        1.91840492382065        0.78310072238112
H            3.57168252619847        2.12508454820661       -0.41474137265250
H            3.92117591045182        1.33949986198522        1.11816992346569
H            3.42583703692015       -0.50420517158960        2.03823901074240
H            3.24245189239817       -2.16585562023038        1.45969433546382
H            1.22304157042450       -0.59600746518633        3.15056271631136
H            2.29975495947473       -1.86676575356761        3.73986229497345
H            0.99804229175409       -2.26267630922227        2.62039514356843

 Bond Distances (Angstroems)
 ---------------------------
C1-C2=1.5000         C1-H18=1.0869        C1-H19=1.0914        C1-H20=1.0889        C2-C1=1.5000         C2-C3=1.3853         
C2-C8=1.3996         C3-C2=1.3853         C3-C4=1.3834         C3-H21=1.0805        C4-C3=1.3834         C4-C5=1.3810         
C4-H22=1.0798        C5-C4=1.3810         C5-C6=1.3893         C5-H23=1.0803        C6-C5=1.3893         C6-C7=1.4950         
C6-C8=1.3977         C7-C6=1.4950         C7-H24=1.0898        C7-H25=1.0897        C7-H26=1.0870        C8-C2=1.3996         
C8-C6=1.3977         C8-N9=1.4103         N9-C8=1.4103         N9-C10=1.3522        N9-H27=1.0147        C10-N9=1.3522        
C10-C11=1.5296       C10-O17=1.2120       C11-C10=1.5296       C11-N12=1.4548       C11-H28=1.0930       C11-H29=1.1010       
N12-C11=1.4548       N12-C13=1.4588       N12-C15=1.4582       C13-N12=1.4588       C13-C14=1.5250       C13-H30=1.0937       
C13-H31=1.1034       C14-C13=1.5250       C14-H32=1.0863       C14-H33=1.0870       C14-H34=1.0869       C15-N12=1.4582       
C15-C16=1.5255       C15-H35=1.0900       C15-H36=1.1020       C16-C15=1.5255       C16-H37=1.0871       C16-H38=1.0870       
C16-H39=1.0871       O17-C10=1.2120       H18-C1=1.0869        H19-C1=1.0914        H20-C1=1.0889        H21-C3=1.0805        
H22-C4=1.0798        H23-C5=1.0803        H24-C7=1.0898        H25-C7=1.0897        H26-C7=1.0870        H27-N9=1.0147        
H28-C11=1.0930       H29-C11=1.1010       H30-C13=1.0937       H31-C13=1.1034       H32-C14=1.0863       H33-C14=1.0870       
H34-C14=1.0869       H35-C15=1.0900       H36-C15=1.1020       H37-C16=1.0871       H38-C16=1.0870       H39-C16=1.0871       
 C  H  Rav=1.0895 sigma=0.0063  Rmin=1.0798  Rmax=1.1034    21
 C  C  Rav=1.4465 sigma=0.0635  Rmin=1.3810  Rmax=1.5296    11
 N  H  Rav=1.0147 sigma=0.0000  Rmin=1.0147  Rmax=1.0147     1
 N  C  Rav=1.4268 sigma=0.0415  Rmin=1.3522  Rmax=1.4588     5
 O  C  Rav=1.2120 sigma=0.0000  Rmin=1.2120  Rmax=1.2120     1

 selected bond angles (degree)
 --------------------
H18-C1-C2=110.43               H19-C1-C2=110.78               H19-C1-H18=108.12              H20-C1-C2=110.51               
H20-C1-H18=108.62              H20-C1-H19=108.29              C3-C2-C1=120.63                C8-C2-C1=120.24                
C8-C2-C3=119.13                C4-C3-C2=120.63                H21-C3-C2=119.38               H21-C3-C4=119.98               
C5-C4-C3=119.77                H22-C4-C3=120.06               H22-C4-C5=120.17               C6-C5-C4=121.26                
H23-C5-C4=119.77               H23-C5-C6=118.96               C7-C6-C5=120.07                C8-C6-C5=118.41                
C8-C6-C7=121.50                H24-C7-C6=110.08               H25-C7-C6=110.59               H25-C7-H24=107.46              
H26-C7-C6=110.59               H26-C7-H24=108.95              H26-C7-H25=109.10              C6-C8-C2=120.75                
N9-C8-C2=118.41                N9-C8-C6=120.80                C10-N9-C8=127.38               H27-N9-C8=117.50               
H27-N9-C10=113.66              C11-C10-N9=111.48              O17-C10-N9=125.81              O17-C10-C11=122.68             

 selected dihedral angles (degree)
 ---------------------------------
C3-C2-C1-H18=354.90           C3-C2-C1-H19=114.66           C3-C2-C1-H20=234.69           C8-C2-C1-H18=174.45           
C8-C2-C1-H19=294.21           C8-C2-C1-H20= 54.24           C4-C3-C2-C1=179.35            C4-C3-C2-C8=359.80            
H21-C3-C2-C1=359.89           H21-C3-C2-C8=180.33           C5-C4-C3-C2=  1.15            C5-C4-C3-H21=180.60           
H22-C4-C3-C2=180.64           H22-C4-C3-H21=  0.10          C6-C5-C4-C3=359.64            C6-C5-C4-H22=180.15           
H23-C5-C4-C3=178.96           H23-C5-C4-H22=359.47          C7-C6-C5-C4=177.51            C7-C6-C5-H23=358.19           
C8-C6-C5-C4=358.66            C8-C6-C5-H23=179.33           H24-C7-C6-C5=108.57           H24-C7-C6-C8=287.39           
H25-C7-C6-C5=227.16           H25-C7-C6-C8= 45.98           H26-C7-C6-C5=348.13           H26-C7-C6-C8=166.95           
C6-C8-C2-C1=178.91            C6-C8-C2-C3=358.46            N9-C8-C2-C1=  1.09            N9-C8-C2-C3=180.65            
C2-C8-C6-C5=  2.29            C2-C8-C6-C7=183.45            N9-C8-C6-C5=180.05            N9-C8-C6-C7=  1.21            
C10-N9-C8-C2=232.85           C10-N9-C8-C6= 55.04           H27-N9-C8-C2= 38.10           H27-N9-C8-C6=220.29           
C11-C10-N9-C8=180.73          C11-C10-N9-H27= 15.01         O17-C10-N9-C8=358.85          O17-C10-N9-H27=193.13         
           -------------------------------------------------
          |                Final Singlepoint                |
           -------------------------------------------------

          ...................................................
          :                      SETUP                      :
          :.................................................:
          :  # basis functions                  90          :
          :  # atomic orbitals                  90          :
          :  # shells                           56          :
          :  # electrons                        94          :
          :  max. iterations                   250          :
          :  Hamiltonian                  GFN2-xTB          :
          :  restarted?                      false          :
          :  GBSA solvation                  false          :
          :  PC potential                    false          :
          :  electronic temp.          300.0000000     K    :
          :  accuracy                    1.0000000          :
          :  -> integral cutoff          0.2500000E+02      :
          :  -> integral neglect         0.1000000E-07      :
          :  -> SCF convergence          0.1000000E-05 Eh   :
          :  -> wf. convergence          0.1000000E-03 e    :
          :  Broyden damping             0.4000000          :
          :  net charge                          0          :
          :  unpaired electrons                  0          :
          ...................................................

 iter      E             dE          RMSdq      gap      omega  full diag
   1    -51.8918734 -0.518919E+02  0.317E-05    3.76       0.0  T
   2    -51.8918734 -0.503775E-11  0.190E-05    3.76     844.2  T
   3    -51.8918734 -0.603961E-12  0.112E-05    3.76    1433.1  T

   *** convergence criteria satisfied after 3 iterations ***

         #    Occupation            Energy/Eh            Energy/eV
      -------------------------------------------------------------
         1        2.0000           -0.6929402             -18.8559
       ...           ...                  ...                  ...
        41        2.0000           -0.4317269             -11.7479
        42        2.0000           -0.4225387             -11.4979
        43        2.0000           -0.4141454             -11.2695
        44        2.0000           -0.3923990             -10.6777
        45        2.0000           -0.3854539             -10.4887
        46        2.0000           -0.3758637             -10.2278
        47        2.0000           -0.3622091              -9.8562 (HOMO)
        48                         -0.2240011              -6.0954 (LUMO)
        49                         -0.2128326              -5.7915
        50                         -0.1919237              -5.2225
        51                         -0.0871103              -2.3704
        52                          0.0062152               0.1691
       ...                                ...                  ...
        90                          0.6806230              18.5207
      -------------------------------------------------------------
                  HL-Gap            0.1382079 Eh            3.7608 eV
             Fermi-level           -0.2931051 Eh           -7.9758 eV

 SCC (total)                   0 d,  0 h,  0 min,  0.031 sec
 SCC setup                      ...        0 min,  0.000 sec (  0.760%)
 Dispersion                     ...        0 min,  0.000 sec (  0.803%)
 classical contributions        ...        0 min,  0.000 sec (  0.416%)
 integral evaluation            ...        0 min,  0.006 sec ( 18.513%)
 iterations                     ...        0 min,  0.005 sec ( 16.189%)
 molecular gradient             ...        0 min,  0.019 sec ( 62.942%)
 printout                       ...        0 min,  0.000 sec (  0.354%)

         :::::::::::::::::::::::::::::::::::::::::::::::::::::
         ::                     SUMMARY                     ::
         :::::::::::::::::::::::::::::::::::::::::::::::::::::
         :: total energy             -51.133200010926 Eh    ::
         :: gradient norm              0.000164627051 Eh/a0 ::
         :: HOMO-LUMO gap              3.760829660623 eV    ::
         ::.................................................::
         :: SCC energy               -51.891330332315 Eh    ::
         :: -> isotropic ES            0.047695141985 Eh    ::
         :: -> anisotropic ES          0.007025409575 Eh    ::
         :: -> anisotropic XC          0.027921956518 Eh    ::
         :: -> dispersion             -0.037263232552 Eh    ::
         :: repulsion energy           0.758130321389 Eh    ::
         :: add. restraining           0.000000000000 Eh    ::
         :: total charge              -0.000000000000 e     ::
         :::::::::::::::::::::::::::::::::::::::::::::::::::::

           -------------------------------------------------
          |                Property Printout                |
           -------------------------------------------------

    * Orbital Energies and Occupations

         #    Occupation            Energy/Eh            Energy/eV
      -------------------------------------------------------------
         1        2.0000           -0.6929402             -18.8559
       ...           ...                  ...                  ...
        35        2.0000           -0.4625183             -12.5858
        36        2.0000           -0.4602190             -12.5232
        37        2.0000           -0.4502992             -12.2533
        38        2.0000           -0.4479526             -12.1894
        39        2.0000           -0.4447996             -12.1036
        40        2.0000           -0.4402529             -11.9799
        41        2.0000           -0.4317269             -11.7479
        42        2.0000           -0.4225387             -11.4979
        43        2.0000           -0.4141454             -11.2695
        44        2.0000           -0.3923990             -10.6777
        45        2.0000           -0.3854539             -10.4887
        46        2.0000           -0.3758637             -10.2278
        47        2.0000           -0.3622091              -9.8562 (HOMO)
        48                         -0.2240011              -6.0954 (LUMO)
        49                         -0.2128326              -5.7915
        50                         -0.1919237              -5.2225
        51                         -0.0871103              -2.3704
        52                          0.0062152               0.1691
        53                          0.0219793               0.5981
        54                          0.0707062               1.9240
        55                          0.0755231               2.0551
        56                          0.0936316               2.5478
        57                          0.1060424               2.8856
        58                          0.1085852               2.9548
       ...                                ...                  ...
        90                          0.6806230              18.5207
      -------------------------------------------------------------
                  HL-Gap            0.1382079 Eh            3.7608 eV
             Fermi-level           -0.2931051 Eh           -7.9758 eV

     #   Z          covCN         q      C6AA      α(0)
     1   6 C        3.757    -0.108    22.614     6.780
     2   6 C        2.969    -0.003    28.098     8.695
     3   6 C        2.925    -0.045    29.117     8.849
     4   6 C        2.916    -0.038    28.940     8.822
     5   6 C        2.927    -0.044    29.082     8.844
     6   6 C        2.965     0.013    27.713     8.635
     7   6 C        3.758    -0.110    22.661     6.787
     8   6 C        2.915     0.056    26.742     8.480
     9   7 N        2.696    -0.165    24.573     7.362
    10   6 C        2.748     0.270    22.438     7.756
    11   6 C        3.770    -0.023    21.015     6.533
    12   7 N        2.727    -0.193    25.187     7.454
    13   6 C        3.758     0.015    20.369     6.435
    14   6 C        3.751    -0.109    22.646     6.786
    15   6 C        3.752     0.012    20.425     6.445
    16   6 C        3.752    -0.109    22.646     6.786
    17   8 O        0.857    -0.431    22.308     6.332
    18   1 H        0.925     0.044     2.391     2.418
    19   1 H        0.924     0.038     2.474     2.460
    20   1 H        0.925     0.049     2.326     2.385
    21   1 H        0.926     0.031     2.575     2.509
    22   1 H        0.926     0.032     2.564     2.504
    23   1 H        0.926     0.035     2.521     2.483
    24   1 H        0.925     0.080     1.981     2.201
    25   1 H        0.925     0.038     2.481     2.463
    26   1 H        0.925     0.039     2.459     2.452
    27   1 H        0.860     0.194     1.136     1.669
    28   1 H        0.924     0.052     2.290     2.367
    29   1 H        0.923     0.035     2.524     2.484
    30   1 H        0.924     0.035     2.515     2.480
    31   1 H        0.923     0.011     2.875     2.652
    32   1 H        0.925     0.047     2.356     2.400
    33   1 H        0.925     0.041     2.434     2.440
    34   1 H        0.925     0.037     2.487     2.466
    35   1 H        0.925     0.040     2.448     2.447
    36   1 H        0.923     0.011     2.868     2.648
    37   1 H        0.925     0.043     2.414     2.430
    38   1 H        0.925     0.040     2.445     2.445
    39   1 H        0.925     0.038     2.477     2.461

 Mol. C6AA /au·bohr⁶  :      13884.890159
 Mol. C8AA /au·bohr⁸  :     311522.192353
 Mol. α(0) /au        :        181.045482


Wiberg/Mayer (AO) data.
largest (>0.10) Wiberg bond orders for each atom

 ---------------------------------------------------------------------------
     #   Z sym  total        # sym  WBO       # sym  WBO       # sym  WBO
 ---------------------------------------------------------------------------
     1   6 C    3.996 --     2 C    1.025    18 H    0.984    20 H    0.972
                            19 H    0.969
     2   6 C    3.988 --     3 C    1.425     8 C    1.356     1 C    1.025
                             5 C    0.103
     3   6 C    3.990 --     4 C    1.429     2 C    1.425    21 H    0.969
                             6 C    0.101
     4   6 C    3.992 --     5 C    1.447     3 C    1.429    22 H    0.971
     5   6 C    3.991 --     4 C    1.447     6 C    1.406    23 H    0.968
                             2 C    0.103
     6   6 C    3.988 --     5 C    1.406     8 C    1.364     7 C    1.033
                             3 C    0.101
     7   6 C    3.994 --     6 C    1.033    26 H    0.984    25 H    0.974
                            24 H    0.954
     8   6 C    3.959 --     6 C    1.364     2 C    1.356     9 N    1.037
     9   7 N    3.480 --    10 C    1.237     8 C    1.037    27 H    0.909
                            17 O    0.184
    10   6 C    3.953 --    17 O    1.692     9 N    1.237    11 C    0.947
    11   6 C    3.984 --    12 N    1.003    29 H    0.963    28 H    0.951
                            10 C    0.947
    12   7 N    3.131 --    11 C    1.003    13 C    0.998    15 C    0.997
    13   6 C    3.986 --    14 C    1.016    12 N    0.998    30 H    0.973
                            31 H    0.967
    14   6 C    3.996 --    13 C    1.016    33 H    0.985    32 H    0.984
                            34 H    0.983
    15   6 C    3.986 --    16 C    1.015    12 N    0.997    35 H    0.970
                            36 H    0.969
    16   6 C    3.996 --    15 C    1.015    37 H    0.987    38 H    0.986
                            39 H    0.983
    17   8 O    2.014 --    10 C    1.692     9 N    0.184
    18   1 H    0.998 --     1 C    0.984
    19   1 H    0.999 --     1 C    0.969
    20   1 H    0.997 --     1 C    0.972
    21   1 H    0.998 --     3 C    0.969
    22   1 H    0.999 --     4 C    0.971
    23   1 H    0.998 --     5 C    0.968
    24   1 H    0.994 --     7 C    0.954
    25   1 H    0.998 --     7 C    0.974
    26   1 H    0.998 --     7 C    0.984
    27   1 H    0.962 --     9 N    0.909
    28   1 H    0.997 --    11 C    0.951
    29   1 H    0.998 --    11 C    0.963
    30   1 H    0.998 --    13 C    0.973
    31   1 H    1.000 --    13 C    0.967
    32   1 H    0.998 --    14 C    0.984
    33   1 H    0.998 --    14 C    0.985
    34   1 H    0.999 --    14 C    0.983
    35   1 H    0.998 --    15 C    0.970
    36   1 H    1.000 --    15 C    0.969
    37   1 H    0.998 --    16 C    0.987
    38   1 H    0.998 --    16 C    0.986
    39   1 H    0.999 --    16 C    0.983
 ---------------------------------------------------------------------------

Topologies differ in total number of bonds
Writing topology from bond orders to xtbtopo.mol

molecular dipole:
                 x           y           z       tot (Debye)
 q only:        0.280       0.618       1.355
   full:        0.734       0.492       1.501       4.428
molecular quadrupole (traceless):
                xx          xy          yy          xz          yz          zz
 q only:        4.656       1.500       1.491       1.375      -5.495      -6.146
  q+dip:        7.969      -1.252       3.061       1.868      -6.567     -11.031
   full:        6.921      -0.313       2.248       0.833      -7.135      -9.169

           -------------------------------------------------
          |                Geometry Summary                 |
           -------------------------------------------------

      molecular mass/u    :      234.3378104
   center of mass at/Å    :       -0.3519872      -0.0383983      -0.2864941
  moments of inertia/u·Å² :        0.6640632E+03   0.1743672E+04   0.2030140E+04
rotational constants/cm⁻¹ :        0.2538559E-01   0.9667892E-02   0.8303680E-02

 * 36 selected distances

     #   Z          #   Z                                           value/Å
     2   6 C        3   6 C                                       1.3853152
     3   6 C        4   6 C                                       1.3833561
     4   6 C        5   6 C                                       1.3810467
     5   6 C        6   6 C                                       1.3893398
     2   6 C        8   6 C                                       1.3996379
     6   6 C        8   6 C                                       1.3977399
     8   6 C        9   7 N                                       1.4102874
     9   7 N       10   6 C                                       1.3522117
    11   6 C       12   7 N                                       1.4548320
    12   7 N       13   6 C                                       1.4587501
    13   6 C       14   6 C                                       1.5250399
    12   7 N       15   6 C                                       1.4581576
    15   6 C       16   6 C                                       1.5254569 (max)
    10   6 C       17   8 O                                       1.2119660
     1   6 C       18   1 H                                       1.0869420
     1   6 C       19   1 H                                       1.0914489
     1   6 C       20   1 H                                       1.0889130
     3   6 C       21   1 H                                       1.0804780
     4   6 C       22   1 H                                       1.0797572
     5   6 C       23   1 H                                       1.0802559
     7   6 C       24   1 H                                       1.0898024
     7   6 C       25   1 H                                       1.0896967
     7   6 C       26   1 H                                       1.0870094
     9   7 N       27   1 H                                       1.0146845 (min)
    11   6 C       28   1 H                                       1.0930465
    11   6 C       29   1 H                                       1.1009889
    13   6 C       30   1 H                                       1.0937459
    13   6 C       31   1 H                                       1.1033758
    14   6 C       32   1 H                                       1.0862789
    14   6 C       33   1 H                                       1.0870154
    14   6 C       34   1 H                                       1.0868813
    15   6 C       35   1 H                                       1.0900359
    15   6 C       36   1 H                                       1.1019581
    16   6 C       37   1 H                                       1.0871165
    16   6 C       38   1 H                                       1.0869673
    16   6 C       39   1 H                                       1.0870949

 * 5 distinct bonds (by element types)

   Z      Z             #   av. dist./Å        max./Å        min./Å
   1 H    6 C          21     1.0894671     1.1033758     1.0797572
   6 C    6 C           8     1.4233665     1.5254569     1.3810467
   1 H    7 N           1     1.0146845     1.0146845     1.0146845
   6 C    7 N           5     1.4268478     1.4587501     1.3522117
   6 C    8 O           1     1.2119660     1.2119660     1.2119660


optimized geometry written to: xtbopt.xyz


           -------------------------------------------------
          | TOTAL ENERGY              -51.133200010926 Eh   |
          | GRADIENT NORM               0.000164627051 Eh/α |
          | HOMO-LUMO GAP               3.760829660623 eV   |
           -------------------------------------------------

------------------------------------------------------------------------
 * finished run on 2025/05/15 at 16:08:09.600     
------------------------------------------------------------------------
 total:
 * wall-time:     0 d,  0 h,  0 min,  1.384 sec
 *  cpu-time:     0 d,  0 h,  0 min,  1.349 sec
 * ratio c/w:     0.974 speedup
 SCF:
 * wall-time:     0 d,  0 h,  0 min,  0.044 sec
 *  cpu-time:     0 d,  0 h,  0 min,  0.044 sec
 * ratio c/w:     0.994 speedup
 ANC optimizer:
 * wall-time:     0 d,  0 h,  0 min,  1.329 sec
 *  cpu-time:     0 d,  0 h,  0 min,  1.295 sec
 * ratio c/w:     0.975 speedup



----- Single-point -----
      -----------------------------------------------------------      
[...]
     15, 1652-1671. DOI: 10.1021/acs.jctc.8b01176
   for GFN1-xTB:
   * S. Grimme, C. Bannwarth, P. Shushkov, J. Chem. Theory Comput., 2017,
     13, 1989-2009. DOI: 10.1021/acs.jctc.7b00118
   for GFN0-xTB:
   * P. Pracht, E. Caldeweyher, S. Ehlert, S. Grimme, ChemRxiv, 2019, preprint.
     DOI: 10.26434/chemrxiv.8326202.v1
   for GFN-FF:
   * S. Spicher and S. Grimme, Angew. Chem. Int. Ed., 2020, 59, 15665-15673.
     DOI: 10.1002/anie.202004239
   
   for ALPB and GBSA implicit solvation:
   * S. Ehlert, M. Stahn, S. Spicher, S. Grimme, J. Chem. Theory Comput.,
     2021, 17, 4250-4261. DOI: 10.1021/acs.jctc.1c00471
   
   for ddCOSMO and CPCM-X implicit solvation:
   * M. Stahn, S. Ehlert, S. Grimme, J. Phys. Chem. A,
     2023, XX, XXXX-XXXX. DOI: 10.1021/acs.jpca.3c04382
   
   for DFT-D4:
   * E. Caldeweyher, C. Bannwarth and S. Grimme, J. Chem. Phys., 2017,
     147, 034112. DOI: 10.1063/1.4993215
   * E. Caldeweyher, S. Ehlert, A. Hansen, H. Neugebauer, S. Spicher,
     C. Bannwarth and S. Grimme, J. Chem. Phys., 2019, 150, 154122.
     DOI: 10.1063/1.5090222
   * E. Caldeweyher, J.-M. Mewes, S. Ehlert and S. Grimme, Phys. Chem. Chem. Phys.
     2020, 22, 8499-8512. DOI: 10.1039/D0CP00502A
   
   for sTDA-xTB:
   * S. Grimme and C. Bannwarth, J. Chem. Phys., 2016, 145, 054103.
     DOI: 10.1063/1.4959605
   
   in the mass-spec context:
   * V. Asgeirsson, C. Bauer and S. Grimme, Chem. Sci., 2017, 8, 4879.
     DOI: 10.1039/c7sc00601b
   * J. Koopman and S. Grimme, ACS Omega 2019, 4, 12, 15120-15133.
     DOI: 10.1021/acsomega.9b02011
   
   for metadynamics refer to:
   * S. Grimme, J. Chem. Theory Comput., 2019, 155, 2847-2862
     DOI: 10.1021/acs.jctc.9b00143
   
   for SPH calculations refer to:
   * S. Spicher and S. Grimme, J. Chem. Theory Comput., 2021, 17, 1701-1714
     DOI: 10.1021/acs.jctc.0c01306
   
   for ONIOM refer to:
   * C. Plett, A. Katbashev, S. Ehlert, S. Grimme, M. Bursch,
     Phys. Chem. Chem. Phys., 2023, 25, 17860-17868. DOI: 10.1039/D3CP02178E
   
   for DIPRO refer to:
   * J. Kohn, N. Gildemeister, S. Grimme, D. Fazzi, A. Hansen,
     J. Chem. Phys., 2023, just accepted.
   
   for PTB refer to:
   * S. Grimme, M. Mueller, A. Hansen, J. Chem. Phys., 2023, 158, 124111.
     DOI: 10.1063/5.0137838
   
   with help from (in alphabetical order)
   P. Atkinson, C. Bannwarth, F. Bohle, G. Brandenburg, E. Caldeweyher
   M. Checinski, S. Dohm, S. Ehlert, S. Ehrlich, I. Gerasimov, C. Hölzer
   A. Katbashev, J. Kohn, J. Koopman, C. Lavigne, S. Lehtola, F. März, M. Müller,
   F. Musil, H. Neugebauer, J. Pisarek, C. Plett, P. Pracht, F. Pultar,
   J. Seibert, P. Shushkov, S. Spicher, M. Stahn, M. Steiner, T. Strunk,
   J. Stückrath, T. Rose, and J. Unsleber
   
 * started run on 2025/05/15 at 16:08:10.891     
   ID    Z sym.   atoms
    1    6 C      1-8, 10, 11, 13-16
    2    7 N      9, 12
    3    8 O      17
    4    1 H      18-39

           -------------------------------------------------
          |                Calculation Setup                |
           -------------------------------------------------

          program call               : xtb /rds/general/user/hgt20/home/callum/QDESCP/Lidocaine_rdkit_conf_1/Lidocaine_rdkit_conf_1.xyz --acc 1 --gfn 2 --chrg 0 --uhf 2 --etemp 300 --input /rds/general/user/hgt20/home/callum/QDESCP/Lidocaine_rdkit_conf_1/Lidocaine_rdkit_conf_1_xtb.inp -P 1
          hostname                   : login-c
          coordinate file            : /rds/general/user/hgt20/home/callum/QDESCP/Lidocaine_rdkit_conf_1/Lidocaine_rdkit_conf_1.xyz
          omp threads                :                     1


           -------------------------------------------------
          |                 G F N 2 - x T B                 |
           -------------------------------------------------

        Reference                      10.1021/acs.jctc.8b01176
      * Hamiltonian:
        H0-scaling (s, p, d)           1.850000    2.230000    2.230000
        zeta-weighting                 0.500000
      * Dispersion:
        s8                             2.700000
        a1                             0.520000
        a2                             5.000000
        s9                             5.000000
      * Repulsion:
        kExp                           1.500000    1.000000
        rExp                           1.000000
      * Coulomb:
        alpha                          2.000000
        third order                    shell-resolved
        anisotropic                    true
        a3                             3.000000
        a5                             4.000000
        cn-shift                       1.200000
        cn-exp                         4.000000
        max-rad                        5.000000


          ...................................................
          :                      SETUP                      :
          :.................................................:
          :  # basis functions                  90          :
          :  # atomic orbitals                  90          :
          :  # shells                           56          :
          :  # electrons                        94          :
          :  max. iterations                   250          :
          :  Hamiltonian                  GFN2-xTB          :
          :  restarted?                      false          :
          :  GBSA solvation                  false          :
          :  PC potential                    false          :
          :  electronic temp.          300.0000000     K    :
          :  accuracy                    1.0000000          :
          :  -> integral cutoff          0.2500000E+02      :
          :  -> integral neglect         0.1000000E-07      :
          :  -> SCF convergence          0.1000000E-05 Eh   :
          :  -> wf. convergence          0.1000000E-03 e    :
          :  Broyden damping             0.4000000          :
          :  net charge                          0          :
          :  unpaired electrons                  2          :
          ...................................................

 iter      E             dE          RMSdq      gap      omega  full diag
   1    -51.4333952 -0.514334E+02  0.322E+00    0.14       0.0  T
   2    -51.4095089  0.238863E-01  0.335E+00    1.28       1.0  T
   3    -51.5527847 -0.143276E+00  0.208E+00    0.15       1.0  T
   4    -51.4787333  0.740514E-01  0.255E+00    1.35       1.0  T
   5    -51.6564639 -0.177731E+00  0.146E+00    0.54       1.0  T
   6    -51.7118813 -0.554174E-01  0.844E-01    0.35       1.0  T
   7    -51.7306920 -0.188107E-01  0.499E-01    0.34       1.0  T
   8    -51.7355130 -0.482101E-02  0.392E-01    0.25       1.0  T
   9    -51.7377415 -0.222852E-02  0.242E-01    0.20       1.0  T
  10    -51.7367452  0.996366E-03  0.256E-01    0.28       1.0  T
  11    -51.7407464 -0.400121E-02  0.593E-02    0.26       1.0  T
  12    -51.7408869 -0.140531E-03  0.218E-02    0.25       1.0  T
  13    -51.7408981 -0.111893E-04  0.130E-02    0.26       1.2  T
  14    -51.7409082 -0.101208E-04  0.306E-03    0.25       5.2  T
  15    -51.7409083 -0.962158E-07  0.165E-03    0.25       9.7  T
  16    -51.7409083 -0.371904E-07  0.113E-03    0.25      14.1  T
  17    -51.7409084 -0.857207E-07  0.251E-04    0.25      63.7  T
  18    -51.7409084  0.133947E-08  0.242E-04    0.25      66.2  T

   *** convergence criteria satisfied after 18 iterations ***

         #    Occupation            Energy/Eh            Energy/eV
      -------------------------------------------------------------
         1        2.0000           -0.6862626             -18.6742
       ...           ...                  ...                  ...
        42        2.0000           -0.4145132             -11.2795
        43        2.0000           -0.4076720             -11.0933
        44        2.0000           -0.3936255             -10.7111
        45        1.9985           -0.3781245             -10.2893
        46        1.9836           -0.3758417             -10.2272
        47        1.0179           -0.3681489             -10.0178
        48        0.9926           -0.2134276              -5.8077 (HOMO)
        49        0.0074           -0.2041066              -5.5540 (LUMO)
        50                         -0.1828620              -4.9759
        51                         -0.0773472              -2.1047
        52                         -0.0032217              -0.0877
        53                          0.0219459               0.5972
       ...                                ...                  ...
        90                          0.6892240              18.7547
      -------------------------------------------------------------
                  HL-Gap            0.0093210 Eh            0.2536 eV
             Fermi-level           -0.2903600 Eh           -7.9011 eV

 transition dipole moment (au) for excitation:          47          48
     X       Y       Z   
   1.1310  -0.8328   0.0385  total (au/Debye):    1.405   3.571
 dE (eV)             :    4.210
 oscillator strength :  0.28798E+00

 SCC (total)                   0 d,  0 h,  0 min,  0.058 sec
 SCC setup                      ...        0 min,  0.000 sec (  0.549%)
 Dispersion                     ...        0 min,  0.000 sec (  0.674%)
 classical contributions        ...        0 min,  0.000 sec (  0.214%)
 integral evaluation            ...        0 min,  0.006 sec ( 10.191%)
 iterations                     ...        0 min,  0.027 sec ( 46.353%)
 molecular gradient             ...        0 min,  0.019 sec ( 33.060%)
 printout                       ...        0 min,  0.005 sec (  8.949%)

         :::::::::::::::::::::::::::::::::::::::::::::::::::::
         ::                     SUMMARY                     ::
         :::::::::::::::::::::::::::::::::::::::::::::::::::::
         :: total energy             -50.982235044753 Eh    ::
         :: gradient norm              0.152069773045 Eh/a0 ::
         :: HOMO-LUMO gap              0.253637496458 eV    ::
         ::.................................................::
         :: SCC energy               -51.740365366143 Eh    ::
         :: -> isotropic ES            0.044976764443 Eh    ::
         :: -> anisotropic ES          0.007372470037 Eh    ::
         :: -> anisotropic XC          0.025557189135 Eh    ::
         :: -> dispersion             -0.037189219992 Eh    ::
         :: repulsion energy           0.758130321389 Eh    ::
         :: add. restraining           0.000000000000 Eh    ::
         :: total charge              -0.000000000001 e     ::
         :::::::::::::::::::::::::::::::::::::::::::::::::::::

           -------------------------------------------------
          |                Property Printout                |
           -------------------------------------------------

    * Orbital Energies and Occupations

         #    Occupation            Energy/Eh            Energy/eV
      -------------------------------------------------------------
         1        2.0000           -0.6862626             -18.6742
       ...           ...                  ...                  ...
        36        2.0000           -0.4590932             -12.4926
        37        2.0000           -0.4535118             -12.3407
        38        2.0000           -0.4484357             -12.2026
        39        2.0000           -0.4457363             -12.1291
        40        2.0000           -0.4406456             -11.9906
        41        2.0000           -0.4261638             -11.5965
        42        2.0000           -0.4145132             -11.2795
        43        2.0000           -0.4076720             -11.0933
        44        2.0000           -0.3936255             -10.7111
        45        1.9985           -0.3781245             -10.2893
        46        1.9836           -0.3758417             -10.2272
        47        1.0179           -0.3681489             -10.0178
        48        0.9926           -0.2134276              -5.8077 (HOMO)
        49        0.0074           -0.2041066              -5.5540 (LUMO)
        50                         -0.1828620              -4.9759
        51                         -0.0773472              -2.1047
        52                         -0.0032217              -0.0877
        53                          0.0219459               0.5972
        54                          0.0626717               1.7054
        55                          0.0660487               1.7973
        56                          0.0971667               2.6440
        57                          0.0997323               2.7139
        58                          0.1061217               2.8877
        59                          0.1100887               2.9957
       ...                                ...                  ...
        90                          0.6892240              18.7547
      -------------------------------------------------------------
                  HL-Gap            0.0093210 Eh            0.2536 eV
             Fermi-level           -0.2903600 Eh           -7.9011 eV

     #   Z          covCN         q      C6AA      α(0)
     1   6 C        3.757    -0.107    22.590     6.776
     2   6 C        2.969    -0.014    28.353     8.734
     3   6 C        2.925    -0.043    29.060     8.840
     4   6 C        2.916    -0.048    29.188     8.859
     5   6 C        2.927    -0.054    29.337     8.882
     6   6 C        2.965     0.016    27.661     8.627
     7   6 C        3.758    -0.111    22.678     6.789
     8   6 C        2.915     0.045    26.983     8.518
     9   7 N        2.696    -0.143    24.104     7.292
    10   6 C        2.748     0.224    23.285     7.901
    11   6 C        3.770    -0.020    20.959     6.524
    12   7 N        2.727    -0.158    24.424     7.340
    13   6 C        3.758     0.009    20.469     6.450
    14   6 C        3.751    -0.110    22.674     6.791
    15   6 C        3.752     0.009    20.484     6.454
    16   6 C        3.752    -0.110    22.668     6.789
    17   8 O        0.857    -0.429    22.266     6.327
    18   1 H        0.925     0.042     2.420     2.433
    19   1 H        0.924     0.034     2.534     2.489
    20   1 H        0.925     0.046     2.376     2.411
    21   1 H        0.926     0.025     2.661     2.551
    22   1 H        0.926     0.022     2.705     2.572
    23   1 H        0.926     0.026     2.639     2.540
    24   1 H        0.925     0.089     1.885     2.147
    25   1 H        0.925     0.041     2.433     2.439
    26   1 H        0.925     0.040     2.448     2.447
    27   1 H        0.860     0.189     1.165     1.691
    28   1 H        0.924     0.049     2.333     2.389
    29   1 H        0.923     0.041     2.439     2.442
    30   1 H        0.924     0.046     2.366     2.405
    31   1 H        0.923     0.022     2.701     2.570
    32   1 H        0.925     0.050     2.317     2.380
    33   1 H        0.925     0.045     2.383     2.414
    34   1 H        0.925     0.039     2.467     2.456
    35   1 H        0.925     0.045     2.379     2.412
    36   1 H        0.923     0.021     2.715     2.577
    37   1 H        0.925     0.046     2.376     2.410
    38   1 H        0.925     0.044     2.400     2.423
    39   1 H        0.925     0.042     2.425     2.435

 Mol. C6AA /au·bohr⁶  :      13864.125285
 Mol. C8AA /au·bohr⁸  :     311405.128039
 Mol. α(0) /au        :        180.928577


Wiberg/Mayer (AO) data.
largest (>0.10) Wiberg bond orders for each atom

 ---------------------------------------------------------------------------
     #   Z sym  total        # sym  WBO       # sym  WBO       # sym  WBO
 ---------------------------------------------------------------------------
     1   6 C    3.996 --     2 C    1.027    18 H    0.985    20 H    0.969
                            19 H    0.966
     2   6 C    3.946 --     3 C    1.552     8 C    1.123     1 C    1.027
     3   6 C    3.967 --     2 C    1.552     4 C    1.261    21 H    0.969
     4   6 C    3.807 --     3 C    1.261     5 C    1.256    22 H    0.972
     5   6 C    3.965 --     6 C    1.536     4 C    1.256    23 H    0.968
     6   6 C    3.956 --     5 C    1.536     8 C    1.141     7 C    1.042
     7   6 C    3.994 --     6 C    1.042    26 H    0.984    25 H    0.969
                            24 H    0.939
     8   6 C    3.804 --     9 N    1.155     6 C    1.141     2 C    1.123
                            10 C    0.107
     9   7 N    3.499 --     8 C    1.155    10 C    1.134    27 H    0.907
                            17 O    0.123
    10   6 C    3.906 --    17 O    1.564     9 N    1.134    11 C    0.920
                             8 C    0.107
    11   6 C    3.966 --    12 N    1.011    29 H    0.959    28 H    0.952
                            10 C    0.920
    12   7 N    3.208 --    11 C    1.011    13 C    0.998    15 C    0.993
    13   6 C    3.981 --    14 C    1.015    12 N    0.998    30 H    0.970
                            31 H    0.962
    14   6 C    3.994 --    13 C    1.015    33 H    0.985    32 H    0.984
                            34 H    0.983
    15   6 C    3.979 --    16 C    1.014    12 N    0.993    35 H    0.969
                            36 H    0.966
    16   6 C    3.993 --    15 C    1.014    37 H    0.987    38 H    0.985
                            39 H    0.983
    17   8 O    2.045 --    10 C    1.564     9 N    0.123
    18   1 H    0.998 --     1 C    0.985
    19   1 H    0.998 --     1 C    0.966
    20   1 H    0.997 --     1 C    0.969
    21   1 H    0.998 --     3 C    0.969
    22   1 H    0.999 --     4 C    0.972
    23   1 H    0.998 --     5 C    0.968
    24   1 H    0.990 --     7 C    0.939
    25   1 H    0.997 --     7 C    0.969
    26   1 H    0.998 --     7 C    0.984
    27   1 H    0.964 --     9 N    0.907
    28   1 H    0.993 --    11 C    0.952
    29   1 H    0.993 --    11 C    0.959
    30   1 H    0.997 --    13 C    0.970
    31   1 H    0.991 --    13 C    0.962
    32   1 H    0.997 --    14 C    0.984
    33   1 H    0.998 --    14 C    0.985
    34   1 H    0.998 --    14 C    0.983
    35   1 H    0.997 --    15 C    0.969
    36   1 H    0.994 --    15 C    0.966
    37   1 H    0.998 --    16 C    0.987
    38   1 H    0.998 --    16 C    0.985
    39   1 H    0.998 --    16 C    0.983
 ---------------------------------------------------------------------------

Topologies differ in total number of bonds
Writing topology from bond orders to xtbtopo.mol

molecular dipole:
                 x           y           z       tot (Debye)
 q only:        0.983       0.345       1.595
   full:        1.425       0.232       1.770       5.805
molecular quadrupole (traceless):
                xx          xy          yy          xz          yz          zz
 q only:        4.009       2.722       1.395       0.641      -5.451      -5.404
  q+dip:        7.361      -0.321       2.783       1.114      -6.759     -10.145
   full:        6.204       0.647       2.173       0.141      -7.077      -8.377


           -------------------------------------------------
          | TOTAL ENERGY              -50.982235044753 Eh   |
          | GRADIENT NORM               0.152069773045 Eh/α |
          | HOMO-LUMO GAP               0.253637496458 eV   |
           -------------------------------------------------

------------------------------------------------------------------------
 * finished run on 2025/05/15 at 16:08:10.961     
------------------------------------------------------------------------
 total:
 * wall-time:     0 d,  0 h,  0 min,  0.070 sec
 *  cpu-time:     0 d,  0 h,  0 min,  0.068 sec
 * ratio c/w:     0.974 speedup
 SCF:
 * wall-time:     0 d,  0 h,  0 min,  0.058 sec
 *  cpu-time:     0 d,  0 h,  0 min,  0.058 sec
 * ratio c/w:     0.994 speedup


