39
 energy: -51.133200010926 gnorm: 0.000164627051 xtb: 6.7.1 (edcfbbe)
C           -0.55046867072257        2.48550309055218       -0.08690180555823
C           -1.76645773149444        1.73860536555785       -0.54913272537101
C           -2.92047372250002        2.41866105859684       -0.90250125211442
C           -4.03754816183575        1.73083062485939       -1.34148599496899
C           -4.01185756367668        0.35154948016678       -1.40639482749205
C           -2.87856675419667       -0.36631761750154       -1.04503136366618
C           -2.89813460808382       -1.86094792773786       -1.07251575295731
C           -1.74457517423770        0.34192772677356       -0.63744326205745
N           -0.56662283537210       -0.33587079802511       -0.26071059706942
C            0.12644585117759       -1.24249472039798       -0.98608282333940
C            1.34226873714332       -1.76326757870055       -0.21779314252905
N            1.97761114050390       -0.71324409084615        0.56344084886488
C            2.80198071776152        0.12415889588646       -0.30092170726234
C            3.16899283643386        1.45722448240399        0.34249450744661
C            2.69399623525951       -1.24527605210455        1.71667874442064
C            1.74104731268262       -1.51197316861365        2.87761768093273
O           -0.16898155645584       -1.64148296655905       -2.09170137812090
H           -0.70881128053586        3.55754811622475       -0.17110222747323
H           -0.32861064274059        2.25615125895902        0.95685925585555
H            0.31573107171045        2.21362286181999       -0.68815923208953
H           -2.94006123442499        3.49721309602701       -0.84106550007715
H           -4.92873530937890        2.27085224943016       -1.62439516102481
H           -4.88969815036919       -0.18655571479956       -1.73318405042300
H           -2.29109518022086       -2.22794527319891       -1.89985191116481
H           -2.47710448899180       -2.26674110027789       -0.15300276314439
H           -3.91450801378836       -2.22788692102666       -1.19054201677386
H           -0.05533266595490        0.02245976467204        0.53914317864881
H            0.97359246668641       -2.54103663256554        0.45593054127008
H            2.03107564247411       -2.23898535624056       -0.93292527077933
H            2.21338668427182        0.31869257966519       -1.20202852621183
H            3.71994273888804       -0.40265374721866       -0.61277424001871
H            2.28968612236266        1.91840492382065        0.78310072238112
H            3.57168252619847        2.12508454820661       -0.41474137265250
H            3.92117591045182        1.33949986198522        1.11816992346569
H            3.42583703692015       -0.50420517158960        2.03823901074240
H            3.24245189239817       -2.16585562023038        1.45969433546382
H            1.22304157042450       -0.59600746518633        3.15056271631136
H            2.29975495947473       -1.86676575356761        3.73986229497345
H            0.99804229175409       -2.26267630922227        2.62039514356843
