54
 energy: -87.155448182750 gnorm: 0.000404180840 xtb: 6.7.1 (edcfbbe)
O           -4.31003074183467       -3.14386983324036        1.18621709000289
C           -3.36598949359736       -2.78853338461016        0.48137775415438
C           -3.09775127697602       -1.37423455626808        0.32862422134677
C           -1.99906514292403       -0.64523255922253       -0.00818687126966
C           -2.15415544797988        0.86406226935450        0.04397754746425
N           -1.16667720392684        1.41647188827007        0.96177239496302
C           -0.97917427331406        2.72770495489951        1.21724893569481
C            0.14593211546928        2.97195504088072        2.20668505709825
O           -1.62525213764189        3.61945911773749        0.70896093407618
C           -2.08256363517586        1.49196303044916       -1.36220935655233
C           -0.97507083534259        0.91396999949249       -2.24908098911058
C           -2.54694404678325       -3.77355066463566       -0.24402337676278
O           -3.01767280702081       -5.00679879744492       -0.51918075583115
C           -4.37990341348859       -5.34650282885768       -0.34199442754947
C           -1.23440706842360       -3.60148562652819       -0.60757592401643
C           -0.40603229511229       -2.47511458633557       -0.56431756409247
C           -0.70726612653671       -1.15587435249843       -0.33676160810994
C            0.41155390082333       -0.19726461792814       -0.52365596032234
C            1.57263630653998       -0.30584087949213        0.26287099557871
O            1.50124303752589       -1.28831677845032        1.20742698853037
C            2.53655074069449       -1.52446961739772        2.13486584171194
C            2.63709115170790        0.57935617270051        0.05580214862731
O            3.79639716167384        0.41853547062868        0.78944266968125
C            4.34003027372206        1.55357082824441        1.43370994250977
C            0.30473839722743        0.80240756701584       -1.47958670404458
C            1.35254156866886        1.68385032858517       -1.67710152094388
C            2.52047372440486        1.57187514764352       -0.93812311131878
O            3.60480435650339        2.38249809904669       -1.11365329489253
C            3.52630140913912        3.41854803193846       -2.06257330536614
H           -3.96694154221572       -0.80752797327268        0.64734556700951
H           -3.14567767054135        1.11728741235986        0.44423947570082
H           -0.60648337049204        0.74623296695994        1.46256443650772
H            0.25557560336079        4.03985175381151        2.37100306486049
H            1.07348876534630        2.56893248215090        1.80387816958377
H           -0.07079883534523        2.48271823536328        3.15377505104807
H           -1.93724803430032        2.56357368247112       -1.22950229173233
H           -3.04567921883238        1.33965525367761       -1.85197629782878
H           -1.27173005042054       -0.07777125693390       -2.59995951225058
H           -0.84400954819992        1.55853051081257       -3.11886573569929
H           -5.03561485322895       -4.65390243128420       -0.87451299263784
H           -4.47639016744712       -6.34495867609207       -0.76772246960183
H           -4.65975912215707       -5.35641653818051        0.71174244589533
H           -0.77249216010101       -4.50444857698751       -0.99006226701524
H            0.62524369633754       -2.67052368989297       -0.82828090182182
H            3.47868784416146       -1.76494108774454        1.64077475579438
H            2.68517298097025       -0.67318063091297        2.80417423487579
H            2.19506542955868       -2.38176384892963        2.71595386746789
H            5.03070773324541        1.16014471659329        2.17960661547699
H            4.88155112111435        2.19540571423227        0.73723310342096
H            3.56308443686761        2.14106881863604        1.93356301370251
H            1.25115363305018        2.44987916020384       -2.42758357339922
H            4.48605027409412        3.93105270697829       -2.01325474785253
H            2.72582909743783        4.12477555656614       -1.82152433269943
H            3.37877575971660        3.02718687545553       -3.07366643004108
