----- Optimization -----
      -----------------------------------------------------------      
     |                   =====================                   |     
     |                           x T B                           |     
     |                   =====================                   |     
     |                         S. Grimme                         |     
     |          Mulliken Center for Theoretical Chemistry        |     
     |                    University of Bonn                     |     
      -----------------------------------------------------------      

   * xtb version 6.7.1 (edcfbbe) compiled by 'conda@3ef47c1a292c' on 2024-11-25

   xtb is free software: you can redistribute it and/or modify it under
   the terms of the GNU Lesser General Public License as published by
   the Free Software Foundation, either version 3 of the License, or
   (at your option) any later version.
   
   xtb is distributed in the hope that it will be useful,
   but WITHOUT ANY WARRANTY; without even the implied warranty of
   MERCHANTABILITY or FITNESS FOR A PARTICULAR PURPOSE.  See the
   GNU Lesser General Public License for more details.
   
   Cite this work as:
   * C. Bannwarth, E. Caldeweyher, S. Ehlert, A. Hansen, P. Pracht,
     J. Seibert, S. Spicher, S. Grimme, WIREs Comput. Mol. Sci., 2020, 11,
     e01493. DOI: 10.1002/wcms.1493
   
   for GFN2-xTB:
   * C. Bannwarth, S. Ehlert and S. Grimme., J. Chem. Theory Comput., 2019,
     15, 1652-1671. DOI: 10.1021/acs.jctc.8b01176
   for GFN1-xTB:
   * S. Grimme, C. Bannwarth, P. Shushkov, J. Chem. Theory Comput., 2017,
     13, 1989-2009. DOI: 10.1021/acs.jctc.7b00118
   for GFN0-xTB:
   * P. Pracht, E. Caldeweyher, S. Ehlert, S. Grimme, ChemRxiv, 2019, preprint.
     DOI: 10.26434/chemrxiv.8326202.v1
   for GFN-FF:
   * S. Spicher and S. Grimme, Angew. Chem. Int. Ed., 2020, 59, 15665-15673.
     DOI: 10.1002/anie.202004239
   
   for ALPB and GBSA implicit solvation:
   * S. Ehlert, M. Stahn, S. Spicher, S. Grimme, J. Chem. Theory Comput.,
     2021, 17, 4250-4261. DOI: 10.1021/acs.jctc.1c00471
   
   for ddCOSMO and CPCM-X implicit solvation:
   * M. Stahn, S. Ehlert, S. Grimme, J. Phys. Chem. A,
     2023, XX, XXXX-XXXX. DOI: 10.1021/acs.jpca.3c04382
   
   for DFT-D4:
   * E. Caldeweyher, C. Bannwarth and S. Grimme, J. Chem. Phys., 2017,
     147, 034112. DOI: 10.1063/1.4993215
   * E. Caldeweyher, S. Ehlert, A. Hansen, H. Neugebauer, S. Spicher,
     C. Bannwarth and S. Grimme, J. Chem. Phys., 2019, 150, 154122.
     DOI: 10.1063/1.5090222
   * E. Caldeweyher, J.-M. Mewes, S. Ehlert and S. Grimme, Phys. Chem. Chem. Phys.
     2020, 22, 8499-8512. DOI: 10.1039/D0CP00502A
   
   for sTDA-xTB:
   * S. Grimme and C. Bannwarth, J. Chem. Phys., 2016, 145, 054103.
     DOI: 10.1063/1.4959605
   
   in the mass-spec context:
   * V. Asgeirsson, C. Bauer and S. Grimme, Chem. Sci., 2017, 8, 4879.
     DOI: 10.1039/c7sc00601b
   * J. Koopman and S. Grimme, ACS Omega 2019, 4, 12, 15120-15133.
     DOI: 10.1021/acsomega.9b02011
   
   for metadynamics refer to:
   * S. Grimme, J. Chem. Theory Comput., 2019, 155, 2847-2862
     DOI: 10.1021/acs.jctc.9b00143
   
   for SPH calculations refer to:
   * S. Spicher and S. Grimme, J. Chem. Theory Comput., 2021, 17, 1701-1714
     DOI: 10.1021/acs.jctc.0c01306
   
   for ONIOM refer to:
   * C. Plett, A. Katbashev, S. Ehlert, S. Grimme, M. Bursch,
     Phys. Chem. Chem. Phys., 2023, 25, 17860-17868. DOI: 10.1039/D3CP02178E
   
   for DIPRO refer to:
   * J. Kohn, N. Gildemeister, S. Grimme, D. Fazzi, A. Hansen,
     J. Chem. Phys., 2023, just accepted.
   
   for PTB refer to:
   * S. Grimme, M. Mueller, A. Hansen, J. Chem. Phys., 2023, 158, 124111.
     DOI: 10.1063/5.0137838
   
   with help from (in alphabetical order)
   P. Atkinson, C. Bannwarth, F. Bohle, G. Brandenburg, E. Caldeweyher
   M. Checinski, S. Dohm, S. Ehlert, S. Ehrlich, I. Gerasimov, C. Hölzer
   A. Katbashev, J. Kohn, J. Koopman, C. Lavigne, S. Lehtola, F. März, M. Müller,
   F. Musil, H. Neugebauer, J. Pisarek, C. Plett, P. Pracht, F. Pultar,
   J. Seibert, P. Shushkov, S. Spicher, M. Stahn, M. Steiner, T. Strunk,
   J. Stückrath, T. Rose, and J. Unsleber
   
 * started run on 2025/05/15 at 16:10:19.627     
   ID    Z sym.   atoms
    1    8 O      1, 9, 13, 20, 23, 28
    2    6 C      2-5, 7, 8, 10-12, 14-19, 21, 22, 24-27, 29
    3    7 N      6
    4    1 H      30-54

           -------------------------------------------------
          |                Calculation Setup                |
           -------------------------------------------------

          program call               : xtb /rds/general/user/hgt20/home/callum/QDESCP/Colchicine_rdkit_conf_4/Colchicine_rdkit_conf_4.xyz --opt normal --acc 1 --gfn 2 --chrg 0 --uhf 0 -P 1
          hostname                   : login-c
          coordinate file            : /rds/general/user/hgt20/home/callum/QDESCP/Colchicine_rdkit_conf_4/Colchicine_rdkit_conf_4.xyz
          omp threads                :                     1


           -------------------------------------------------
          |                 G F N 2 - x T B                 |
           -------------------------------------------------

        Reference                      10.1021/acs.jctc.8b01176
      * Hamiltonian:
        H0-scaling (s, p, d)           1.850000    2.230000    2.230000
        zeta-weighting                 0.500000
      * Dispersion:
        s8                             2.700000
        a1                             0.520000
        a2                             5.000000
        s9                             5.000000
      * Repulsion:
        kExp                           1.500000    1.000000
        rExp                           1.000000
      * Coulomb:
        alpha                          2.000000
        third order                    shell-resolved
        anisotropic                    true
        a3                             3.000000
        a5                             4.000000
        cn-shift                       1.200000
        cn-exp                         4.000000
        max-rad                        5.000000


          ...................................................
          :                      SETUP                      :
          :.................................................:
          :  # basis functions                 141          :
          :  # atomic orbitals                 141          :
          :  # shells                           83          :
          :  # electrons                       154          :
          :  max. iterations                   250          :
          :  Hamiltonian                  GFN2-xTB          :
          :  restarted?                      false          :
          :  GBSA solvation                  false          :
          :  PC potential                    false          :
          :  electronic temp.          300.0000000     K    :
          :  accuracy                    1.0000000          :
          :  -> integral cutoff          0.2500000E+02      :
          :  -> integral neglect         0.1000000E-07      :
          :  -> SCF convergence          0.1000000E-05 Eh   :
          :  -> wf. convergence          0.1000000E-03 e    :
          :  Broyden damping             0.4000000          :
          :  net charge                          0          :
          :  unpaired electrons                  0          :
          ...................................................

 iter      E             dE          RMSdq      gap      omega  full diag
   1    -88.0510658 -0.880511E+02  0.450E+00    2.42       0.0  T
   2    -88.1858866 -0.134821E+00  0.241E+00    2.18       1.0  T
   3    -88.1766089  0.927769E-02  0.127E+00    2.28       1.0  T
   4    -88.1901769 -0.135680E-01  0.542E-01    2.25       1.0  T
   5    -88.2009947 -0.108179E-01  0.149E-01    2.22       1.0  T
   6    -88.2017128 -0.718022E-03  0.722E-02    2.23       1.0  T
   7    -88.2017589 -0.461639E-04  0.359E-02    2.23       1.0  T
   8    -88.2017799 -0.210007E-04  0.146E-02    2.23       1.0  T
   9    -88.2017891 -0.912815E-05  0.598E-03    2.23       2.3  T
  10    -88.2017903 -0.122753E-05  0.270E-03    2.23       5.0  T
  11    -88.2017905 -0.160434E-06  0.100E-03    2.23      13.6  T
  12    -88.2017905 -0.444466E-08  0.440E-04    2.23      31.0  T
  13    -88.2017905 -0.354052E-08  0.158E-04    2.23      86.0  T

   *** convergence criteria satisfied after 13 iterations ***

         #    Occupation            Energy/Eh            Energy/eV
      -------------------------------------------------------------
         1        2.0000           -0.7258818             -19.7523
       ...           ...                  ...                  ...
        71        2.0000           -0.4157833             -11.3140
        72        2.0000           -0.4008665             -10.9081
        73        2.0000           -0.3953630             -10.7584
        74        2.0000           -0.3930789             -10.6962
        75        2.0000           -0.3857789             -10.4976
        76        2.0000           -0.3829503             -10.4206
        77        2.0000           -0.3756119             -10.2209 (HOMO)
        78                         -0.2936601              -7.9909 (LUMO)
        79                         -0.2667971              -7.2599
        80                         -0.2361834              -6.4269
        81                         -0.2308968              -6.2830
        82                         -0.2117783              -5.7628
       ...                                ...                  ...
       141                          0.8068170              21.9546
      -------------------------------------------------------------
                  HL-Gap            0.0819518 Eh            2.2300 eV
             Fermi-level           -0.3346360 Eh           -9.1059 eV

 SCC (total)                   0 d,  0 h,  0 min,  0.119 sec
 SCC setup                      ...        0 min,  0.001 sec (  0.508%)
 Dispersion                     ...        0 min,  0.001 sec (  0.723%)
 classical contributions        ...        0 min,  0.000 sec (  0.238%)
 integral evaluation            ...        0 min,  0.014 sec ( 11.734%)
 iterations                     ...        0 min,  0.063 sec ( 52.747%)
 molecular gradient             ...        0 min,  0.040 sec ( 33.716%)
 printout                       ...        0 min,  0.000 sec (  0.321%)

         :::::::::::::::::::::::::::::::::::::::::::::::::::::
         ::                     SUMMARY                     ::
         :::::::::::::::::::::::::::::::::::::::::::::::::::::
         :: total energy             -87.117095249410 Eh    ::
         :: gradient norm              0.153455619909 Eh/a0 ::
         :: HOMO-LUMO gap              2.230022049212 eV    ::
         ::.................................................::
         :: SCC energy               -88.200086608998 Eh    ::
         :: -> isotropic ES            0.127278299556 Eh    ::
         :: -> anisotropic ES          0.011165558409 Eh    ::
         :: -> anisotropic XC          0.019579869050 Eh    ::
         :: -> dispersion             -0.062936108799 Eh    ::
         :: repulsion energy           1.082991359588 Eh    ::
         :: add. restraining           0.000000000000 Eh    ::
         :: total charge               0.000000000000 e     ::
         :::::::::::::::::::::::::::::::::::::::::::::::::::::

      ----------------------------------------------------------- 
     |                   =====================                   |
     |                        A N C O P T                        |
     |                   =====================                   |
     |               Approximate Normal Coordinate               |
     |                Rational Function Optimizer                |
      ----------------------------------------------------------- 
      ----------------------------------------------------------- 
     |                   =====================                   |
     |                        A N C O P T                        |
     |                   =====================                   |
     |               Approximate Normal Coordinate               |
     |                Rational Function Optimizer                |
      ----------------------------------------------------------- 

          ...................................................
          :                      SETUP                      :
          :.................................................:
          :   optimization level            normal          :
          :   max. optcycles                   200          :
          :   ANC micro-cycles                  20          :
          :   degrees of freedom               156          :
          :.................................................:
          :   RF solver                   davidson          :
          :   write xtbopt.log                true          :
          :   linear?                        false          :
          :   energy convergence         0.5000000E-05 Eh   :
          :   grad. convergence          0.1000000E-02 Eh/α :
          :   maxmium RF displ.          1.0000000          :
          :   Hlow (freq-cutoff)         0.1000000E-01      :
          :   Hmax (freq-cutoff)         5.0000000          :
          :   S6 in model hess.         20.0000000          :
          ...................................................

generating ANC from exact Hessian ...
Using Lindh-Hessian (1995)
 Shifting diagonal of input Hessian by    9.7661722153713614E-003
 Lowest  eigenvalues of input Hessian
    0.000000    0.000000    0.000000    0.000000    0.000000    0.000000
    0.010000    0.010154    0.010308    0.010628    0.010739    0.011135
    0.012153    0.012364    0.012611    0.012679    0.013143    0.013926
 Highest eigenvalues
    2.019857    2.047653    2.109977    2.127639    2.252353    2.316171


........................................................................
.............................. CYCLE    1 ..............................
........................................................................

 iter      E             dE          RMSdq      gap      omega  full diag
   1    -88.2017905 -0.882018E+02  0.686E-05    2.23       0.0  T
   2    -88.2017905 -0.674873E-10  0.467E-05    2.23     291.3  T
   3    -88.2017905 -0.556639E-10  0.289E-05    2.23     471.1  T
     SCC iter.                  ...        0 min,  0.012 sec
     gradient                   ...        0 min,  0.039 sec
 * total energy  :   -87.1170952 Eh     change       -0.4658318E-09 Eh
   gradient norm :     0.1534559 Eh/α   predicted     0.0000000E+00 (-100.00%)
   displ. norm   :     0.3818811 α      lambda       -0.3399076E-01
   maximum displ.:     0.0880678 α      in ANC's #60, #44, #48, ...

........................................................................
.............................. CYCLE    2 ..............................
........................................................................

 iter      E             dE          RMSdq      gap      omega  full diag
   1    -88.2279518 -0.882280E+02  0.250E-01    2.25       0.0  T
   2    -88.2281004 -0.148593E-03  0.166E-01    2.27       1.0  T
   3    -88.2277991  0.301298E-03  0.102E-01    2.27       1.0  T
   4    -88.2282151 -0.416010E-03  0.195E-02    2.28       1.0  T
   5    -88.2282326 -0.174856E-04  0.840E-03    2.28       1.6  T
   6    -88.2282364 -0.385473E-05  0.265E-03    2.28       5.1  T
   7    -88.2282365 -0.424738E-07  0.145E-03    2.28       9.4  T
   8    -88.2282365 -0.273436E-07  0.618E-04    2.28      22.0  T
   9    -88.2282365 -0.118223E-07  0.279E-04    2.28      48.8  T
     SCC iter.                  ...        0 min,  0.032 sec
     gradient                   ...        0 min,  0.040 sec
 * total energy  :   -87.1402634 Eh     change       -0.2316817E-01 Eh
   gradient norm :     0.0555531 Eh/α   predicted    -0.1948780E-01 ( -15.89%)
   displ. norm   :     0.4017157 α      lambda       -0.1062811E-01
   maximum displ.:     0.1312843 α      in ANC's #28, #21, #26, ...

........................................................................
.............................. CYCLE    3 ..............................
........................................................................

 iter      E             dE          RMSdq      gap      omega  full diag
   1    -88.2451787 -0.882452E+02  0.191E-01    2.32       0.0  T
   2    -88.2452987 -0.119923E-03  0.121E-01    2.31       1.0  T
   3    -88.2451898  0.108888E-03  0.771E-02    2.33       1.0  T
   4    -88.2453652 -0.175447E-03  0.164E-02    2.32       1.0  T
   5    -88.2453772 -0.120091E-04  0.599E-03    2.32       2.3  T
   6    -88.2453791 -0.183061E-05  0.260E-03    2.32       5.2  T
   7    -88.2453792 -0.137534E-06  0.148E-03    2.32       9.2  T
   8    -88.2453792 -0.190619E-07  0.607E-04    2.32      22.4  T
   9    -88.2453792 -0.140697E-07  0.246E-04    2.32      55.2  T
     SCC iter.                  ...        0 min,  0.031 sec
     gradient                   ...        0 min,  0.039 sec
 * total energy  :   -87.1469438 Eh     change       -0.6680421E-02 Eh
   gradient norm :     0.0142208 Eh/α   predicted    -0.6179344E-02 (  -7.50%)
   displ. norm   :     0.3695845 α      lambda       -0.2863786E-02
   maximum displ.:     0.1386309 α      in ANC's #7, #21, #28, ...

........................................................................
.............................. CYCLE    4 ..............................
........................................................................

 iter      E             dE          RMSdq      gap      omega  full diag
   1    -88.2478853 -0.882479E+02  0.137E-01    2.35       0.0  T
   2    -88.2479617 -0.763946E-04  0.803E-02    2.33       1.0  T
   3    -88.2479078  0.539128E-04  0.472E-02    2.35       1.0  T
   4    -88.2479789 -0.710585E-04  0.142E-02    2.34       1.0  T
   5    -88.2479899 -0.109814E-04  0.318E-03    2.34       4.3  T
   6    -88.2479900 -0.193331E-06  0.203E-03    2.34       6.7  T
   7    -88.2479902 -0.120094E-06  0.102E-03    2.34      13.4  T
   8    -88.2479902 -0.179764E-07  0.276E-04    2.34      49.4  T
   9    -88.2479902 -0.827796E-09  0.133E-04    2.34     102.6  T
     SCC iter.                  ...        0 min,  0.031 sec
     gradient                   ...        0 min,  0.039 sec
 * total energy  :   -87.1490073 Eh     change       -0.2063485E-02 Eh
   gradient norm :     0.0182891 Eh/α   predicted    -0.1627583E-02 ( -21.12%)
   displ. norm   :     0.4396619 α      lambda       -0.2132508E-02
   maximum displ.:     0.1898575 α      in ANC's #7, #21, #8, ...

........................................................................
.............................. CYCLE    5 ..............................
........................................................................

 iter      E             dE          RMSdq      gap      omega  full diag
   1    -88.2491204 -0.882491E+02  0.141E-01    2.34       0.0  T
   2    -88.2491364 -0.160653E-04  0.828E-02    2.34       1.0  T
   3    -88.2490944  0.420523E-04  0.356E-02    2.35       1.0  T
   4    -88.2491430 -0.486276E-04  0.607E-03    2.34       2.2  T
   5    -88.2491442 -0.120962E-05  0.244E-03    2.34       5.6  T
   6    -88.2491442 -0.175193E-07  0.125E-03    2.34      10.9  T
   7    -88.2491442 -0.188321E-07  0.648E-04    2.34      21.0  T
   8    -88.2491443 -0.195892E-07  0.235E-04    2.34      57.9  T
     SCC iter.                  ...        0 min,  0.027 sec
     gradient                   ...        0 min,  0.039 sec
 * total energy  :   -87.1505157 Eh     change       -0.1508371E-02 Eh
   gradient norm :     0.0165957 Eh/α   predicted    -0.1272396E-02 ( -15.64%)
   displ. norm   :     0.4002779 α      lambda       -0.1325552E-02
   maximum displ.:     0.1756140 α      in ANC's #7, #8, #6, ...

........................................................................
.............................. CYCLE    6 ..............................
........................................................................

 iter      E             dE          RMSdq      gap      omega  full diag
   1    -88.2496733 -0.882497E+02  0.117E-01    2.33       0.0  T
   2    -88.2496824 -0.908167E-05  0.695E-02    2.32       1.0  T
   3    -88.2496579  0.245213E-04  0.231E-02    2.33       1.0  T
   4    -88.2496854 -0.275201E-04  0.518E-03    2.33       2.6  T
   5    -88.2496864 -0.103820E-05  0.208E-03    2.33       6.5  T
   6    -88.2496864 -0.102357E-07  0.124E-03    2.33      11.0  T
   7    -88.2496865 -0.317051E-07  0.559E-04    2.33      24.3  T
   8    -88.2496865 -0.147231E-07  0.181E-04    2.33      75.2  T
     SCC iter.                  ...        0 min,  0.028 sec
     gradient                   ...        0 min,  0.039 sec
 * total energy  :   -87.1514959 Eh     change       -0.9802324E-03 Eh
   gradient norm :     0.0122183 Eh/α   predicted    -0.7690027E-03 ( -21.55%)
   displ. norm   :     0.4026371 α      lambda       -0.1021577E-02
   maximum displ.:     0.1700711 α      in ANC's #7, #6, #8, ...

........................................................................
.............................. CYCLE    7 ..............................
........................................................................

 iter      E             dE          RMSdq      gap      omega  full diag
   1    -88.2518106 -0.882518E+02  0.102E-01    2.31       0.0  T
   2    -88.2518179 -0.724498E-05  0.618E-02    2.31       1.0  T
   3    -88.2517539  0.639654E-04  0.368E-02    2.31       1.0  T
   4    -88.2518263 -0.723832E-04  0.533E-03    2.31       2.6  T
   5    -88.2518276 -0.132861E-05  0.221E-03    2.31       6.1  T
   6    -88.2518277 -0.863606E-07  0.123E-03    2.31      11.0  T
   7    -88.2518277 -0.268496E-07  0.516E-04    2.31      26.4  T
   8    -88.2518277 -0.861019E-08  0.187E-04    2.31      72.8  T
     SCC iter.                  ...        0 min,  0.031 sec
     gradient                   ...        0 min,  0.039 sec
 * total energy  :   -87.1522399 Eh     change       -0.7440237E-03 Eh
   gradient norm :     0.0091585 Eh/α   predicted    -0.5935957E-03 ( -20.22%)
   displ. norm   :     0.4116735 α      lambda       -0.7297674E-03
   maximum displ.:     0.1810558 α      in ANC's #7, #6, #5, ...

........................................................................
.............................. CYCLE    8 ..............................
........................................................................

 iter      E             dE          RMSdq      gap      omega  full diag
   1    -88.2517934 -0.882518E+02  0.971E-02    2.31       0.0  T
   2    -88.2518027 -0.929560E-05  0.583E-02    2.31       1.0  T
   3    -88.2517750  0.276909E-04  0.266E-02    2.31       1.0  T
   4    -88.2518065 -0.315039E-04  0.485E-03    2.31       2.8  T
   5    -88.2518073 -0.806340E-06  0.213E-03    2.31       6.4  T
   6    -88.2518074 -0.121484E-06  0.115E-03    2.31      11.8  T
   7    -88.2518074 -0.140919E-07  0.625E-04    2.31      21.8  T
   8    -88.2518074 -0.150657E-07  0.163E-04    2.31      83.6  T
     SCC iter.                  ...        0 min,  0.037 sec
     gradient                   ...        0 min,  0.039 sec
 * total energy  :   -87.1527715 Eh     change       -0.5315513E-03 Eh
   gradient norm :     0.0091541 Eh/α   predicted    -0.4267277E-03 ( -19.72%)
   displ. norm   :     0.3929051 α      lambda       -0.5569221E-03
   maximum displ.:     0.1742009 α      in ANC's #6, #7, #1, ...

........................................................................
.............................. CYCLE    9 ..............................
........................................................................

 iter      E             dE          RMSdq      gap      omega  full diag
   1    -88.2530635 -0.882531E+02  0.866E-02    2.31       0.0  T
   2    -88.2530716 -0.810855E-05  0.546E-02    2.32       1.0  T
   3    -88.2530112  0.604225E-04  0.380E-02    2.31       1.0  T
   4    -88.2530891 -0.779336E-04  0.639E-03    2.31       2.1  T
   5    -88.2530914 -0.227953E-05  0.195E-03    2.31       7.0  T
   6    -88.2530915 -0.970663E-07  0.108E-03    2.31      12.6  T
   7    -88.2530915 -0.210160E-07  0.393E-04    2.31      34.6  T
   8    -88.2530915 -0.234603E-08  0.158E-04    2.31      86.2  T
     SCC iter.                  ...        0 min,  0.041 sec
     gradient                   ...        0 min,  0.039 sec
 * total energy  :   -87.1531585 Eh     change       -0.3870149E-03 Eh
   gradient norm :     0.0083458 Eh/α   predicted    -0.3214576E-03 ( -16.94%)
   displ. norm   :     0.3629460 α      lambda       -0.3559569E-03
   maximum displ.:     0.1632875 α      in ANC's #6, #7, #1, ...

........................................................................
.............................. CYCLE   10 ..............................
........................................................................

 iter      E             dE          RMSdq      gap      omega  full diag
   1    -88.2518158 -0.882518E+02  0.833E-02    2.33       0.0  T
   2    -88.2518208 -0.500600E-05  0.497E-02    2.32       1.0  T
   3    -88.2518135  0.728879E-05  0.136E-02    2.33       1.0  T
   4    -88.2518222 -0.875679E-05  0.254E-03    2.32       5.4  T
   5    -88.2518224 -0.188099E-06  0.132E-03    2.32      10.3  T
   6    -88.2518224 -0.177636E-07  0.755E-04    2.32      18.0  T
   7    -88.2518224 -0.120455E-07  0.322E-04    2.32      42.3  T
     SCC iter.                  ...        0 min,  0.024 sec
     gradient                   ...        0 min,  0.054 sec
 * total energy  :   -87.1534073 Eh     change       -0.2487662E-03 Eh
   gradient norm :     0.0056237 Eh/α   predicted    -0.2014253E-03 ( -19.03%)
   displ. norm   :     0.2861260 α      lambda       -0.2457914E-03
   maximum displ.:     0.1288999 α      in ANC's #6, #1, #11, ...

........................................................................
.............................. CYCLE   11 ..............................
........................................................................

 iter      E             dE          RMSdq      gap      omega  full diag
   1    -88.2532987 -0.882533E+02  0.652E-02    2.33       0.0  T
   2    -88.2533021 -0.338624E-05  0.390E-02    2.34       1.0  T
   3    -88.2532747  0.273987E-04  0.221E-02    2.33       1.0  T
   4    -88.2533059 -0.311574E-04  0.348E-03    2.34       3.9  T
   5    -88.2533066 -0.691710E-06  0.116E-03    2.34      11.8  T
   6    -88.2533066 -0.407497E-07  0.655E-04    2.34      20.8  T
   7    -88.2533066 -0.836455E-08  0.272E-04    2.34      50.1  T
     SCC iter.                  ...        0 min,  0.024 sec
     gradient                   ...        0 min,  0.056 sec
 * total energy  :   -87.1535807 Eh     change       -0.1734056E-03 Eh
   gradient norm :     0.0046143 Eh/α   predicted    -0.1329698E-03 ( -23.32%)
   displ. norm   :     0.2920935 α      lambda       -0.1911270E-03
   maximum displ.:     0.1296043 α      in ANC's #1, #6, #7, ...

........................................................................
.............................. CYCLE   12 ..............................
........................................................................

 iter      E             dE          RMSdq      gap      omega  full diag
   1    -88.2524133 -0.882524E+02  0.656E-02    2.34       0.0  T
   2    -88.2524160 -0.268661E-05  0.389E-02    2.34       1.0  T
   3    -88.2524073  0.872168E-05  0.130E-02    2.34       1.0  T
   4    -88.2524171 -0.977669E-05  0.228E-03    2.34       6.0  T
   5    -88.2524173 -0.194887E-06  0.920E-04    2.34      14.8  T
   6    -88.2524173 -0.140896E-07  0.482E-04    2.34      28.3  T
     SCC iter.                  ...        0 min,  0.020 sec
     gradient                   ...        0 min,  0.054 sec
 * total energy  :   -87.1537102 Eh     change       -0.1294670E-03 Eh
   gradient norm :     0.0055618 Eh/α   predicted    -0.1037173E-03 ( -19.89%)
   displ. norm   :     0.2512845 α      lambda       -0.1918579E-03
   maximum displ.:     0.1237665 α      in ANC's #1, #3, #6, ...

........................................................................
.............................. CYCLE   13 ..............................
........................................................................

 iter      E             dE          RMSdq      gap      omega  full diag
   1    -88.2544917 -0.882545E+02  0.533E-02    2.34       0.0  T
   2    -88.2544929 -0.124043E-05  0.316E-02    2.34       1.0  T
   3    -88.2544894  0.353375E-05  0.884E-03    2.34       1.5  T
   4    -88.2544933 -0.394603E-05  0.193E-03    2.34       7.1  T
   5    -88.2544935 -0.139315E-06  0.880E-04    2.34      15.5  T
   6    -88.2544935 -0.113045E-07  0.471E-04    2.34      28.9  T
     SCC iter.                  ...        0 min,  0.021 sec
     gradient                   ...        0 min,  0.060 sec
 * total energy  :   -87.1538286 Eh     change       -0.1184040E-03 Eh
   gradient norm :     0.0063474 Eh/α   predicted    -0.1019952E-03 ( -13.86%)
   displ. norm   :     0.2159950 α      lambda       -0.1377882E-03
   maximum displ.:     0.1240731 α      in ANC's #1, #3, #6, ...

........................................................................
.............................. CYCLE   14 ..............................
........................................................................

 iter      E             dE          RMSdq      gap      omega  full diag
   1    -88.2541778 -0.882542E+02  0.405E-02    2.34       0.0  T
   2    -88.2541786 -0.819179E-06  0.242E-02    2.34       1.0  T
   3    -88.2541772  0.133622E-05  0.540E-03    2.34       2.5  T
   4    -88.2541787 -0.146120E-05  0.143E-03    2.34       9.5  T
   5    -88.2541788 -0.106555E-06  0.685E-04    2.34      19.9  T
   6    -88.2541788 -0.165043E-07  0.323E-04    2.34      42.2  T
     SCC iter.                  ...        0 min,  0.021 sec
     gradient                   ...        0 min,  0.060 sec
 * total energy  :   -87.1539368 Eh     change       -0.1082887E-03 Eh
   gradient norm :     0.0046836 Eh/α   predicted    -0.7212977E-04 ( -33.39%)
   displ. norm   :     0.2569586 α      lambda       -0.1893258E-03
   maximum displ.:     0.1582068 α      in ANC's #1, #3, #6, ...

........................................................................
.............................. CYCLE   15 ..............................
........................................................................

 iter      E             dE          RMSdq      gap      omega  full diag
   1    -88.2545095 -0.882545E+02  0.467E-02    2.32       0.0  T
   2    -88.2545105 -0.103024E-05  0.280E-02    2.32       1.0  T
   3    -88.2544994  0.111858E-04  0.139E-02    2.32       1.0  T
   4    -88.2545119 -0.125383E-04  0.194E-03    2.32       7.0  T
   5    -88.2545121 -0.157767E-06  0.945E-04    2.32      14.4  T
   6    -88.2545121 -0.203273E-07  0.492E-04    2.32      27.6  T
     SCC iter.                  ...        0 min,  0.021 sec
     gradient                   ...        0 min,  0.039 sec
 * total energy  :   -87.1540767 Eh     change       -0.1398921E-03 Eh
   gradient norm :     0.0040536 Eh/α   predicted    -0.1009179E-03 ( -27.86%)
   displ. norm   :     0.3105806 α      lambda       -0.1637093E-03
   maximum displ.:     0.1931337 α      in ANC's #1, #3, #6, ...

........................................................................
.............................. CYCLE   16 ..............................
........................................................................

 iter      E             dE          RMSdq      gap      omega  full diag
   1    -88.2531140 -0.882531E+02  0.602E-02    2.31       0.0  T
   2    -88.2531175 -0.353191E-05  0.360E-02    2.31       1.0  T
   3    -88.2531016  0.159465E-04  0.170E-02    2.31       1.0  T
   4    -88.2531195 -0.179023E-04  0.323E-03    2.31       4.2  T
   5    -88.2531200 -0.513948E-06  0.126E-03    2.31      10.8  T
   6    -88.2531200 -0.387612E-07  0.683E-04    2.31      19.9  T
   7    -88.2531201 -0.926295E-08  0.353E-04    2.31      38.5  T
     SCC iter.                  ...        0 min,  0.024 sec
     gradient                   ...        0 min,  0.039 sec
 * total energy  :   -87.1541923 Eh     change       -0.1155996E-03 Eh
   gradient norm :     0.0064176 Eh/α   predicted    -0.8975235E-04 ( -22.36%)
   displ. norm   :     0.3009089 α      lambda       -0.1773793E-03
   maximum displ.:     0.2021433 α      in ANC's #1, #3, #25, ...

........................................................................
.............................. CYCLE   17 ..............................
........................................................................

 iter      E             dE          RMSdq      gap      omega  full diag
   1    -88.2542075 -0.882542E+02  0.576E-02    2.30       0.0  T
   2    -88.2542107 -0.325694E-05  0.342E-02    2.29       1.0  T
   3    -88.2542020  0.878625E-05  0.137E-02    2.30       1.0  T
   4    -88.2542120 -0.100320E-04  0.289E-03    2.30       4.7  T
   5    -88.2542123 -0.350037E-06  0.117E-03    2.30      11.6  T
   6    -88.2542124 -0.221120E-07  0.636E-04    2.30      21.4  T
   7    -88.2542124 -0.523788E-08  0.360E-04    2.30      37.9  T
     SCC iter.                  ...        0 min,  0.041 sec
     gradient                   ...        0 min,  0.039 sec
 * total energy  :   -87.1543052 Eh     change       -0.1128459E-03 Eh
   gradient norm :     0.0064479 Eh/α   predicted    -0.9672232E-04 ( -14.29%)
   displ. norm   :     0.3072074 α      lambda       -0.1429684E-03
   maximum displ.:     0.2014989 α      in ANC's #1, #3, #6, ...

........................................................................
.............................. CYCLE   18 ..............................
........................................................................

 iter      E             dE          RMSdq      gap      omega  full diag
   1    -88.2531768 -0.882532E+02  0.589E-02    2.29       0.0  T
   2    -88.2531801 -0.330290E-05  0.352E-02    2.29       1.0  T
   3    -88.2531697  0.103573E-04  0.138E-02    2.29       1.0  T
   4    -88.2531811 -0.113730E-04  0.329E-03    2.29       4.1  T
   5    -88.2531817 -0.593370E-06  0.120E-03    2.29      11.3  T
   6    -88.2531817 -0.326902E-07  0.640E-04    2.29      21.2  T
   7    -88.2531817 -0.727360E-08  0.350E-04    2.29      38.9  T
     SCC iter.                  ...        0 min,  0.046 sec
     gradient                   ...        0 min,  0.039 sec
 * total energy  :   -87.1544127 Eh     change       -0.1074996E-03 Eh
   gradient norm :     0.0053692 Eh/α   predicted    -0.7823079E-04 ( -27.23%)
   displ. norm   :     0.2924531 α      lambda       -0.1473164E-03
   maximum displ.:     0.2047827 α      in ANC's #1, #3, #6, ...

........................................................................
.............................. CYCLE   19 ..............................
........................................................................

 iter      E             dE          RMSdq      gap      omega  full diag
   1    -88.2541548 -0.882542E+02  0.536E-02    2.30       0.0  T
   2    -88.2541561 -0.129258E-05  0.318E-02    2.30       1.0  T
   3    -88.2541531  0.303424E-05  0.856E-03    2.30       1.6  T
   4    -88.2541567 -0.357688E-05  0.154E-03    2.30       8.9  T
   5    -88.2541567 -0.475908E-07  0.961E-04    2.30      14.2  T
   6    -88.2541568 -0.261643E-07  0.458E-04    2.30      29.7  T
     SCC iter.                  ...        0 min,  0.033 sec
     gradient                   ...        0 min,  0.039 sec
 * total energy  :   -87.1545163 Eh     change       -0.1036055E-03 Eh
   gradient norm :     0.0038567 Eh/α   predicted    -0.7996175E-04 ( -22.82%)
   displ. norm   :     0.2900891 α      lambda       -0.9419365E-04
   maximum displ.:     0.2050567 α      in ANC's #1, #3, #6, ...

........................................................................
.............................. CYCLE   20 ..............................
........................................................................

 iter      E             dE          RMSdq      gap      omega  full diag
   1    -88.2530336 -0.882530E+02  0.506E-02    2.30       0.0  T
   2    -88.2530345 -0.871664E-06  0.302E-02    2.30       1.0  T
   3    -88.2530274  0.706338E-05  0.106E-02    2.30       1.3  T
   4    -88.2530350 -0.764452E-05  0.207E-03    2.30       6.6  T
   5    -88.2530352 -0.197813E-06  0.946E-04    2.30      14.4  T
   6    -88.2530352 -0.171325E-07  0.414E-04    2.30      32.8  T
     SCC iter.                  ...        0 min,  0.020 sec
     gradient                   ...        0 min,  0.044 sec
 * total energy  :   -87.1545798 Eh     change       -0.6348511E-04 Eh
   gradient norm :     0.0048881 Eh/α   predicted    -0.5106149E-04 ( -19.57%)
   displ. norm   :     0.2574553 α      lambda       -0.1238025E-03
   maximum displ.:     0.1855520 α      in ANC's #1, #6, #3, ...
 * RMSD in coord.:     0.6580587 α      energy gain  -0.3748452E-01 Eh

generating ANC from exact Hessian ...
Using Lindh-Hessian (1995)
 Shifting diagonal of input Hessian by    9.7269165918435398E-003
 Lowest  eigenvalues of input Hessian
    0.000000    0.000000    0.000000    0.000000    0.000000    0.000000
    0.010000    0.010135    0.010237    0.010562    0.010696    0.011152
    0.012641    0.012770    0.012823    0.012994    0.013470    0.014202
 Highest eigenvalues
    1.973914    2.061725    2.095522    2.135975    2.225671    2.340403


........................................................................
.............................. CYCLE   21 ..............................
........................................................................

 iter      E             dE          RMSdq      gap      omega  full diag
   1    -88.2552715 -0.882553E+02  0.479E-02    2.30       0.0  T
   2    -88.2552740 -0.250501E-05  0.282E-02    2.30       1.0  T
   3    -88.2552683  0.568528E-05  0.104E-02    2.30       1.3  T
   4    -88.2552742 -0.588566E-05  0.323E-03    2.30       4.2  T
   5    -88.2552749 -0.643502E-06  0.989E-04    2.30      13.8  T
   6    -88.2552749 -0.238201E-07  0.519E-04    2.30      26.2  T
     SCC iter.                  ...        0 min,  0.039 sec
     gradient                   ...        0 min,  0.039 sec
 * total energy  :   -87.1546415 Eh     change       -0.6170364E-04 Eh
   gradient norm :     0.0059142 Eh/α   predicted     0.0000000E+00 (-100.00%)
   displ. norm   :     0.0425462 α      lambda       -0.5797547E-04
   maximum displ.:     0.0149676 α      in ANC's #1, #15, #16, ...

........................................................................
.............................. CYCLE   22 ..............................
........................................................................

 iter      E             dE          RMSdq      gap      omega  full diag
   1    -88.2546015 -0.882546E+02  0.126E-02    2.30       0.0  T
   2    -88.2546018 -0.290729E-06  0.745E-03    2.30       1.8  T
   3    -88.2546012  0.619814E-06  0.349E-03    2.30       3.9  T
   4    -88.2546019 -0.692625E-06  0.947E-04    2.30      14.4  T
   5    -88.2546020 -0.513580E-07  0.332E-04    2.30      41.0  T
     SCC iter.                  ...        0 min,  0.017 sec
     gradient                   ...        0 min,  0.063 sec
 * total energy  :   -87.1546950 Eh     change       -0.5351456E-04 Eh
   gradient norm :     0.0027469 Eh/α   predicted    -0.3474506E-04 ( -35.07%)
   displ. norm   :     0.0961629 α      lambda       -0.7536247E-04
   maximum displ.:     0.0379880 α      in ANC's #1, #15, #14, ...

........................................................................
.............................. CYCLE   23 ..............................
........................................................................

 iter      E             dE          RMSdq      gap      omega  full diag
   1    -88.2540181 -0.882540E+02  0.221E-02    2.29       0.0  T
   2    -88.2540185 -0.444327E-06  0.131E-02    2.29       1.0  T
   3    -88.2540164  0.210571E-05  0.605E-03    2.29       2.2  T
   4    -88.2540187 -0.234676E-05  0.124E-03    2.29      10.9  T
   5    -88.2540188 -0.832775E-07  0.509E-04    2.29      26.7  T
   6    -88.2540188 -0.702836E-08  0.282E-04    2.29      48.2  T
     SCC iter.                  ...        0 min,  0.021 sec
     gradient                   ...        0 min,  0.054 sec
 * total energy  :   -87.1547437 Eh     change       -0.4868861E-04 Eh
   gradient norm :     0.0021345 Eh/α   predicted    -0.3802992E-04 ( -21.89%)
   displ. norm   :     0.0824594 α      lambda       -0.3124534E-04
   maximum displ.:     0.0371109 α      in ANC's #1, #14, #15, ...

........................................................................
.............................. CYCLE   24 ..............................
........................................................................

 iter      E             dE          RMSdq      gap      omega  full diag
   1    -88.2540282 -0.882540E+02  0.160E-02    2.29       0.0  T
   2    -88.2540284 -0.106184E-06  0.948E-03    2.29       1.4  T
   3    -88.2540275  0.886929E-06  0.407E-03    2.29       3.3  T
   4    -88.2540284 -0.980031E-06  0.678E-04    2.29      20.1  T
   5    -88.2540285 -0.194945E-07  0.340E-04    2.29      40.0  T
     SCC iter.                  ...        0 min,  0.017 sec
     gradient                   ...        0 min,  0.039 sec
 * total energy  :   -87.1547697 Eh     change       -0.2599081E-04 Eh
   gradient norm :     0.0031233 Eh/α   predicted    -0.1625633E-04 ( -37.45%)
   displ. norm   :     0.1604948 α      lambda       -0.5692327E-04
   maximum displ.:     0.0760525 α      in ANC's #1, #2, #14, ...

........................................................................
.............................. CYCLE   25 ..............................
........................................................................

 iter      E             dE          RMSdq      gap      omega  full diag
   1    -88.2542250 -0.882542E+02  0.293E-02    2.29       0.0  T
   2    -88.2542254 -0.410031E-06  0.173E-02    2.29       1.0  T
   3    -88.2542226  0.274687E-05  0.766E-03    2.29       1.8  T
   4    -88.2542257 -0.305294E-05  0.128E-03    2.29      10.6  T
   5    -88.2542257 -0.645440E-07  0.649E-04    2.29      21.0  T
   6    -88.2542258 -0.100178E-07  0.306E-04    2.29      44.5  T
     SCC iter.                  ...        0 min,  0.023 sec
     gradient                   ...        0 min,  0.039 sec
 * total energy  :   -87.1548126 Eh     change       -0.4290100E-04 Eh
   gradient norm :     0.0033360 Eh/α   predicted    -0.2927230E-04 ( -31.77%)
   displ. norm   :     0.1788883 α      lambda       -0.5311663E-04
   maximum displ.:     0.0908653 α      in ANC's #1, #2, #14, ...

........................................................................
.............................. CYCLE   26 ..............................
........................................................................

 iter      E             dE          RMSdq      gap      omega  full diag
   1    -88.2544477 -0.882544E+02  0.313E-02    2.29       0.0  T
   2    -88.2544484 -0.685554E-06  0.185E-02    2.29       1.0  T
   3    -88.2544449  0.350952E-05  0.893E-03    2.29       1.5  T
   4    -88.2544488 -0.393437E-05  0.157E-03    2.29       8.7  T
   5    -88.2544489 -0.105750E-06  0.725E-04    2.29      18.8  T
   6    -88.2544489 -0.130993E-07  0.362E-04    2.29      37.6  T
     SCC iter.                  ...        0 min,  0.024 sec
     gradient                   ...        0 min,  0.039 sec
 * total energy  :   -87.1548530 Eh     change       -0.4046517E-04 Eh
   gradient norm :     0.0024596 Eh/α   predicted    -0.2740897E-04 ( -32.27%)
   displ. norm   :     0.1890363 α      lambda       -0.5042948E-04
   maximum displ.:     0.1019769 α      in ANC's #1, #2, #5, ...

........................................................................
.............................. CYCLE   27 ..............................
........................................................................

 iter      E             dE          RMSdq      gap      omega  full diag
   1    -88.2547435 -0.882547E+02  0.326E-02    2.30       0.0  T
   2    -88.2547444 -0.912862E-06  0.193E-02    2.30       1.0  T
   3    -88.2547402  0.420403E-05  0.976E-03    2.30       1.4  T
   4    -88.2547450 -0.474531E-05  0.177E-03    2.30       7.7  T
   5    -88.2547451 -0.142929E-06  0.775E-04    2.30      17.6  T
   6    -88.2547451 -0.165296E-07  0.381E-04    2.30      35.7  T
     SCC iter.                  ...        0 min,  0.020 sec
     gradient                   ...        0 min,  0.053 sec
 * total energy  :   -87.1548917 Eh     change       -0.3868385E-04 Eh
   gradient norm :     0.0015365 Eh/α   predicted    -0.2612078E-04 ( -32.48%)
   displ. norm   :     0.2965716 α      lambda       -0.4409913E-04
   maximum displ.:     0.1659536 α      in ANC's #1, #2, #5, ...

........................................................................
.............................. CYCLE   28 ..............................
........................................................................

 iter      E             dE          RMSdq      gap      omega  full diag
   1    -88.2547256 -0.882547E+02  0.512E-02    2.30       0.0  T
   2    -88.2547274 -0.185129E-05  0.304E-02    2.31       1.0  T
   3    -88.2547161  0.113679E-04  0.152E-02    2.31       1.0  T
   4    -88.2547288 -0.127123E-04  0.267E-03    2.31       5.1  T
   5    -88.2547291 -0.339115E-06  0.117E-03    2.31      11.6  T
   6    -88.2547292 -0.370696E-07  0.550E-04    2.31      24.7  T
   7    -88.2547292 -0.241506E-08  0.255E-04    2.31      53.4  T
     SCC iter.                  ...        0 min,  0.051 sec
     gradient                   ...        0 min,  0.039 sec
 * total energy  :   -87.1549359 Eh     change       -0.4413899E-04 Eh
   gradient norm :     0.0026245 Eh/α   predicted    -0.2291635E-04 ( -48.08%)
   displ. norm   :     0.1237878 α      lambda       -0.2665110E-04
   maximum displ.:     0.0726999 α      in ANC's #1, #2, #5, ...

........................................................................
.............................. CYCLE   29 ..............................
........................................................................

 iter      E             dE          RMSdq      gap      omega  full diag
   1    -88.2549792 -0.882550E+02  0.222E-02    2.31       0.0  T
   2    -88.2549794 -0.237423E-06  0.132E-02    2.31       1.0  T
   3    -88.2549775  0.190749E-05  0.576E-03    2.31       2.4  T
   4    -88.2549796 -0.209457E-05  0.103E-03    2.31      13.2  T
   5    -88.2549797 -0.518464E-07  0.459E-04    2.31      29.6  T
   6    -88.2549797 -0.480232E-08  0.194E-04    2.31      70.0  T
     SCC iter.                  ...        0 min,  0.020 sec
     gradient                   ...        0 min,  0.048 sec
 * total energy  :   -87.1549595 Eh     change       -0.2360613E-04 Eh
   gradient norm :     0.0023443 Eh/α   predicted    -0.1353099E-04 ( -42.68%)
   displ. norm   :     0.2741191 α      lambda       -0.5865334E-04
   maximum displ.:     0.1601253 α      in ANC's #1, #2, #5, ...

........................................................................
.............................. CYCLE   30 ..............................
........................................................................

 iter      E             dE          RMSdq      gap      omega  full diag
   1    -88.2547226 -0.882547E+02  0.503E-02    2.30       0.0  T
   2    -88.2547237 -0.111451E-05  0.299E-02    2.30       1.0  T
   3    -88.2547133  0.103988E-04  0.131E-02    2.30       1.0  T
   4    -88.2547248 -0.114172E-04  0.232E-03    2.30       5.9  T
   5    -88.2547250 -0.267408E-06  0.101E-03    2.30      13.5  T
   6    -88.2547250 -0.187408E-07  0.431E-04    2.30      31.6  T
   7    -88.2547250 -0.142390E-08  0.191E-04    2.30      71.1  T
     SCC iter.                  ...        0 min,  0.023 sec
     gradient                   ...        0 min,  0.048 sec
 * total energy  :   -87.1550056 Eh     change       -0.4617725E-04 Eh
   gradient norm :     0.0018465 Eh/α   predicted    -0.3153059E-04 ( -31.72%)
   displ. norm   :     0.4236686 α      lambda       -0.4944960E-04
   maximum displ.:     0.2516803 α      in ANC's #1, #2, #5, ...

........................................................................
.............................. CYCLE   31 ..............................
........................................................................

 iter      E             dE          RMSdq      gap      omega  full diag
   1    -88.2543132 -0.882543E+02  0.784E-02    2.30       0.0  T
   2    -88.2543163 -0.311112E-05  0.466E-02    2.30       1.0  T
   3    -88.2542945  0.218262E-04  0.191E-02    2.30       1.0  T
   4    -88.2543185 -0.240208E-04  0.368E-03    2.30       3.7  T
   5    -88.2543192 -0.688036E-06  0.160E-03    2.30       8.5  T
   6    -88.2543193 -0.506469E-07  0.744E-04    2.30      18.3  T
   7    -88.2543193 -0.607605E-08  0.338E-04    2.30      40.3  T
     SCC iter.                  ...        0 min,  0.024 sec
     gradient                   ...        0 min,  0.039 sec
 * total energy  :   -87.1550492 Eh     change       -0.4356504E-04 Eh
   gradient norm :     0.0037527 Eh/α   predicted    -0.2670138E-04 ( -38.71%)
   displ. norm   :     0.1038765 α      lambda       -0.2869950E-04
   maximum displ.:     0.0643772 α      in ANC's #1, #2, #5, ...

........................................................................
.............................. CYCLE   32 ..............................
........................................................................

 iter      E             dE          RMSdq      gap      omega  full diag
   1    -88.2547164 -0.882547E+02  0.170E-02    2.30       0.0  T
   2    -88.2547166 -0.268159E-06  0.101E-02    2.30       1.3  T
   3    -88.2547156  0.105329E-05  0.458E-03    2.30       3.0  T
   4    -88.2547167 -0.117365E-05  0.105E-03    2.30      13.0  T
   5    -88.2547168 -0.645573E-07  0.355E-04    2.30      38.3  T
   6    -88.2547168 -0.209970E-08  0.201E-04    2.30      67.8  T
     SCC iter.                  ...        0 min,  0.020 sec
     gradient                   ...        0 min,  0.068 sec
 * total energy  :   -87.1550732 Eh     change       -0.2398024E-04 Eh
   gradient norm :     0.0024677 Eh/α   predicted    -0.1451066E-04 ( -39.49%)
   displ. norm   :     0.2134975 α      lambda       -0.5558336E-04
   maximum displ.:     0.1299822 α      in ANC's #1, #2, #5, ...

........................................................................
.............................. CYCLE   33 ..............................
........................................................................

 iter      E             dE          RMSdq      gap      omega  full diag
   1    -88.2560690 -0.882561E+02  0.361E-02    2.30       0.0  T
   2    -88.2560701 -0.117236E-05  0.213E-02    2.30       1.0  T
   3    -88.2560677  0.242664E-05  0.765E-03    2.30       1.8  T
   4    -88.2560704 -0.273918E-05  0.184E-03    2.30       7.4  T
   5    -88.2560706 -0.185978E-06  0.744E-04    2.30      18.3  T
   6    -88.2560706 -0.145549E-07  0.415E-04    2.30      32.8  T
     SCC iter.                  ...        0 min,  0.020 sec
     gradient                   ...        0 min,  0.039 sec
 * total energy  :   -87.1551143 Eh     change       -0.4109005E-04 Eh
   gradient norm :     0.0022581 Eh/α   predicted    -0.2906884E-04 ( -29.26%)
   displ. norm   :     0.3356374 α      lambda       -0.5691244E-04
   maximum displ.:     0.2058800 α      in ANC's #1, #2, #5, ...

........................................................................
.............................. CYCLE   34 ..............................
........................................................................

 iter      E             dE          RMSdq      gap      omega  full diag
   1    -88.2545481 -0.882545E+02  0.559E-02    2.30       0.0  T
   2    -88.2545499 -0.176159E-05  0.331E-02    2.30       1.0  T
   3    -88.2545419  0.797196E-05  0.125E-02    2.30       1.1  T
   4    -88.2545508 -0.886784E-05  0.263E-03    2.30       5.2  T
   5    -88.2545511 -0.342369E-06  0.123E-03    2.30      11.1  T
   6    -88.2545511 -0.376442E-07  0.567E-04    2.30      24.0  T
   7    -88.2545511 -0.369658E-08  0.173E-04    2.30      78.9  T
     SCC iter.                  ...        0 min,  0.024 sec
     gradient                   ...        0 min,  0.039 sec
 * total energy  :   -87.1551515 Eh     change       -0.3723267E-04 Eh
   gradient norm :     0.0025911 Eh/α   predicted    -0.3167155E-04 ( -14.94%)
   displ. norm   :     0.2147592 α      lambda       -0.4060866E-04
   maximum displ.:     0.1294884 α      in ANC's #1, #2, #14, ...

........................................................................
.............................. CYCLE   35 ..............................
........................................................................

 iter      E             dE          RMSdq      gap      omega  full diag
   1    -88.2552657 -0.882553E+02  0.350E-02    2.30       0.0  T
   2    -88.2552662 -0.543835E-06  0.208E-02    2.30       1.0  T
   3    -88.2552647  0.156694E-05  0.608E-03    2.30       2.2  T
   4    -88.2552666 -0.188661E-05  0.876E-04    2.30      15.5  T
   5    -88.2552666 -0.580177E-08  0.502E-04    2.30      27.1  T
   6    -88.2552666 -0.264326E-08  0.253E-04    2.30      53.8  T
     SCC iter.                  ...        0 min,  0.030 sec
     gradient                   ...        0 min,  0.039 sec
 * total energy  :   -87.1551842 Eh     change       -0.3268604E-04 Eh
   gradient norm :     0.0024214 Eh/α   predicted    -0.2124232E-04 ( -35.01%)
   displ. norm   :     0.2773514 α      lambda       -0.5858011E-04
   maximum displ.:     0.1681454 α      in ANC's #1, #2, #14, ...

........................................................................
.............................. CYCLE   36 ..............................
........................................................................

 iter      E             dE          RMSdq      gap      omega  full diag
   1    -88.2556871 -0.882557E+02  0.441E-02    2.30       0.0  T
   2    -88.2556882 -0.112972E-05  0.262E-02    2.30       1.0  T
   3    -88.2556849  0.329083E-05  0.850E-03    2.30       1.6  T
   4    -88.2556888 -0.390893E-05  0.119E-03    2.30      11.5  T
   5    -88.2556889 -0.255514E-07  0.651E-04    2.30      20.9  T
   6    -88.2556889 -0.381613E-08  0.304E-04    2.30      44.8  T
     SCC iter.                  ...        0 min,  0.048 sec
     gradient                   ...        0 min,  0.039 sec
 * total energy  :   -87.1552329 Eh     change       -0.4874709E-04 Eh
   gradient norm :     0.0021155 Eh/α   predicted    -0.3154827E-04 ( -35.28%)
   displ. norm   :     0.3660770 α      lambda       -0.7030751E-04
   maximum displ.:     0.2226375 α      in ANC's #1, #2, #14, ...

........................................................................
.............................. CYCLE   37 ..............................
........................................................................

 iter      E             dE          RMSdq      gap      omega  full diag
   1    -88.2549600 -0.882550E+02  0.580E-02    2.30       0.0  T
   2    -88.2549621 -0.212976E-05  0.345E-02    2.30       1.0  T
   3    -88.2549556  0.654945E-05  0.118E-02    2.30       1.2  T
   4    -88.2549633 -0.775020E-05  0.161E-03    2.30       8.5  T
   5    -88.2549634 -0.498365E-07  0.871E-04    2.30      15.6  T
   6    -88.2549634 -0.578049E-08  0.410E-04    2.30      33.2  T
     SCC iter.                  ...        0 min,  0.021 sec
     gradient                   ...        0 min,  0.039 sec
 * total energy  :   -87.1552832 Eh     change       -0.5023054E-04 Eh
   gradient norm :     0.0020827 Eh/α   predicted    -0.3986819E-04 ( -20.63%)
   displ. norm   :     0.1879874 α      lambda       -0.3377330E-04
   maximum displ.:     0.1128193 α      in ANC's #1, #2, #14, ...

........................................................................
.............................. CYCLE   38 ..............................
........................................................................

 iter      E             dE          RMSdq      gap      omega  full diag
   1    -88.2549758 -0.882550E+02  0.284E-02    2.30       0.0  T
   2    -88.2549764 -0.571096E-06  0.170E-02    2.30       1.0  T
   3    -88.2549744  0.202049E-05  0.663E-03    2.30       2.1  T
   4    -88.2549768 -0.239709E-05  0.869E-04    2.30      15.7  T
   5    -88.2549768 -0.992623E-08  0.466E-04    2.30      29.2  T
   6    -88.2549768 -0.163919E-08  0.234E-04    2.30      58.1  T
     SCC iter.                  ...        0 min,  0.020 sec
     gradient                   ...        0 min,  0.039 sec
 * total energy  :   -87.1553044 Eh     change       -0.2125312E-04 Eh
   gradient norm :     0.0022369 Eh/α   predicted    -0.1748533E-04 ( -17.73%)
   displ. norm   :     0.1238798 α      lambda       -0.1976196E-04
   maximum displ.:     0.0786492 α      in ANC's #1, #2, #16, ...

........................................................................
.............................. CYCLE   39 ..............................
........................................................................

 iter      E             dE          RMSdq      gap      omega  full diag
   1    -88.2546998 -0.882547E+02  0.196E-02    2.29       0.0  T
   2    -88.2547002 -0.412649E-06  0.116E-02    2.29       1.2  T
   3    -88.2546991  0.110246E-05  0.459E-03    2.29       3.0  T
   4    -88.2547003 -0.122445E-05  0.114E-03    2.29      11.9  T
   5    -88.2547004 -0.760144E-07  0.455E-04    2.29      29.9  T
   6    -88.2547004 -0.482243E-08  0.255E-04    2.29      53.4  T
     SCC iter.                  ...        0 min,  0.021 sec
     gradient                   ...        0 min,  0.084 sec
 * total energy  :   -87.1553169 Eh     change       -0.1249871E-04 Eh
   gradient norm :     0.0016580 Eh/α   predicted    -0.1003411E-04 ( -19.72%)
   displ. norm   :     0.1005623 α      lambda       -0.1618668E-04
   maximum displ.:     0.0594101 α      in ANC's #1, #2, #16, ...

........................................................................
.............................. CYCLE   40 ..............................
........................................................................

 iter      E             dE          RMSdq      gap      omega  full diag
   1    -88.2557482 -0.882557E+02  0.187E-02    2.29       0.0  T
   2    -88.2557486 -0.443272E-06  0.110E-02    2.29       1.2  T
   3    -88.2557476  0.978397E-06  0.444E-03    2.29       3.1  T
   4    -88.2557487 -0.108833E-05  0.121E-03    2.29      11.2  T
   5    -88.2557488 -0.803894E-07  0.464E-04    2.29      29.3  T
   6    -88.2557488 -0.376544E-08  0.261E-04    2.29      52.2  T
     SCC iter.                  ...        0 min,  0.020 sec
     gradient                   ...        0 min,  0.066 sec
 * total energy  :   -87.1553284 Eh     change       -0.1143761E-04 Eh
   gradient norm :     0.0016383 Eh/α   predicted    -0.8130792E-05 ( -28.91%)
   displ. norm   :     0.1304048 α      lambda       -0.1110033E-04
   maximum displ.:     0.0845248 α      in ANC's #1, #2, #8, ...

........................................................................
.............................. CYCLE   41 ..............................
........................................................................

 iter      E             dE          RMSdq      gap      omega  full diag
   1    -88.2549560 -0.882550E+02  0.204E-02    2.29       0.0  T
   2    -88.2549562 -0.241277E-06  0.121E-02    2.29       1.1  T
   3    -88.2549548  0.145687E-05  0.461E-03    2.29       3.0  T
   4    -88.2549563 -0.157836E-05  0.106E-03    2.29      12.9  T
   5    -88.2549564 -0.588429E-07  0.420E-04    2.29      32.4  T
   6    -88.2549564 -0.217634E-08  0.236E-04    2.29      57.7  T
     SCC iter.                  ...        0 min,  0.020 sec
     gradient                   ...        0 min,  0.039 sec
 * total energy  :   -87.1553381 Eh     change       -0.9772287E-05 Eh
   gradient norm :     0.0017169 Eh/α   predicted    -0.5595203E-05 ( -42.74%)
   displ. norm   :     0.0484115 α      lambda       -0.8089323E-05
   maximum displ.:     0.0223678 α      in ANC's #8, #15, #7, ...

........................................................................
.............................. CYCLE   42 ..............................
........................................................................

 iter      E             dE          RMSdq      gap      omega  full diag
   1    -88.2553010 -0.882553E+02  0.953E-03    2.29       0.0  T
   2    -88.2553011 -0.127211E-06  0.572E-03    2.29       2.4  T
   3    -88.2553006  0.543379E-06  0.367E-03    2.29       3.7  T
   4    -88.2553012 -0.651623E-06  0.752E-04    2.29      18.1  T
   5    -88.2553013 -0.321590E-07  0.244E-04    2.29      55.9  T
     SCC iter.                  ...        0 min,  0.017 sec
     gradient                   ...        0 min,  0.084 sec
 * total energy  :   -87.1553461 Eh     change       -0.7959566E-05 Eh
   gradient norm :     0.0014600 Eh/α   predicted    -0.4050683E-05 ( -49.11%)
   displ. norm   :     0.1055770 α      lambda       -0.9273120E-05
   maximum displ.:     0.0629064 α      in ANC's #1, #8, #2, ...
 * RMSD in coord.:     0.4905707 α      energy gain  -0.7663230E-03 Eh

generating ANC from exact Hessian ...
Using Lindh-Hessian (1995)
 Shifting diagonal of input Hessian by    9.7172672570196451E-003
 Lowest  eigenvalues of input Hessian
    0.000000    0.000000    0.000000    0.000000    0.000000    0.000000
    0.010000    0.010202    0.010379    0.010597    0.010668    0.011178
    0.012319    0.012558    0.012815    0.012962    0.013658    0.014002
 Highest eigenvalues
    1.973770    2.060394    2.092984    2.139350    2.223920    2.344071


........................................................................
.............................. CYCLE   43 ..............................
........................................................................

 iter      E             dE          RMSdq      gap      omega  full diag
   1    -88.2552205 -0.882552E+02  0.174E-02    2.29       0.0  T
   2    -88.2552209 -0.391064E-06  0.104E-02    2.29       1.3  T
   3    -88.2552197  0.119472E-05  0.511E-03    2.29       2.7  T
   4    -88.2552210 -0.128606E-05  0.128E-03    2.29      10.6  T
   5    -88.2552211 -0.102494E-06  0.347E-04    2.29      39.2  T
   6    -88.2552211 -0.276162E-08  0.190E-04    2.29      71.7  T
     SCC iter.                  ...        0 min,  0.048 sec
     gradient                   ...        0 min,  0.039 sec
 * total energy  :   -87.1553555 Eh     change       -0.9359463E-05 Eh
   gradient norm :     0.0013210 Eh/α   predicted     0.0000000E+00 (-100.00%)
   displ. norm   :     0.0254112 α      lambda       -0.6905601E-05
   maximum displ.:     0.0181447 α      in ANC's #8, #3, #1, ...

........................................................................
.............................. CYCLE   44 ..............................
........................................................................

 iter      E             dE          RMSdq      gap      omega  full diag
   1    -88.2553982 -0.882554E+02  0.758E-03    2.29       0.0  T
   2    -88.2553983 -0.110711E-06  0.447E-03    2.29       3.0  T
   3    -88.2553982  0.790593E-07  0.168E-03    2.29       8.1  T
   4    -88.2553983 -0.100919E-06  0.401E-04    2.29      33.9  T
   5    -88.2553983 -0.756424E-08  0.142E-04    2.29      96.1  T
     SCC iter.                  ...        0 min,  0.046 sec
     gradient                   ...        0 min,  0.039 sec
 * total energy  :   -87.1553632 Eh     change       -0.7718436E-05 Eh
   gradient norm :     0.0005543 Eh/α   predicted    -0.3474778E-05 ( -54.98%)
   displ. norm   :     0.0553198 α      lambda       -0.8369679E-05
   maximum displ.:     0.0411166 α      in ANC's #8, #24, #1, ...

........................................................................
.............................. CYCLE   45 ..............................
........................................................................

 iter      E             dE          RMSdq      gap      omega  full diag
   1    -88.2553772 -0.882554E+02  0.141E-02    2.29       0.0  T
   2    -88.2553774 -0.205921E-06  0.831E-03    2.29       1.6  T
   3    -88.2553771  0.302100E-06  0.279E-03    2.29       4.9  T
   4    -88.2553775 -0.367784E-06  0.572E-04    2.29      23.8  T
   5    -88.2553775 -0.126984E-07  0.258E-04    2.29      52.7  T
     SCC iter.                  ...        0 min,  0.061 sec
     gradient                   ...        0 min,  0.039 sec
 * total energy  :   -87.1553717 Eh     change       -0.8510507E-05 Eh
   gradient norm :     0.0008860 Eh/α   predicted    -0.4194196E-05 ( -50.72%)
   displ. norm   :     0.0509601 α      lambda       -0.5194795E-05
   maximum displ.:     0.0361018 α      in ANC's #8, #24, #1, ...

........................................................................
.............................. CYCLE   46 ..............................
........................................................................

 iter      E             dE          RMSdq      gap      omega  full diag
   1    -88.2552805 -0.882553E+02  0.115E-02    2.29       0.0  T
   2    -88.2552805 -0.474196E-07  0.684E-03    2.29       2.0  T
   3    -88.2552804  0.126607E-06  0.172E-03    2.29       7.9  T
   4    -88.2552805 -0.154031E-06  0.287E-04    2.29      47.4  T
   5    -88.2552805 -0.600181E-09  0.183E-04    2.29      74.3  T
     SCC iter.                  ...        0 min,  0.045 sec
     gradient                   ...        0 min,  0.039 sec
 * total energy  :   -87.1553779 Eh     change       -0.6181248E-05 Eh
   gradient norm :     0.0009490 Eh/α   predicted    -0.2605509E-05 ( -57.85%)
   displ. norm   :     0.0843535 α      lambda       -0.7892408E-05
   maximum displ.:     0.0571889 α      in ANC's #8, #24, #1, ...

........................................................................
.............................. CYCLE   47 ..............................
........................................................................

 iter      E             dE          RMSdq      gap      omega  full diag
   1    -88.2551548 -0.882552E+02  0.172E-02    2.29       0.0  T
   2    -88.2551550 -0.120552E-06  0.103E-02    2.29       1.3  T
   3    -88.2551547  0.309712E-06  0.272E-03    2.29       5.0  T
   4    -88.2551550 -0.369840E-06  0.503E-04    2.29      27.1  T
   5    -88.2551550 -0.360342E-08  0.322E-04    2.29      42.2  T
     SCC iter.                  ...        0 min,  0.045 sec
     gradient                   ...        0 min,  0.039 sec
 * total energy  :   -87.1553877 Eh     change       -0.9792265E-05 Eh
   gradient norm :     0.0008219 Eh/α   predicted    -0.3959684E-05 ( -59.56%)
   displ. norm   :     0.1523960 α      lambda       -0.1253706E-04
   maximum displ.:     0.1003324 α      in ANC's #8, #1, #24, ...

........................................................................
.............................. CYCLE   48 ..............................
........................................................................

 iter      E             dE          RMSdq      gap      omega  full diag
   1    -88.2547874 -0.882548E+02  0.296E-02    2.29       0.0  T
   2    -88.2547877 -0.303158E-06  0.178E-02    2.29       1.0  T
   3    -88.2547864  0.128366E-05  0.518E-03    2.29       2.6  T
   4    -88.2547879 -0.145601E-05  0.978E-04    2.29      13.9  T
   5    -88.2547879 -0.312713E-07  0.564E-04    2.29      24.1  T
   6    -88.2547879 -0.824728E-08  0.232E-04    2.29      58.6  T
     SCC iter.                  ...        0 min,  0.054 sec
     gradient                   ...        0 min,  0.084 sec
 * total energy  :   -87.1554015 Eh     change       -0.1385453E-04 Eh
   gradient norm :     0.0012626 Eh/α   predicted    -0.6337595E-05 ( -54.26%)
   displ. norm   :     0.1629693 α      lambda       -0.1174045E-04
   maximum displ.:     0.1046285 α      in ANC's #8, #1, #24, ...

........................................................................
.............................. CYCLE   49 ..............................
........................................................................

 iter      E             dE          RMSdq      gap      omega  full diag
   1    -88.2546388 -0.882546E+02  0.307E-02    2.29       0.0  T
   2    -88.2546391 -0.322294E-06  0.184E-02    2.29       1.0  T
   3    -88.2546375  0.167442E-05  0.561E-03    2.29       2.4  T
   4    -88.2546393 -0.186193E-05  0.110E-03    2.29      12.4  T
   5    -88.2546394 -0.500863E-07  0.573E-04    2.29      23.7  T
   6    -88.2546394 -0.776575E-08  0.223E-04    2.29      61.0  T
     SCC iter.                  ...        0 min,  0.020 sec
     gradient                   ...        0 min,  0.078 sec
 * total energy  :   -87.1554135 Eh     change       -0.1199702E-04 Eh
   gradient norm :     0.0015986 Eh/α   predicted    -0.5943447E-05 ( -50.46%)
   displ. norm   :     0.1090282 α      lambda       -0.1166421E-04
   maximum displ.:     0.0640522 α      in ANC's #8, #1, #6, ...

........................................................................
.............................. CYCLE   50 ..............................
........................................................................

 iter      E             dE          RMSdq      gap      omega  full diag
   1    -88.2552992 -0.882553E+02  0.202E-02    2.29       0.0  T
   2    -88.2552994 -0.196582E-06  0.120E-02    2.29       1.1  T
   3    -88.2552984  0.921447E-06  0.389E-03    2.29       3.5  T
   4    -88.2552994 -0.100165E-05  0.922E-04    2.29      14.8  T
   5    -88.2552995 -0.428631E-07  0.413E-04    2.29      32.9  T
   6    -88.2552995 -0.335433E-08  0.185E-04    2.29      73.6  T
     SCC iter.                  ...        0 min,  0.020 sec
     gradient                   ...        0 min,  0.066 sec
 * total energy  :   -87.1554253 Eh     change       -0.1179816E-04 Eh
   gradient norm :     0.0008887 Eh/α   predicted    -0.5864167E-05 ( -50.30%)
   displ. norm   :     0.2234776 α      lambda       -0.1148593E-04
   maximum displ.:     0.1400367 α      in ANC's #8, #1, #24, ...

........................................................................
.............................. CYCLE   51 ..............................
........................................................................

 iter      E             dE          RMSdq      gap      omega  full diag
   1    -88.2542318 -0.882542E+02  0.413E-02    2.29       0.0  T
   2    -88.2542326 -0.820040E-06  0.247E-02    2.29       1.0  T
   3    -88.2542294  0.323041E-05  0.727E-03    2.29       1.9  T
   4    -88.2542329 -0.351235E-05  0.182E-03    2.29       7.5  T
   5    -88.2542331 -0.167286E-06  0.840E-04    2.29      16.2  T
   6    -88.2542331 -0.153876E-07  0.394E-04    2.29      34.5  T
     SCC iter.                  ...        0 min,  0.020 sec
     gradient                   ...        0 min,  0.068 sec
 * total energy  :   -87.1554287 Eh     change       -0.3359571E-05 Eh
   gradient norm :     0.0026246 Eh/α   predicted    -0.5871410E-05 (  74.77%)
   displ. norm   :     0.0399672 α      lambda       -0.1537166E-04
   maximum displ.:     0.0249199 α      in ANC's #8, #24, #3, ...

........................................................................
.............................. CYCLE   52 ..............................
........................................................................

 iter      E             dE          RMSdq      gap      omega  full diag
   1    -88.2550972 -0.882551E+02  0.906E-03    2.29       0.0  T
   2    -88.2550973 -0.126415E-06  0.532E-03    2.29       2.6  T
   3    -88.2550972  0.960754E-07  0.177E-03    2.29       7.7  T
   4    -88.2550974 -0.107408E-06  0.575E-04    2.29      23.7  T
   5    -88.2550974 -0.145815E-07  0.227E-04    2.29      60.1  T
     SCC iter.                  ...        0 min,  0.017 sec
     gradient                   ...        0 min,  0.084 sec
 * total energy  :   -87.1554386 Eh     change       -0.9890821E-05 Eh
   gradient norm :     0.0008652 Eh/α   predicted    -0.7699787E-05 ( -22.15%)
   displ. norm   :     0.0675493 α      lambda       -0.6156732E-05
   maximum displ.:     0.0304177 α      in ANC's #1, #8, #4, ...

........................................................................
.............................. CYCLE   53 ..............................
........................................................................

 iter      E             dE          RMSdq      gap      omega  full diag
   1    -88.2556045 -0.882556E+02  0.121E-02    2.29       0.0  T
   2    -88.2556046 -0.127927E-06  0.717E-03    2.29       1.9  T
   3    -88.2556043  0.315878E-06  0.248E-03    2.29       5.5  T
   4    -88.2556046 -0.363785E-06  0.548E-04    2.29      24.8  T
   5    -88.2556046 -0.980509E-08  0.299E-04    2.29      45.5  T
     SCC iter.                  ...        0 min,  0.017 sec
     gradient                   ...        0 min,  0.064 sec
 * total energy  :   -87.1554440 Eh     change       -0.5417998E-05 Eh
   gradient norm :     0.0006437 Eh/α   predicted    -0.3089481E-05 ( -42.98%)
   displ. norm   :     0.0927618 α      lambda       -0.3543725E-05
   maximum displ.:     0.0545893 α      in ANC's #8, #1, #4, ...

........................................................................
.............................. CYCLE   54 ..............................
........................................................................

 iter      E             dE          RMSdq      gap      omega  full diag
   1    -88.2552959 -0.882553E+02  0.164E-02    2.29       0.0  T
   2    -88.2552960 -0.104101E-06  0.981E-03    2.29       1.4  T
   3    -88.2552956  0.474659E-06  0.274E-03    2.29       5.0  T
   4    -88.2552961 -0.535392E-06  0.547E-04    2.29      24.9  T
   5    -88.2552961 -0.797800E-08  0.346E-04    2.29      39.3  T
     SCC iter.                  ...        0 min,  0.017 sec
     gradient                   ...        0 min,  0.066 sec
 * total energy  :   -87.1554482 Eh     change       -0.4201585E-05 Eh
   gradient norm :     0.0004063 Eh/α   predicted    -0.1779803E-05 ( -57.64%)
   displ. norm   :     0.1299248 α      lambda       -0.4609450E-05
   maximum displ.:     0.0755482 α      in ANC's #8, #1, #4, ...

   *** GEOMETRY OPTIMIZATION CONVERGED AFTER 54 ITERATIONS ***

------------------------------------------------------------------------
 total energy gain   :        -0.0383529 Eh      -24.0668 kcal/mol
 total RMSD          :         1.0291678 a0        0.5446 Å
 total power (kW/mol):        -1.8647334 (step)  -19.1827 (real)
------------------------------------------------------------------------

 ANCopt (total)                0 d,  0 h,  0 min,  5.249 sec
 optimizer setup                ...        0 min,  0.000 sec (  0.002%)
 model hessian                  ...        0 min,  0.083 sec (  1.574%)
 ANC generation                 ...        0 min,  0.008 sec (  0.153%)
 coordinate transformation      ...        0 min,  0.002 sec (  0.036%)
 single point calculation       ...        0 min,  5.132 sec ( 97.769%)
 optimization log               ...        0 min,  0.012 sec (  0.228%)
 hessian update                 ...        0 min,  0.002 sec (  0.031%)
 rational function              ...        0 min,  0.007 sec (  0.134%)

================
 final structure:
================
54
 xtb: 6.7.1 (edcfbbe)
O           -4.31003074183467       -3.14386983324036        1.18621709000289
C           -3.36598949359736       -2.78853338461016        0.48137775415438
C           -3.09775127697602       -1.37423455626808        0.32862422134677
C           -1.99906514292403       -0.64523255922253       -0.00818687126966
C           -2.15415544797988        0.86406226935450        0.04397754746425
N           -1.16667720392684        1.41647188827007        0.96177239496302
C           -0.97917427331406        2.72770495489951        1.21724893569481
C            0.14593211546928        2.97195504088072        2.20668505709825
O           -1.62525213764189        3.61945911773749        0.70896093407618
C           -2.08256363517586        1.49196303044916       -1.36220935655233
C           -0.97507083534259        0.91396999949249       -2.24908098911058
C           -2.54694404678325       -3.77355066463566       -0.24402337676278
O           -3.01767280702081       -5.00679879744492       -0.51918075583115
C           -4.37990341348859       -5.34650282885768       -0.34199442754947
C           -1.23440706842360       -3.60148562652819       -0.60757592401643
C           -0.40603229511229       -2.47511458633557       -0.56431756409247
C           -0.70726612653671       -1.15587435249843       -0.33676160810994
C            0.41155390082333       -0.19726461792814       -0.52365596032234
C            1.57263630653998       -0.30584087949213        0.26287099557871
O            1.50124303752589       -1.28831677845032        1.20742698853037
C            2.53655074069449       -1.52446961739772        2.13486584171194
C            2.63709115170790        0.57935617270051        0.05580214862731
O            3.79639716167384        0.41853547062868        0.78944266968125
C            4.34003027372206        1.55357082824441        1.43370994250977
C            0.30473839722743        0.80240756701584       -1.47958670404458
C            1.35254156866886        1.68385032858517       -1.67710152094388
C            2.52047372440486        1.57187514764352       -0.93812311131878
O            3.60480435650339        2.38249809904669       -1.11365329489253
C            3.52630140913912        3.41854803193846       -2.06257330536614
H           -3.96694154221572       -0.80752797327268        0.64734556700951
H           -3.14567767054135        1.11728741235986        0.44423947570082
H           -0.60648337049204        0.74623296695994        1.46256443650772
H            0.25557560336079        4.03985175381151        2.37100306486049
H            1.07348876534630        2.56893248215090        1.80387816958377
H           -0.07079883534523        2.48271823536328        3.15377505104807
H           -1.93724803430032        2.56357368247112       -1.22950229173233
H           -3.04567921883238        1.33965525367761       -1.85197629782878
H           -1.27173005042054       -0.07777125693390       -2.59995951225058
H           -0.84400954819992        1.55853051081257       -3.11886573569929
H           -5.03561485322895       -4.65390243128420       -0.87451299263784
H           -4.47639016744712       -6.34495867609207       -0.76772246960183
H           -4.65975912215707       -5.35641653818051        0.71174244589533
H           -0.77249216010101       -4.50444857698751       -0.99006226701524
H            0.62524369633754       -2.67052368989297       -0.82828090182182
[...]
     DOI: 10.1021/acsomega.9b02011
   
   for metadynamics refer to:
   * S. Grimme, J. Chem. Theory Comput., 2019, 155, 2847-2862
     DOI: 10.1021/acs.jctc.9b00143
   
   for SPH calculations refer to:
   * S. Spicher and S. Grimme, J. Chem. Theory Comput., 2021, 17, 1701-1714
     DOI: 10.1021/acs.jctc.0c01306
   
   for ONIOM refer to:
   * C. Plett, A. Katbashev, S. Ehlert, S. Grimme, M. Bursch,
     Phys. Chem. Chem. Phys., 2023, 25, 17860-17868. DOI: 10.1039/D3CP02178E
   
   for DIPRO refer to:
   * J. Kohn, N. Gildemeister, S. Grimme, D. Fazzi, A. Hansen,
     J. Chem. Phys., 2023, just accepted.
   
   for PTB refer to:
   * S. Grimme, M. Mueller, A. Hansen, J. Chem. Phys., 2023, 158, 124111.
     DOI: 10.1063/5.0137838
   
   with help from (in alphabetical order)
   P. Atkinson, C. Bannwarth, F. Bohle, G. Brandenburg, E. Caldeweyher
   M. Checinski, S. Dohm, S. Ehlert, S. Ehrlich, I. Gerasimov, C. Hölzer
   A. Katbashev, J. Kohn, J. Koopman, C. Lavigne, S. Lehtola, F. März, M. Müller,
   F. Musil, H. Neugebauer, J. Pisarek, C. Plett, P. Pracht, F. Pultar,
   J. Seibert, P. Shushkov, S. Spicher, M. Stahn, M. Steiner, T. Strunk,
   J. Stückrath, T. Rose, and J. Unsleber
   
 * started run on 2025/05/15 at 16:10:27.849     
   ID    Z sym.   atoms
    1    8 O      1, 9, 13, 20, 23, 28
    2    6 C      2-5, 7, 8, 10-12, 14-19, 21, 22, 24-27, 29
    3    7 N      6
    4    1 H      30-54

           -------------------------------------------------
          |                Calculation Setup                |
           -------------------------------------------------

          program call               : xtb /rds/general/user/hgt20/home/callum/QDESCP/Colchicine_rdkit_conf_4/Colchicine_rdkit_conf_4.xyz --acc 1 --gfn 2 --chrg 0 --uhf 2 --etemp 300 --input /rds/general/user/hgt20/home/callum/QDESCP/Colchicine_rdkit_conf_4/Colchicine_rdkit_conf_4_xtb.inp -P 1
          hostname                   : login-c
          coordinate file            : /rds/general/user/hgt20/home/callum/QDESCP/Colchicine_rdkit_conf_4/Colchicine_rdkit_conf_4.xyz
          omp threads                :                     1


           -------------------------------------------------
          |                 G F N 2 - x T B                 |
           -------------------------------------------------

        Reference                      10.1021/acs.jctc.8b01176
      * Hamiltonian:
        H0-scaling (s, p, d)           1.850000    2.230000    2.230000
        zeta-weighting                 0.500000
      * Dispersion:
        s8                             2.700000
        a1                             0.520000
        a2                             5.000000
        s9                             5.000000
      * Repulsion:
        kExp                           1.500000    1.000000
        rExp                           1.000000
      * Coulomb:
        alpha                          2.000000
        third order                    shell-resolved
        anisotropic                    true
        a3                             3.000000
        a5                             4.000000
        cn-shift                       1.200000
        cn-exp                         4.000000
        max-rad                        5.000000


          ...................................................
          :                      SETUP                      :
          :.................................................:
          :  # basis functions                 141          :
          :  # atomic orbitals                 141          :
          :  # shells                           83          :
          :  # electrons                       154          :
          :  max. iterations                   250          :
          :  Hamiltonian                  GFN2-xTB          :
          :  restarted?                      false          :
          :  GBSA solvation                  false          :
          :  PC potential                    false          :
          :  electronic temp.          300.0000000     K    :
          :  accuracy                    1.0000000          :
          :  -> integral cutoff          0.2500000E+02      :
          :  -> integral neglect         0.1000000E-07      :
          :  -> SCF convergence          0.1000000E-05 Eh   :
          :  -> wf. convergence          0.1000000E-03 e    :
          :  Broyden damping             0.4000000          :
          :  net charge                          0          :
          :  unpaired electrons                  2          :
          ...................................................

 iter      E             dE          RMSdq      gap      omega  full diag
   1    -87.9764162 -0.879764E+02  0.427E+00    0.23       0.0  T
   2    -88.0112920 -0.348758E-01  0.272E+00    0.34       1.0  T
   3    -87.8712191  0.140073E+00  0.211E+00    0.46       1.0  T
   4    -88.1247188 -0.253500E+00  0.828E-01    0.25       1.0  T
   5    -88.1559687 -0.312499E-01  0.419E-01    0.14       1.0  T
   6    -88.1637501 -0.778143E-02  0.264E-01    0.20       1.0  T
   7    -88.1655496 -0.179948E-02  0.137E-01    0.18       1.0  T
   8    -88.1653689  0.180693E-03  0.873E-02    0.14       1.0  T
   9    -88.1658035 -0.434596E-03  0.324E-02    0.17       1.0  T
  10    -88.1658506 -0.470821E-04  0.106E-02    0.16       1.3  T
  11    -88.1658531 -0.252128E-05  0.604E-03    0.16       2.3  T
  12    -88.1658544 -0.123680E-05  0.310E-03    0.16       4.4  T
  13    -88.1658546 -0.260513E-06  0.100E-03    0.16      13.6  T
  14    -88.1658546 -0.341223E-07  0.336E-04    0.16      40.5  T
  15    -88.1658547 -0.101291E-08  0.176E-04    0.16      77.2  T

   *** convergence criteria satisfied after 15 iterations ***

         #    Occupation            Energy/Eh            Energy/eV
      -------------------------------------------------------------
         1        2.0000           -0.7328956             -19.9431
       ...           ...                  ...                  ...
        72        2.0000           -0.3977900             -10.8244
        73        2.0000           -0.3901518             -10.6166
        74        2.0000           -0.3863937             -10.5143
        75        1.9998           -0.3807486             -10.3607
        76        1.9993           -0.3795062             -10.3269
        77        1.0008           -0.3658351              -9.9549
        78        0.9590           -0.2729333              -7.4269 (HOMO)
        79        0.0410           -0.2669443              -7.2639 (LUMO)
        80                         -0.2293328              -6.2405
        81                         -0.2250929              -6.1251
        82                         -0.2008934              -5.4666
        83                         -0.1348518              -3.6695
       ...                                ...                  ...
       141                          0.7045098              19.1707
      -------------------------------------------------------------
                  HL-Gap            0.0059890 Eh            0.1630 eV
             Fermi-level           -0.3212477 Eh           -8.7416 eV

 transition dipole moment (au) for excitation:          77          78
     X       Y       Z   
   0.8698   1.8669   0.0014  total (au/Debye):    2.060   5.235
 dE (eV)             :    2.528
 oscillator strength :  0.37154E+00

 SCC (total)                   0 d,  0 h,  0 min,  0.118 sec
 SCC setup                      ...        0 min,  0.001 sec (  0.471%)
 Dispersion                     ...        0 min,  0.001 sec (  0.614%)
 classical contributions        ...        0 min,  0.000 sec (  0.200%)
 integral evaluation            ...        0 min,  0.012 sec ( 10.322%)
 iterations                     ...        0 min,  0.054 sec ( 45.989%)
 molecular gradient             ...        0 min,  0.039 sec ( 33.215%)
 printout                       ...        0 min,  0.011 sec (  9.181%)

         :::::::::::::::::::::::::::::::::::::::::::::::::::::
         ::                     SUMMARY                     ::
         :::::::::::::::::::::::::::::::::::::::::::::::::::::
         :: total energy             -87.066006731905 Eh    ::
         :: gradient norm              0.132941386327 Eh/a0 ::
         :: HOMO-LUMO gap              0.162968341887 eV    ::
         ::.................................................::
         :: SCC energy               -88.164192638455 Eh    ::
         :: -> isotropic ES            0.120740462315 Eh    ::
         :: -> anisotropic ES          0.008213423198 Eh    ::
         :: -> anisotropic XC          0.017397998610 Eh    ::
         :: -> dispersion             -0.065344947124 Eh    ::
         :: repulsion energy           1.098185906550 Eh    ::
         :: add. restraining           0.000000000000 Eh    ::
         :: total charge               0.000000000000 e     ::
         :::::::::::::::::::::::::::::::::::::::::::::::::::::

           -------------------------------------------------
          |                Property Printout                |
           -------------------------------------------------

    * Orbital Energies and Occupations

         #    Occupation            Energy/Eh            Energy/eV
      -------------------------------------------------------------
         1        2.0000           -0.7328956             -19.9431
       ...           ...                  ...                  ...
        66        2.0000           -0.4438037             -12.0765
        67        2.0000           -0.4389790             -11.9452
        68        2.0000           -0.4317971             -11.7498
        69        2.0000           -0.4280561             -11.6480
        70        2.0000           -0.4209159             -11.4537
        71        2.0000           -0.4141579             -11.2698
        72        2.0000           -0.3977900             -10.8244
        73        2.0000           -0.3901518             -10.6166
        74        2.0000           -0.3863937             -10.5143
        75        1.9998           -0.3807486             -10.3607
        76        1.9993           -0.3795062             -10.3269
        77        1.0008           -0.3658351              -9.9549
        78        0.9590           -0.2729333              -7.4269 (HOMO)
        79        0.0410           -0.2669443              -7.2639 (LUMO)
        80                         -0.2293328              -6.2405
        81                         -0.2250929              -6.1251
        82                         -0.2008934              -5.4666
        83                         -0.1348518              -3.6695
        84                         -0.1274942              -3.4693
        85                         -0.1030625              -2.8045
        86                         -0.0131059              -0.3566
        87                          0.0033317               0.0907
        88                          0.0148744               0.4048
        89                          0.0203197               0.5529
       ...                                ...                  ...
       141                          0.7045098              19.1707
      -------------------------------------------------------------
                  HL-Gap            0.0059890 Eh            0.1630 eV
             Fermi-level           -0.3212477 Eh           -8.7416 eV

     #   Z          covCN         q      C6AA      α(0)
     1   8 O        0.860    -0.396    21.600     6.231
     2   6 C        2.817     0.207    23.606     7.961
     3   6 C        2.904    -0.088    30.201     9.011
     4   6 C        2.951     0.007    27.870     8.659
     5   6 C        3.797     0.044    19.833     6.341
     6   7 N        2.692    -0.185    25.014     7.428
     7   6 C        2.745     0.278    22.293     7.731
     8   6 C        3.758    -0.140    23.246     6.874
     9   8 O        0.858    -0.438    22.445     6.352
    10   6 C        3.805    -0.067    21.781     6.644
    11   6 C        3.810    -0.062    21.683     6.628
    12   6 C        2.832     0.097    25.848     8.331
    13   8 O        1.709    -0.223    17.693     5.679
    14   6 C        3.636     0.030    20.448     6.506
    15   6 C        2.897    -0.046    29.133     8.850
    16   6 C        2.906    -0.040    29.003     8.831
    17   6 C        2.957     0.011    27.777     8.645
    18   6 C        2.991    -0.025    28.621     8.776
    19   6 C        2.853     0.117    25.422     8.264
    20   8 O        1.706    -0.255    18.232     5.765
    21   6 C        3.634     0.035    20.376     6.497
    22   6 C        2.854     0.080    26.200     8.389
    23   8 O        1.703    -0.289    18.811     5.856
    24   6 C        3.640     0.039    20.265     6.474
    25   6 C        2.975     0.010    27.801     8.649
    26   6 C        2.919    -0.087    30.174     9.008
    27   6 C        2.861     0.118    25.394     8.260
    28   8 O        1.705    -0.256    18.240     5.766
    29   6 C        3.643     0.034    20.340     6.483
    30   1 H        0.925     0.056     2.248     2.345
    31   1 H        0.923     0.054     2.270     2.356
    32   1 H        0.860     0.174     1.247     1.749
    33   1 H        0.925     0.069     2.099     2.266
    34   1 H        0.925     0.044     2.400     2.423
    35   1 H        0.925     0.053     2.282     2.362
    36   1 H        0.925     0.079     1.985     2.203
    37   1 H        0.924     0.046     2.374     2.409
    38   1 H        0.924     0.047     2.363     2.404
    39   1 H        0.924     0.046     2.369     2.407
    40   1 H        0.924     0.056     2.244     2.342
    41   1 H        0.925     0.062     2.181     2.309
    42   1 H        0.924     0.084     1.942     2.179
    43   1 H        0.925     0.058     2.220     2.330
    44   1 H        0.925     0.047     2.363     2.404
    45   1 H        0.924     0.061     2.184     2.311
    46   1 H        0.924     0.045     2.379     2.412
    47   1 H        0.924     0.061     2.192     2.315
    48   1 H        0.925     0.055     2.262     2.352
    49   1 H        0.924     0.056     2.247     2.344
    50   1 H        0.924     0.028     2.622     2.532
    51   1 H        0.926     0.052     2.298     2.371
    52   1 H        0.925     0.065     2.145     2.291
    53   1 H        0.924     0.048     2.348     2.396
    54   1 H        0.924     0.046     2.367     2.406

 Mol. C6AA /au·bohr⁶  :      31581.528767
 Mol. C8AA /au·bohr⁸  :     736941.864324
 Mol. α(0) /au        :        273.107124


Wiberg/Mayer (AO) data.
largest (>0.10) Wiberg bond orders for each atom

 ---------------------------------------------------------------------------
     #   Z sym  total        # sym  WBO       # sym  WBO       # sym  WBO
 ---------------------------------------------------------------------------
     1   8 O    1.953 --     2 C    1.669
     2   6 C    3.925 --     1 O    1.669     3 C    1.073    12 C    1.068
     3   6 C    3.842 --     4 C    1.492     2 C    1.073    30 H    0.956
     4   6 C    3.964 --     3 C    1.492    17 C    1.282     5 C    0.990
     5   6 C    3.968 --     4 C    0.990    10 C    0.974     6 N    0.970
                            31 H    0.953
     6   7 N    3.438 --     7 C    1.255     5 C    0.970    32 H    0.934
                             9 O    0.194
     7   6 C    3.951 --     9 O    1.684     6 N    1.255     8 C    0.972
     8   6 C    3.994 --    33 H    0.984    35 H    0.973     7 C    0.972
                            34 H    0.971
     9   8 O    2.001 --     7 C    1.684     6 N    0.194
    10   6 C    3.985 --    11 C    0.986    37 H    0.975     5 C    0.974
                            36 H    0.965
    11   6 C    3.995 --    25 C    1.017    10 C    0.986    39 H    0.974
                            38 H    0.966
    12   6 C    3.747 --    15 C    1.247    13 O    1.152     2 C    1.068
    13   8 O    2.288 --    12 C    1.152    14 C    0.976
    14   6 C    3.928 --    41 H    0.979    13 O    0.976    40 H    0.969
                            42 H    0.962
    15   6 C    3.942 --    16 C    1.507    12 C    1.247    43 H    0.960
    16   6 C    3.916 --    15 C    1.507    17 C    1.203    44 H    0.965
    17   6 C    3.872 --     4 C    1.282    16 C    1.203    18 C    1.080
    18   6 C    3.956 --    25 C    1.333    19 C    1.263    17 C    1.080
    19   6 C    3.927 --    22 C    1.357    18 C    1.263    20 O    1.075
    20   8 O    2.250 --    19 C    1.075    21 C    0.976
    21   6 C    3.937 --    47 H    0.978    46 H    0.977    20 O    0.976
                            45 H    0.975
    22   6 C    3.923 --    19 C    1.357    27 C    1.281    23 O    1.022
    23   8 O    2.150 --    22 C    1.022    24 C    0.973
    24   6 C    3.944 --    50 H    0.980    48 H    0.980    49 H    0.974
                            23 O    0.973
    25   6 C    3.973 --    26 C    1.424    18 C    1.333    11 C    1.017
    26   6 C    3.964 --    25 C    1.424    27 C    1.354    51 H    0.960
    27   6 C    3.892 --    26 C    1.354    22 C    1.281    28 O    1.068
    28   8 O    2.221 --    27 C    1.068    29 C    0.982
    29   6 C    3.942 --    28 O    0.982    52 H    0.979    53 H    0.975
                            54 H    0.975
    30   1 H    0.996 --     3 C    0.956
    31   1 H    0.996 --     5 C    0.953
    32   1 H    0.970 --     6 N    0.934
    33   1 H    0.995 --     8 C    0.984
    34   1 H    0.998 --     8 C    0.971
    35   1 H    0.997 --     8 C    0.973
    36   1 H    0.993 --    10 C    0.965
    37   1 H    0.997 --    10 C    0.975
    38   1 H    0.997 --    11 C    0.966
    39   1 H    0.997 --    11 C    0.974
    40   1 H    0.993 --    14 C    0.969
    41   1 H    0.996 --    14 C    0.979
    42   1 H    0.986 --    14 C    0.962
    43   1 H    0.996 --    15 C    0.960
    44   1 H    0.997 --    16 C    0.965
    45   1 H    0.995 --    21 C    0.975
    46   1 H    0.996 --    21 C    0.977
    47   1 H    0.996 --    21 C    0.978
    48   1 H    0.996 --    24 C    0.980
    49   1 H    0.997 --    24 C    0.974
    50   1 H    0.999 --    24 C    0.980
    51   1 H    0.997 --    26 C    0.960
    52   1 H    0.995 --    29 C    0.979
    53   1 H    0.996 --    29 C    0.975
    54   1 H    0.995 --    29 C    0.975
 ---------------------------------------------------------------------------

Topologies differ in total number of bonds
Writing topology from bond orders to xtbtopo.mol

molecular dipole:
                 x           y           z       tot (Debye)
 q only:        1.652      -0.027      -0.669
   full:        1.981       0.095      -0.549       5.230
molecular quadrupole (traceless):
                xx          xy          yy          xz          yz          zz
 q only:       -4.942      14.025      -4.089      13.971      -0.807       9.031
  q+dip:       -4.998      15.864      -5.520      12.597      -0.231      10.518
   full:       -6.078      15.695      -6.980      13.803       0.141      13.058


           -------------------------------------------------
          | TOTAL ENERGY              -87.066006731905 Eh   |
          | GRADIENT NORM               0.132941386327 Eh/α |
          | HOMO-LUMO GAP               0.162968341887 eV   |
           -------------------------------------------------

------------------------------------------------------------------------
 * finished run on 2025/05/15 at 16:10:27.985     
------------------------------------------------------------------------
 total:
 * wall-time:     0 d,  0 h,  0 min,  0.136 sec
 *  cpu-time:     0 d,  0 h,  0 min,  0.131 sec
 * ratio c/w:     0.966 speedup
 SCF:
 * wall-time:     0 d,  0 h,  0 min,  0.119 sec
 *  cpu-time:     0 d,  0 h,  0 min,  0.115 sec
 * ratio c/w:     0.969 speedup


