62
 energy: -94.883307112286 gnorm: 0.000535139312 xtb: 6.7.1 (edcfbbe)
C           -7.29934052768825        2.96807041575211       -0.22671662477354
C           -6.18773185003420        3.16068837587319        0.76185342199224
C           -4.97864239544240        2.30267198518786        0.54590737845591
C           -3.72353800924414        2.83814063328390        0.53339565225242
C           -3.45321762715040        4.30190092523675        0.67505114094438
C           -2.61259272201273        1.96048969996021        0.34006075196470
C           -1.26990343624885        2.35614860243108        0.29610927293547
N           -0.26919867840353        1.52372587300122        0.14012028433040
C           -0.57857476968621        0.22383565670956        0.01424270564625
N            0.39510817606936       -0.69626433389246       -0.14448617655176
C            1.77539817210702       -0.57256282698981       -0.17761936171362
N            2.39948198686132       -1.73323715032558       -0.34568995427721
C            3.71683607075044       -1.75958060210892       -0.37402366098942
C            4.52532310032135       -0.62486686164998       -0.23260387074922
C            3.84573892999548        0.59332352966997       -0.07334479257754
C            2.46956793636160        0.63034601485085       -0.04561913201538
N            5.90619261973857       -0.66231542389118       -0.31247538529711
C            6.69977728105160        0.08027609967165        0.64912324340791
C            8.05941255225956        0.43268488875886        0.03340486938162
N            8.77464151696509       -0.74353024953356       -0.42146209113201
C            7.94491506050205       -1.50121320499596       -1.33568167179332
C            6.57370598969013       -1.87180470728718       -0.74576470384562
N           -1.81376546306900       -0.27423010202798        0.03268984113773
C           -2.82788684552329        0.56555152345414        0.19764016645328
N           -4.08759213526794        0.05890014535173        0.22897599201970
C           -4.32204330282570       -1.37546327474510        0.09588798446595
C           -3.71136141482687       -2.20438190304307        1.23545438197150
C           -3.44955166107273       -3.55765046375294        0.58408660682877
C           -2.91515199498936       -3.17442907785215       -0.79325890517165
C           -3.77991579954092       -1.98297462523902       -1.21508262762054
C           -5.21297829699145        0.86894528706004        0.39626974460052
O           -6.32076903549382        0.35943431490026        0.42770532845228
O           -6.24606159227418        3.96183987305377        1.66554590371802
H           -6.91386215947026        3.01931934088268       -1.24302389769740
H           -8.06796071913622        3.72045179070021       -0.07158097490824
H           -7.71678403186782        1.97329784119874       -0.07812208466756
H           -2.82137975089943        4.47588953211573        1.54465964452143
H           -2.92983139178888        4.67257811988610       -0.20590919635533
H           -4.37029018627778        4.86432445360207        0.80748854037449
H           -0.98872344094773        3.39554863637566        0.39563145260675
H            0.07165652993474       -1.65180112777534       -0.23794679846405
H            4.13755916707924       -2.74674752539399       -0.50212294638851
H            4.39811362471882        1.51705054193521        0.01002904487160
H            1.92982212091325        1.55384630777625        0.07003628285212
H            6.86388372379731       -0.53384431270604        1.55310430429161
H            6.17712618799462        0.98662266035136        0.94840592200588
H            8.67482561104918        0.96225425577312        0.76327098645153
H            7.90665382565873        1.08022983577912       -0.83450895820380
H            9.01878584528915       -1.32312342583034        0.37818253231297
H            7.79158239917436       -0.88265868532216       -2.22455492089444
H            8.47736658052404       -2.40801175111187       -1.62863599478837
H            6.71068551361461       -2.57839134484541        0.09119033512759
H            5.97802873466788       -2.35415866128596       -1.52084945013544
H           -5.41025423564117       -1.47574662207448        0.12219609699412
H           -2.76893511886269       -1.75966799104321        1.55135847952405
H           -4.37975061063093       -2.26467222529932        2.09304951443299
H           -4.38464726176276       -4.11103806745968        0.48365426221147
H           -2.74704107805141       -4.16449687561213        1.15303192437797
H           -2.96889245547651       -3.99501540925419       -1.50697310467880
H           -1.87645455734123       -2.85847931747833       -0.70286775518161
H           -3.20491176097317       -1.25360680216617       -1.78151815621368
H           -4.61275294017490       -2.31232220858764       -1.83647079682198
