----- Optimization -----
      -----------------------------------------------------------      
     |                   =====================                   |     
     |                           x T B                           |     
     |                   =====================                   |     
     |                         S. Grimme                         |     
     |          Mulliken Center for Theoretical Chemistry        |     
     |                    University of Bonn                     |     
      -----------------------------------------------------------      

   * xtb version 6.7.1 (edcfbbe) compiled by 'conda@3ef47c1a292c' on 2024-11-25

   xtb is free software: you can redistribute it and/or modify it under
   the terms of the GNU Lesser General Public License as published by
   the Free Software Foundation, either version 3 of the License, or
   (at your option) any later version.
   
   xtb is distributed in the hope that it will be useful,
   but WITHOUT ANY WARRANTY; without even the implied warranty of
   MERCHANTABILITY or FITNESS FOR A PARTICULAR PURPOSE.  See the
   GNU Lesser General Public License for more details.
   
   Cite this work as:
   * C. Bannwarth, E. Caldeweyher, S. Ehlert, A. Hansen, P. Pracht,
     J. Seibert, S. Spicher, S. Grimme, WIREs Comput. Mol. Sci., 2020, 11,
     e01493. DOI: 10.1002/wcms.1493
   
   for GFN2-xTB:
   * C. Bannwarth, S. Ehlert and S. Grimme., J. Chem. Theory Comput., 2019,
     15, 1652-1671. DOI: 10.1021/acs.jctc.8b01176
   for GFN1-xTB:
   * S. Grimme, C. Bannwarth, P. Shushkov, J. Chem. Theory Comput., 2017,
     13, 1989-2009. DOI: 10.1021/acs.jctc.7b00118
   for GFN0-xTB:
   * P. Pracht, E. Caldeweyher, S. Ehlert, S. Grimme, ChemRxiv, 2019, preprint.
     DOI: 10.26434/chemrxiv.8326202.v1
   for GFN-FF:
   * S. Spicher and S. Grimme, Angew. Chem. Int. Ed., 2020, 59, 15665-15673.
     DOI: 10.1002/anie.202004239
   
   for ALPB and GBSA implicit solvation:
   * S. Ehlert, M. Stahn, S. Spicher, S. Grimme, J. Chem. Theory Comput.,
     2021, 17, 4250-4261. DOI: 10.1021/acs.jctc.1c00471
   
   for ddCOSMO and CPCM-X implicit solvation:
   * M. Stahn, S. Ehlert, S. Grimme, J. Phys. Chem. A,
     2023, XX, XXXX-XXXX. DOI: 10.1021/acs.jpca.3c04382
   
   for DFT-D4:
   * E. Caldeweyher, C. Bannwarth and S. Grimme, J. Chem. Phys., 2017,
     147, 034112. DOI: 10.1063/1.4993215
   * E. Caldeweyher, S. Ehlert, A. Hansen, H. Neugebauer, S. Spicher,
     C. Bannwarth and S. Grimme, J. Chem. Phys., 2019, 150, 154122.
     DOI: 10.1063/1.5090222
   * E. Caldeweyher, J.-M. Mewes, S. Ehlert and S. Grimme, Phys. Chem. Chem. Phys.
     2020, 22, 8499-8512. DOI: 10.1039/D0CP00502A
   
   for sTDA-xTB:
   * S. Grimme and C. Bannwarth, J. Chem. Phys., 2016, 145, 054103.
     DOI: 10.1063/1.4959605
   
   in the mass-spec context:
   * V. Asgeirsson, C. Bauer and S. Grimme, Chem. Sci., 2017, 8, 4879.
     DOI: 10.1039/c7sc00601b
   * J. Koopman and S. Grimme, ACS Omega 2019, 4, 12, 15120-15133.
     DOI: 10.1021/acsomega.9b02011
   
   for metadynamics refer to:
   * S. Grimme, J. Chem. Theory Comput., 2019, 155, 2847-2862
     DOI: 10.1021/acs.jctc.9b00143
   
   for SPH calculations refer to:
   * S. Spicher and S. Grimme, J. Chem. Theory Comput., 2021, 17, 1701-1714
     DOI: 10.1021/acs.jctc.0c01306
   
   for ONIOM refer to:
   * C. Plett, A. Katbashev, S. Ehlert, S. Grimme, M. Bursch,
     Phys. Chem. Chem. Phys., 2023, 25, 17860-17868. DOI: 10.1039/D3CP02178E
   
   for DIPRO refer to:
   * J. Kohn, N. Gildemeister, S. Grimme, D. Fazzi, A. Hansen,
     J. Chem. Phys., 2023, just accepted.
   
   for PTB refer to:
   * S. Grimme, M. Mueller, A. Hansen, J. Chem. Phys., 2023, 158, 124111.
     DOI: 10.1063/5.0137838
   
   with help from (in alphabetical order)
   P. Atkinson, C. Bannwarth, F. Bohle, G. Brandenburg, E. Caldeweyher
   M. Checinski, S. Dohm, S. Ehlert, S. Ehrlich, I. Gerasimov, C. Hölzer
   A. Katbashev, J. Kohn, J. Koopman, C. Lavigne, S. Lehtola, F. März, M. Müller,
   F. Musil, H. Neugebauer, J. Pisarek, C. Plett, P. Pracht, F. Pultar,
   J. Seibert, P. Shushkov, S. Spicher, M. Stahn, M. Steiner, T. Strunk,
   J. Stückrath, T. Rose, and J. Unsleber
   
 * started run on 2025/05/15 at 16:23:54.392     
   ID    Z sym.   atoms
    1    6 C      1-7, 9, 11, 13-16, 18, 19, 21, 22, 24, 26-31
    2    7 N      8, 10, 12, 17, 20, 23, 25
    3    8 O      32, 33
    4    1 H      34-62

           -------------------------------------------------
          |                Calculation Setup                |
           -------------------------------------------------

          program call               : xtb /rds/general/user/hgt20/home/callum/QDESCP/Palbociclib_rdkit_conf_8/Palbociclib_rdkit_conf_8.xyz --opt normal --acc 1 --gfn 2 --chrg 0 --uhf 0 -P 1
          hostname                   : login-c
          coordinate file            : /rds/general/user/hgt20/home/callum/QDESCP/Palbociclib_rdkit_conf_8/Palbociclib_rdkit_conf_8.xyz
          omp threads                :                     1


           -------------------------------------------------
          |                 G F N 2 - x T B                 |
           -------------------------------------------------

        Reference                      10.1021/acs.jctc.8b01176
      * Hamiltonian:
        H0-scaling (s, p, d)           1.850000    2.230000    2.230000
        zeta-weighting                 0.500000
      * Dispersion:
        s8                             2.700000
        a1                             0.520000
        a2                             5.000000
        s9                             5.000000
      * Repulsion:
        kExp                           1.500000    1.000000
        rExp                           1.000000
      * Coulomb:
        alpha                          2.000000
        third order                    shell-resolved
        anisotropic                    true
        a3                             3.000000
        a5                             4.000000
        cn-shift                       1.200000
        cn-exp                         4.000000
        max-rad                        5.000000


          ...................................................
          :                      SETUP                      :
          :.................................................:
          :  # basis functions                 161          :
          :  # atomic orbitals                 161          :
          :  # shells                           95          :
          :  # electrons                       172          :
          :  max. iterations                   250          :
          :  Hamiltonian                  GFN2-xTB          :
          :  restarted?                      false          :
          :  GBSA solvation                  false          :
          :  PC potential                    false          :
          :  electronic temp.          300.0000000     K    :
          :  accuracy                    1.0000000          :
          :  -> integral cutoff          0.2500000E+02      :
          :  -> integral neglect         0.1000000E-07      :
          :  -> SCF convergence          0.1000000E-05 Eh   :
          :  -> wf. convergence          0.1000000E-03 e    :
          :  Broyden damping             0.4000000          :
          :  net charge                          0          :
          :  unpaired electrons                  0          :
          ...................................................

 iter      E             dE          RMSdq      gap      omega  full diag
   1    -95.9251312 -0.959251E+02  0.394E+00    1.84       0.0  T
   2    -96.0729401 -0.147809E+00  0.235E+00    1.93       1.0  T
   3    -96.0794259 -0.648582E-02  0.125E+00    1.81       1.0  T
   4    -96.0891640 -0.973809E-02  0.343E-01    1.60       1.0  T
   5    -96.0941103 -0.494631E-02  0.138E-01    1.68       1.0  T
   6    -96.0948381 -0.727815E-03  0.537E-02    1.67       1.0  T
   7    -96.0949100 -0.719119E-04  0.205E-02    1.68       1.0  T
   8    -96.0949134 -0.337053E-05  0.862E-03    1.69       1.5  T
   9    -96.0949143 -0.916629E-06  0.321E-03    1.68       4.0  T
  10    -96.0949145 -0.196452E-06  0.125E-03    1.68      10.2  T
  11    -96.0949146 -0.310324E-07  0.628E-04    1.68      20.2  T
  12    -96.0949146 -0.676702E-08  0.263E-04    1.68      48.3  T

   *** convergence criteria satisfied after 12 iterations ***

         #    Occupation            Energy/Eh            Energy/eV
      -------------------------------------------------------------
         1        2.0000           -0.7026071             -19.1189
       ...           ...                  ...                  ...
        80        2.0000           -0.4041937             -10.9987
        81        2.0000           -0.3973733             -10.8131
        82        2.0000           -0.3916171             -10.6564
        83        2.0000           -0.3800153             -10.3407
        84        2.0000           -0.3764017             -10.2424
        85        2.0000           -0.3752146             -10.2101
        86        2.0000           -0.3563096              -9.6957 (HOMO)
        87                         -0.2944326              -8.0119 (LUMO)
        88                         -0.2717014              -7.3934
        89                         -0.2538758              -6.9083
        90                         -0.2448541              -6.6628
        91                         -0.2359585              -6.4208
       ...                                ...                  ...
       161                          0.6825626              18.5735
      -------------------------------------------------------------
                  HL-Gap            0.0618771 Eh            1.6838 eV
             Fermi-level           -0.3263093 Eh           -8.8793 eV

 SCC (total)                   0 d,  0 h,  0 min,  0.286 sec
 SCC setup                      ...        0 min,  0.001 sec (  0.240%)
 Dispersion                     ...        0 min,  0.001 sec (  0.372%)
 classical contributions        ...        0 min,  0.000 sec (  0.107%)
 integral evaluation            ...        0 min,  0.013 sec (  4.677%)
 iterations                     ...        0 min,  0.109 sec ( 37.915%)
 molecular gradient             ...        0 min,  0.162 sec ( 56.470%)
 printout                       ...        0 min,  0.001 sec (  0.216%)

         :::::::::::::::::::::::::::::::::::::::::::::::::::::
         ::                     SUMMARY                     ::
         :::::::::::::::::::::::::::::::::::::::::::::::::::::
         :: total energy             -94.856721578848 Eh    ::
         :: gradient norm              0.126332837444 Eh/a0 ::
         :: HOMO-LUMO gap              1.683760548909 eV    ::
         ::.................................................::
         :: SCC energy               -96.095118731458 Eh    ::
         :: -> isotropic ES            0.111313166839 Eh    ::
         :: -> anisotropic ES          0.010376111791 Eh    ::
         :: -> anisotropic XC          0.056006900595 Eh    ::
         :: -> dispersion             -0.069944521026 Eh    ::
         :: repulsion energy           1.238397152610 Eh    ::
         :: add. restraining           0.000000000000 Eh    ::
         :: total charge               0.000000000000 e     ::
         :::::::::::::::::::::::::::::::::::::::::::::::::::::

      ----------------------------------------------------------- 
     |                   =====================                   |
     |                        A N C O P T                        |
     |                   =====================                   |
     |               Approximate Normal Coordinate               |
     |                Rational Function Optimizer                |
      ----------------------------------------------------------- 
      ----------------------------------------------------------- 
     |                   =====================                   |
     |                        A N C O P T                        |
     |                   =====================                   |
     |               Approximate Normal Coordinate               |
     |                Rational Function Optimizer                |
      ----------------------------------------------------------- 

          ...................................................
          :                      SETUP                      :
          :.................................................:
          :   optimization level            normal          :
          :   max. optcycles                   200          :
          :   ANC micro-cycles                  20          :
          :   degrees of freedom               180          :
          :.................................................:
          :   RF solver                   davidson          :
          :   write xtbopt.log                true          :
          :   linear?                        false          :
          :   energy convergence         0.5000000E-05 Eh   :
          :   grad. convergence          0.1000000E-02 Eh/α :
          :   maxmium RF displ.          1.0000000          :
          :   Hlow (freq-cutoff)         0.1000000E-01      :
          :   Hmax (freq-cutoff)         5.0000000          :
          :   S6 in model hess.         20.0000000          :
          ...................................................

generating ANC from exact Hessian ...
Using Lindh-Hessian (1995)
 Shifting diagonal of input Hessian by    9.8421743475244506E-003
 Lowest  eigenvalues of input Hessian
    0.000000    0.000000    0.000000    0.000000    0.000000    0.000000
    0.010000    0.010154    0.010256    0.010404    0.010714    0.011068
    0.011211    0.011861    0.011944    0.012492    0.012868    0.013927
 Highest eigenvalues
    2.047974    2.063207    2.121527    2.226815    2.257856    2.302746


........................................................................
.............................. CYCLE    1 ..............................
........................................................................

 iter      E             dE          RMSdq      gap      omega  full diag
   1    -96.0949146 -0.960949E+02  0.830E-05    1.68       0.0  T
   2    -96.0949146 -0.122157E-09  0.549E-05    1.68     231.3  T
   3    -96.0949146 -0.998881E-10  0.312E-05    1.68     407.6  T
     SCC iter.                  ...        0 min,  0.015 sec
     gradient                   ...        0 min,  0.104 sec
 * total energy  :   -94.8567216 Eh     change       -0.1126580E-08 Eh
   gradient norm :     0.1263338 Eh/α   predicted     0.0000000E+00 (-100.00%)
   displ. norm   :     0.3904610 α      lambda       -0.2072078E-01
   maximum displ.:     0.1217398 α      in ANC's #38, #13, #24, ...

........................................................................
.............................. CYCLE    2 ..............................
........................................................................

 iter      E             dE          RMSdq      gap      omega  full diag
   1    -96.1391411 -0.961391E+02  0.173E-01    1.67       0.0  T
   2    -96.1393899 -0.248816E-03  0.107E-01    1.74       1.0  T
   3    -96.1394024 -0.125244E-04  0.589E-02    1.73       1.0  T
   4    -96.1394519 -0.494776E-04  0.164E-02    1.74       1.0  T
   5    -96.1394656 -0.137048E-04  0.518E-03    1.74       2.5  T
   6    -96.1394666 -0.989199E-06  0.240E-03    1.74       5.3  T
   7    -96.1394666 -0.646942E-07  0.991E-04    1.74      12.8  T
   8    -96.1394667 -0.219095E-07  0.300E-04    1.74      42.4  T
     SCC iter.                  ...        0 min,  0.089 sec
     gradient                   ...        0 min,  0.101 sec
 * total energy  :   -94.8717014 Eh     change       -0.1497984E-01 Eh
   gradient norm :     0.0578981 Eh/α   predicted    -0.1196844E-01 ( -20.10%)
   displ. norm   :     0.4469606 α      lambda       -0.9196620E-02
   maximum displ.:     0.1888606 α      in ANC's #13, #24, #11, ...

........................................................................
.............................. CYCLE    3 ..............................
........................................................................

 iter      E             dE          RMSdq      gap      omega  full diag
   1    -96.1701224 -0.961701E+02  0.133E-01    1.69       0.0  T
   2    -96.1702973 -0.174856E-03  0.799E-02    1.75       1.0  T
   3    -96.1703281 -0.308505E-04  0.482E-02    1.75       1.0  T
   4    -96.1703541 -0.259592E-04  0.147E-02    1.75       1.0  T
   5    -96.1703653 -0.111976E-04  0.398E-03    1.76       3.2  T
   6    -96.1703660 -0.729495E-06  0.162E-03    1.75       7.8  T
   7    -96.1703661 -0.260627E-07  0.654E-04    1.75      19.4  T
   8    -96.1703661 -0.750400E-08  0.209E-04    1.75      60.8  T
     SCC iter.                  ...        0 min,  0.035 sec
     gradient                   ...        0 min,  0.104 sec
 * total energy  :   -94.8774890 Eh     change       -0.5787589E-02 Eh
   gradient norm :     0.0195682 Eh/α   predicted    -0.5520999E-02 (  -4.61%)
   displ. norm   :     0.3800532 α      lambda       -0.2429174E-02
   maximum displ.:     0.2012117 α      in ANC's #13, #11, #15, ...

........................................................................
.............................. CYCLE    4 ..............................
........................................................................

 iter      E             dE          RMSdq      gap      omega  full diag
   1    -96.1795953 -0.961796E+02  0.704E-02    1.71       0.0  T
   2    -96.1796219 -0.265829E-04  0.415E-02    1.73       1.0  T
   3    -96.1796147  0.722143E-05  0.255E-02    1.73       1.0  T
   4    -96.1796312 -0.164498E-04  0.614E-03    1.73       2.1  T
   5    -96.1796333 -0.209999E-05  0.173E-03    1.74       7.3  T
   6    -96.1796334 -0.102915E-06  0.787E-04    1.74      16.1  T
   7    -96.1796334 -0.498017E-08  0.250E-04    1.74      50.7  T
     SCC iter.                  ...        0 min,  0.031 sec
     gradient                   ...        0 min,  0.162 sec
 * total energy  :   -94.8793096 Eh     change       -0.1820620E-02 Eh
   gradient norm :     0.0146194 Eh/α   predicted    -0.1390090E-02 ( -23.65%)
   displ. norm   :     0.4599743 α      lambda       -0.1765352E-02
   maximum displ.:     0.2483006 α      in ANC's #13, #11, #15, ...

........................................................................
.............................. CYCLE    5 ..............................
........................................................................

 iter      E             dE          RMSdq      gap      omega  full diag
   1    -96.1845849 -0.961846E+02  0.724E-02    1.70       0.0  T
   2    -96.1846043 -0.193477E-04  0.431E-02    1.71       1.0  T
   3    -96.1845932  0.110572E-04  0.202E-02    1.71       1.0  T
   4    -96.1846078 -0.146313E-04  0.519E-03    1.71       2.4  T
   5    -96.1846093 -0.142836E-05  0.179E-03    1.71       7.1  T
   6    -96.1846094 -0.786251E-07  0.846E-04    1.71      15.0  T
   7    -96.1846094 -0.618149E-08  0.266E-04    1.71      47.8  T
     SCC iter.                  ...        0 min,  0.088 sec
     gradient                   ...        0 min,  0.104 sec
 * total energy  :   -94.8805380 Eh     change       -0.1228410E-02 Eh
   gradient norm :     0.0104233 Eh/α   predicted    -0.1069431E-02 ( -12.94%)
   displ. norm   :     0.3579530 α      lambda       -0.7617238E-03
   maximum displ.:     0.1819411 α      in ANC's #13, #6, #9, ...

........................................................................
.............................. CYCLE    6 ..............................
........................................................................

 iter      E             dE          RMSdq      gap      omega  full diag
   1    -96.1869159 -0.961869E+02  0.553E-02    1.70       0.0  T
   2    -96.1869220 -0.618098E-05  0.324E-02    1.70       1.0  T
   3    -96.1869182  0.387177E-05  0.107E-02    1.70       1.2  T
   4    -96.1869231 -0.494956E-05  0.261E-03    1.70       4.9  T
   5    -96.1869234 -0.267265E-06  0.114E-03    1.70      11.2  T
   6    -96.1869234 -0.258391E-07  0.571E-04    1.70      22.2  T
   7    -96.1869234 -0.654106E-08  0.189E-04    1.70      67.0  T
     SCC iter.                  ...        0 min,  0.088 sec
     gradient                   ...        0 min,  0.105 sec
 * total energy  :   -94.8810851 Eh     change       -0.5470877E-03 Eh
   gradient norm :     0.0088722 Eh/α   predicted    -0.4296620E-03 ( -21.46%)
   displ. norm   :     0.3296092 α      lambda       -0.5186929E-03
   maximum displ.:     0.1434142 α      in ANC's #6, #8, #13, ...

........................................................................
.............................. CYCLE    7 ..............................
........................................................................

 iter      E             dE          RMSdq      gap      omega  full diag
   1    -96.1884117 -0.961884E+02  0.572E-02    1.69       0.0  T
   2    -96.1884153 -0.357956E-05  0.335E-02    1.69       1.0  T
   3    -96.1884125  0.280561E-05  0.792E-03    1.69       1.6  T
   4    -96.1884161 -0.363793E-05  0.179E-03    1.69       7.1  T
   5    -96.1884162 -0.892325E-07  0.881E-04    1.69      14.4  T
   6    -96.1884162 -0.980000E-08  0.438E-04    1.69      29.0  T
     SCC iter.                  ...        0 min,  0.085 sec
     gradient                   ...        0 min,  0.105 sec
 * total energy  :   -94.8814738 Eh     change       -0.3886823E-03 Eh
   gradient norm :     0.0075897 Eh/α   predicted    -0.2875225E-03 ( -26.03%)
   displ. norm   :     0.3412226 α      lambda       -0.4665041E-03
   maximum displ.:     0.1686149 α      in ANC's #6, #8, #9, ...

........................................................................
.............................. CYCLE    8 ..............................
........................................................................

 iter      E             dE          RMSdq      gap      omega  full diag
   1    -96.1893062 -0.961893E+02  0.707E-02    1.68       0.0  T
   2    -96.1893098 -0.359254E-05  0.415E-02    1.68       1.0  T
   3    -96.1893046  0.515134E-05  0.990E-03    1.68       1.3  T
   4    -96.1893109 -0.626823E-05  0.207E-03    1.69       6.1  T
   5    -96.1893110 -0.121325E-06  0.105E-03    1.69      12.1  T
   6    -96.1893110 -0.158893E-07  0.558E-04    1.69      22.8  T
   7    -96.1893110 -0.697889E-08  0.224E-04    1.69      56.7  T
     SCC iter.                  ...        0 min,  0.087 sec
     gradient                   ...        0 min,  0.105 sec
 * total energy  :   -94.8818259 Eh     change       -0.3521345E-03 Eh
   gradient norm :     0.0072752 Eh/α   predicted    -0.2604107E-03 ( -26.05%)
   displ. norm   :     0.3557936 α      lambda       -0.4161834E-03
   maximum displ.:     0.1787092 α      in ANC's #6, #8, #9, ...

........................................................................
.............................. CYCLE    9 ..............................
........................................................................

 iter      E             dE          RMSdq      gap      omega  full diag
   1    -96.1894502 -0.961895E+02  0.772E-02    1.68       0.0  T
   2    -96.1894535 -0.338604E-05  0.453E-02    1.68       1.0  T
   3    -96.1894452  0.838117E-05  0.129E-02    1.68       1.0  T
   4    -96.1894551 -0.993133E-05  0.231E-03    1.68       5.5  T
   5    -96.1894552 -0.144263E-06  0.119E-03    1.68      10.7  T
   6    -96.1894553 -0.212773E-07  0.593E-04    1.68      21.4  T
   7    -96.1894553 -0.798839E-08  0.219E-04    1.68      57.9  T
     SCC iter.                  ...        0 min,  0.031 sec
     gradient                   ...        0 min,  0.163 sec
 * total energy  :   -94.8821406 Eh     change       -0.3146727E-03 Eh
   gradient norm :     0.0075910 Eh/α   predicted    -0.2344358E-03 ( -25.50%)
   displ. norm   :     0.3556660 α      lambda       -0.3707906E-03
   maximum displ.:     0.1771384 α      in ANC's #6, #8, #9, ...

........................................................................
.............................. CYCLE   10 ..............................
........................................................................

 iter      E             dE          RMSdq      gap      omega  full diag
   1    -96.1894571 -0.961895E+02  0.766E-02    1.66       0.0  T
   2    -96.1894608 -0.364739E-05  0.447E-02    1.67       1.0  T
   3    -96.1894487  0.120247E-04  0.160E-02    1.67       1.0  T
   4    -96.1894628 -0.140695E-04  0.249E-03    1.67       5.1  T
   5    -96.1894630 -0.187578E-06  0.122E-03    1.67      10.4  T
   6    -96.1894630 -0.237426E-07  0.575E-04    1.67      22.1  T
   7    -96.1894630 -0.703906E-08  0.210E-04    1.67      60.4  T
     SCC iter.                  ...        0 min,  0.088 sec
     gradient                   ...        0 min,  0.100 sec
 * total energy  :   -94.8824138 Eh     change       -0.2732037E-03 Eh
   gradient norm :     0.0071083 Eh/α   predicted    -0.2088483E-03 ( -23.56%)
   displ. norm   :     0.3240324 α      lambda       -0.2781040E-03
   maximum displ.:     0.1505085 α      in ANC's #6, #8, #9, ...

........................................................................
.............................. CYCLE   11 ..............................
........................................................................

 iter      E             dE          RMSdq      gap      omega  full diag
   1    -96.1892463 -0.961892E+02  0.605E-02    1.65       0.0  T
   2    -96.1892493 -0.298661E-05  0.351E-02    1.66       1.0  T
   3    -96.1892411  0.821625E-05  0.140E-02    1.66       1.0  T
   4    -96.1892509 -0.978039E-05  0.229E-03    1.66       5.5  T
   5    -96.1892511 -0.176390E-06  0.108E-03    1.66      11.7  T
   6    -96.1892511 -0.144655E-07  0.517E-04    1.66      24.6  T
   7    -96.1892511 -0.509978E-08  0.153E-04    1.66      82.9  T
     SCC iter.                  ...        0 min,  0.089 sec
     gradient                   ...        0 min,  0.106 sec
 * total energy  :   -94.8826088 Eh     change       -0.1949337E-03 Eh
   gradient norm :     0.0066665 Eh/α   predicted    -0.1536566E-03 ( -21.17%)
   displ. norm   :     0.2531342 α      lambda       -0.2066165E-03
   maximum displ.:     0.1079972 α      in ANC's #6, #8, #11, ...

........................................................................
.............................. CYCLE   12 ..............................
........................................................................

 iter      E             dE          RMSdq      gap      omega  full diag
   1    -96.1904060 -0.961904E+02  0.472E-02    1.64       0.0  T
   2    -96.1904089 -0.294825E-05  0.272E-02    1.64       1.0  T
   3    -96.1904035  0.541600E-05  0.118E-02    1.65       1.1  T
   4    -96.1904101 -0.655200E-05  0.215E-03    1.65       5.9  T
   5    -96.1904102 -0.175836E-06  0.941E-04    1.65      13.5  T
   6    -96.1904103 -0.147076E-07  0.438E-04    1.65      29.0  T
     SCC iter.                  ...        0 min,  0.089 sec
     gradient                   ...        0 min,  0.105 sec
 * total energy  :   -94.8827238 Eh     change       -0.1150811E-03 Eh
   gradient norm :     0.0046671 Eh/α   predicted    -0.1099289E-03 (  -4.48%)
   displ. norm   :     0.2704749 α      lambda       -0.1497270E-03
   maximum displ.:     0.1109160 α      in ANC's #6, #8, #15, ...

........................................................................
.............................. CYCLE   13 ..............................
........................................................................

 iter      E             dE          RMSdq      gap      omega  full diag
   1    -96.1880547 -0.961881E+02  0.424E-02    1.62       0.0  T
   2    -96.1880568 -0.203052E-05  0.248E-02    1.63       1.0  T
   3    -96.1880545  0.226126E-05  0.804E-03    1.63       1.6  T
   4    -96.1880574 -0.290786E-05  0.172E-03    1.63       7.4  T
   5    -96.1880575 -0.771300E-07  0.886E-04    1.63      14.3  T
   6    -96.1880575 -0.712957E-08  0.443E-04    1.63      28.6  T
     SCC iter.                  ...        0 min,  0.083 sec
     gradient                   ...        0 min,  0.099 sec
 * total energy  :   -94.8827876 Eh     change       -0.6377058E-04 Eh
   gradient norm :     0.0060994 Eh/α   predicted    -0.8034527E-04 (  25.99%)
   displ. norm   :     0.0852161 α      lambda       -0.9778668E-04
   maximum displ.:     0.0366994 α      in ANC's #8, #7, #9, ...

........................................................................
.............................. CYCLE   14 ..............................
........................................................................

 iter      E             dE          RMSdq      gap      omega  full diag
   1    -96.1911367 -0.961911E+02  0.250E-02    1.63       0.0  T
   2    -96.1911383 -0.168807E-05  0.145E-02    1.63       1.0  T
   3    -96.1911370  0.134509E-05  0.610E-03    1.63       2.1  T
   4    -96.1911385 -0.153971E-05  0.173E-03    1.63       7.3  T
   5    -96.1911387 -0.154682E-06  0.424E-04    1.63      30.0  T
   6    -96.1911387 -0.181474E-08  0.234E-04    1.63      54.3  T
     SCC iter.                  ...        0 min,  0.083 sec
     gradient                   ...        0 min,  0.105 sec
 * total energy  :   -94.8828473 Eh     change       -0.5965503E-04 Eh
   gradient norm :     0.0054478 Eh/α   predicted    -0.4924952E-04 ( -17.44%)
   displ. norm   :     0.1315979 α      lambda       -0.9197613E-04
   maximum displ.:     0.0494463 α      in ANC's #12, #7, #4, ...

........................................................................
.............................. CYCLE   15 ..............................
........................................................................

 iter      E             dE          RMSdq      gap      omega  full diag
   1    -96.1907797 -0.961908E+02  0.215E-02    1.63       0.0  T
   2    -96.1907805 -0.878096E-06  0.125E-02    1.63       1.0  T
   3    -96.1907799  0.616150E-06  0.396E-03    1.63       3.2  T
   4    -96.1907807 -0.757659E-06  0.114E-03    1.63      11.1  T
   5    -96.1907807 -0.488593E-07  0.436E-04    1.63      29.1  T
   6    -96.1907807 -0.400871E-08  0.228E-04    1.63      55.6  T
     SCC iter.                  ...        0 min,  0.083 sec
     gradient                   ...        0 min,  0.105 sec
 * total energy  :   -94.8829028 Eh     change       -0.5552400E-04 Eh
   gradient norm :     0.0030725 Eh/α   predicted    -0.4678694E-04 ( -15.74%)
   displ. norm   :     0.1597439 α      lambda       -0.5603274E-04
   maximum displ.:     0.0599785 α      in ANC's #6, #14, #4, ...

........................................................................
.............................. CYCLE   16 ..............................
........................................................................

 iter      E             dE          RMSdq      gap      omega  full diag
   1    -96.1904500 -0.961905E+02  0.252E-02    1.63       0.0  T
   2    -96.1904505 -0.521051E-06  0.147E-02    1.63       1.0  T
   3    -96.1904492  0.133250E-05  0.521E-03    1.63       2.4  T
   4    -96.1904508 -0.156546E-05  0.898E-04    1.63      14.1  T
   5    -96.1904508 -0.220643E-07  0.444E-04    1.63      28.6  T
   6    -96.1904508 -0.316162E-08  0.193E-04    1.63      65.6  T
     SCC iter.                  ...        0 min,  0.084 sec
     gradient                   ...        0 min,  0.111 sec
 * total energy  :   -94.8829448 Eh     change       -0.4204899E-04 Eh
   gradient norm :     0.0031937 Eh/α   predicted    -0.2873441E-04 ( -31.66%)
   displ. norm   :     0.2042065 α      lambda       -0.6442086E-04
   maximum displ.:     0.0815671 α      in ANC's #6, #14, #4, ...

........................................................................
.............................. CYCLE   17 ..............................
........................................................................

 iter      E             dE          RMSdq      gap      omega  full diag
   1    -96.1899086 -0.961899E+02  0.341E-02    1.63       0.0  T
   2    -96.1899095 -0.915646E-06  0.197E-02    1.63       1.0  T
   3    -96.1899075  0.205099E-05  0.660E-03    1.63       1.9  T
   4    -96.1899099 -0.240308E-05  0.124E-03    1.63      10.2  T
   5    -96.1899099 -0.556458E-07  0.570E-04    1.63      22.3  T
   6    -96.1899099 -0.532998E-08  0.253E-04    1.63      50.2  T
     SCC iter.                  ...        0 min,  0.071 sec
     gradient                   ...        0 min,  0.105 sec
 * total energy  :   -94.8829902 Eh     change       -0.4535880E-04 Eh
   gradient norm :     0.0030626 Eh/α   predicted    -0.3355591E-04 ( -26.02%)
   displ. norm   :     0.1615448 α      lambda       -0.4997171E-04
   maximum displ.:     0.0589237 α      in ANC's #1, #6, #4, ...

........................................................................
.............................. CYCLE   18 ..............................
........................................................................

 iter      E             dE          RMSdq      gap      omega  full diag
   1    -96.1903826 -0.961904E+02  0.310E-02    1.64       0.0  T
   2    -96.1903834 -0.768182E-06  0.180E-02    1.64       1.0  T
   3    -96.1903816  0.182814E-05  0.623E-03    1.64       2.0  T
   4    -96.1903837 -0.209699E-05  0.117E-03    1.64      10.8  T
   5    -96.1903837 -0.592632E-07  0.460E-04    1.64      27.6  T
   6    -96.1903837 -0.246786E-08  0.231E-04    1.64      54.9  T
     SCC iter.                  ...        0 min,  0.074 sec
     gradient                   ...        0 min,  0.104 sec
 * total energy  :   -94.8830280 Eh     change       -0.3784916E-04 Eh
   gradient norm :     0.0030775 Eh/α   predicted    -0.2563826E-04 ( -32.26%)
   displ. norm   :     0.2032057 α      lambda       -0.5961799E-04
   maximum displ.:     0.0799234 α      in ANC's #1, #6, #4, ...

........................................................................
.............................. CYCLE   19 ..............................
........................................................................

 iter      E             dE          RMSdq      gap      omega  full diag
   1    -96.1906425 -0.961906E+02  0.388E-02    1.64       0.0  T
   2    -96.1906437 -0.124687E-05  0.225E-02    1.64       1.0  T
   3    -96.1906409  0.284633E-05  0.785E-03    1.64       1.6  T
   4    -96.1906441 -0.325034E-05  0.149E-03    1.64       8.5  T
   5    -96.1906442 -0.986098E-07  0.562E-04    1.64      22.6  T
   6    -96.1906442 -0.300255E-08  0.292E-04    1.64      43.4  T
     SCC iter.                  ...        0 min,  0.077 sec
     gradient                   ...        0 min,  0.099 sec
 * total energy  :   -94.8830724 Eh     change       -0.4439969E-04 Eh
   gradient norm :     0.0033849 Eh/α   predicted    -0.3104206E-04 ( -30.08%)
   displ. norm   :     0.2071594 α      lambda       -0.5912663E-04
   maximum displ.:     0.0835662 α      in ANC's #1, #6, #14, ...

........................................................................
.............................. CYCLE   20 ..............................
........................................................................

 iter      E             dE          RMSdq      gap      omega  full diag
   1    -96.1915009 -0.961915E+02  0.413E-02    1.64       0.0  T
   2    -96.1915019 -0.973862E-06  0.241E-02    1.64       1.0  T
   3    -96.1914977  0.419886E-05  0.925E-03    1.64       1.4  T
   4    -96.1915025 -0.480521E-05  0.126E-03    1.64      10.1  T
   5    -96.1915025 -0.519237E-07  0.591E-04    1.64      21.5  T
   6    -96.1915025 -0.335901E-08  0.303E-04    1.64      42.0  T
     SCC iter.                  ...        0 min,  0.084 sec
     gradient                   ...        0 min,  0.108 sec
 * total energy  :   -94.8831142 Eh     change       -0.4172667E-04 Eh
   gradient norm :     0.0033866 Eh/α   predicted    -0.3083331E-04 ( -26.11%)
   displ. norm   :     0.2125800 α      lambda       -0.4878881E-04
   maximum displ.:     0.0915304 α      in ANC's #1, #6, #3, ...
 * RMSD in coord.:     0.4890461 α      energy gain  -0.2639259E-01 Eh

generating ANC from exact Hessian ...
Using Lindh-Hessian (1995)
 Shifting diagonal of input Hessian by    9.8264517372389868E-003
 Lowest  eigenvalues of input Hessian
    0.000000    0.000000    0.000000    0.000000    0.000000    0.000000
    0.010000    0.010157    0.010231    0.010444    0.010727    0.011045
    0.011417    0.011727    0.012049    0.012511    0.013133    0.013909
 Highest eigenvalues
    2.111292    2.169521    2.221284    2.301633    2.349188    2.390274


........................................................................
.............................. CYCLE   21 ..............................
........................................................................

 iter      E             dE          RMSdq      gap      omega  full diag
   1    -96.1910092 -0.961910E+02  0.384E-02    1.64       0.0  T
   2    -96.1910103 -0.110518E-05  0.224E-02    1.64       1.0  T
   3    -96.1910066  0.372505E-05  0.875E-03    1.64       1.5  T
   4    -96.1910109 -0.430124E-05  0.127E-03    1.64      10.0  T
   5    -96.1910110 -0.498199E-07  0.597E-04    1.64      21.3  T
   6    -96.1910110 -0.494478E-08  0.307E-04    1.64      41.4  T
     SCC iter.                  ...        0 min,  0.078 sec
     gradient                   ...        0 min,  0.104 sec
 * total energy  :   -94.8831463 Eh     change       -0.3209480E-04 Eh
   gradient norm :     0.0031208 Eh/α   predicted     0.0000000E+00 (-100.00%)
   displ. norm   :     0.0260003 α      lambda       -0.1939119E-04
   maximum displ.:     0.0135062 α      in ANC's #13, #5, #15, ...

........................................................................
.............................. CYCLE   22 ..............................
........................................................................

 iter      E             dE          RMSdq      gap      omega  full diag
   1    -96.1917783 -0.961918E+02  0.685E-03    1.64       0.0  T
   2    -96.1917785 -0.163986E-06  0.395E-03    1.64       3.2  T
   3    -96.1917785  0.248344E-07  0.116E-03    1.64      10.9  T
   4    -96.1917785 -0.273478E-07  0.507E-04    1.64      25.1  T
   5    -96.1917785 -0.140723E-07  0.141E-04    1.64      90.3  T
     SCC iter.                  ...        0 min,  0.022 sec
     gradient                   ...        0 min,  0.155 sec
 * total energy  :   -94.8831642 Eh     change       -0.1797681E-04 Eh
   gradient norm :     0.0014935 Eh/α   predicted    -0.1164325E-04 ( -35.23%)
   displ. norm   :     0.0888151 α      lambda       -0.2552664E-04
   maximum displ.:     0.0479641 α      in ANC's #13, #5, #1, ...

........................................................................
.............................. CYCLE   23 ..............................
........................................................................

 iter      E             dE          RMSdq      gap      omega  full diag
   1    -96.1925780 -0.961926E+02  0.189E-02    1.64       0.0  T
   2    -96.1925787 -0.697934E-06  0.110E-02    1.64       1.2  T
   3    -96.1925786  0.465551E-07  0.199E-03    1.64       6.4  T
   4    -96.1925787 -0.875853E-07  0.835E-04    1.64      15.2  T
   5    -96.1925788 -0.321627E-07  0.313E-04    1.64      40.6  T
     SCC iter.                  ...        0 min,  0.022 sec
     gradient                   ...        0 min,  0.098 sec
 * total energy  :   -94.8831833 Eh     change       -0.1906470E-04 Eh
   gradient norm :     0.0021251 Eh/α   predicted    -0.1280823E-04 ( -32.82%)
   displ. norm   :     0.0320495 α      lambda       -0.9455684E-05
   maximum displ.:     0.0170842 α      in ANC's #13, #5, #1, ...

........................................................................
.............................. CYCLE   24 ..............................
........................................................................

 iter      E             dE          RMSdq      gap      omega  full diag
   1    -96.1923153 -0.961923E+02  0.589E-03    1.64       0.0  T
   2    -96.1923153 -0.163317E-07  0.346E-03    1.64       3.7  T
   3    -96.1923153  0.289759E-07  0.758E-04    1.64      16.7  T
   4    -96.1923153 -0.361102E-07  0.191E-04    1.64      66.6  T
     SCC iter.                  ...        0 min,  0.018 sec
     gradient                   ...        0 min,  0.105 sec
 * total energy  :   -94.8831920 Eh     change       -0.8731377E-05 Eh
   gradient norm :     0.0018120 Eh/α   predicted    -0.4732796E-05 ( -45.80%)
   displ. norm   :     0.2720160 α      lambda       -0.4606958E-04
   maximum displ.:     0.1444241 α      in ANC's #13, #5, #1, ...

........................................................................
.............................. CYCLE   25 ..............................
........................................................................

 iter      E             dE          RMSdq      gap      omega  full diag
   1    -96.1900691 -0.961901E+02  0.495E-02    1.63       0.0  T
   2    -96.1900703 -0.117100E-05  0.290E-02    1.64       1.0  T
   3    -96.1900698  0.491776E-06  0.403E-03    1.64       3.2  T
   4    -96.1900706 -0.824005E-06  0.158E-03    1.64       8.1  T
   5    -96.1900707 -0.738330E-07  0.751E-04    1.64      16.9  T
   6    -96.1900707 -0.601605E-08  0.267E-04    1.64      47.6  T
     SCC iter.                  ...        0 min,  0.026 sec
     gradient                   ...        0 min,  0.098 sec
 * total energy  :   -94.8832168 Eh     change       -0.2472540E-04 Eh
   gradient norm :     0.0032413 Eh/α   predicted    -0.2380096E-04 (  -3.74%)
   displ. norm   :     0.0227616 α      lambda       -0.1447903E-04
   maximum displ.:     0.0145585 α      in ANC's #13, #15, #5, ...

........................................................................
.............................. CYCLE   26 ..............................
........................................................................

 iter      E             dE          RMSdq      gap      omega  full diag
   1    -96.1909669 -0.961910E+02  0.547E-03    1.64       0.0  T
   2    -96.1909669 -0.520039E-07  0.315E-03    1.64       4.0  T
   3    -96.1909669  0.155146E-07  0.798E-04    1.64      15.9  T
   4    -96.1909669 -0.231307E-07  0.289E-04    1.64      44.0  T
     SCC iter.                  ...        0 min,  0.069 sec
     gradient                   ...        0 min,  0.099 sec
 * total energy  :   -94.8832277 Eh     change       -0.1095848E-04 Eh
   gradient norm :     0.0018610 Eh/α   predicted    -0.7243496E-05 ( -33.90%)
   displ. norm   :     0.0673605 α      lambda       -0.1705265E-04
   maximum displ.:     0.0343829 α      in ANC's #1, #5, #8, ...

........................................................................
.............................. CYCLE   27 ..............................
........................................................................

 iter      E             dE          RMSdq      gap      omega  full diag
   1    -96.1924862 -0.961925E+02  0.132E-02    1.64       0.0  T
   2    -96.1924864 -0.222442E-06  0.766E-03    1.64       1.7  T
   3    -96.1924861  0.267294E-06  0.245E-03    1.64       5.2  T
   4    -96.1924865 -0.312777E-06  0.700E-04    1.64      18.2  T
   5    -96.1924865 -0.220083E-07  0.251E-04    1.64      50.7  T
     SCC iter.                  ...        0 min,  0.079 sec
     gradient                   ...        0 min,  0.099 sec
 * total energy  :   -94.8832420 Eh     change       -0.1428997E-04 Eh
   gradient norm :     0.0010495 Eh/α   predicted    -0.8548692E-05 ( -40.18%)
   displ. norm   :     0.1065761 α      lambda       -0.9128607E-05
   maximum displ.:     0.0510687 α      in ANC's #5, #1, #13, ...

........................................................................
.............................. CYCLE   28 ..............................
........................................................................

 iter      E             dE          RMSdq      gap      omega  full diag
   1    -96.1923253 -0.961923E+02  0.191E-02    1.64       0.0  T
   2    -96.1923254 -0.101751E-06  0.112E-02    1.64       1.1  T
   3    -96.1923252  0.148573E-06  0.182E-03    1.64       7.0  T
   4    -96.1923254 -0.196738E-06  0.473E-04    1.64      26.9  T
   5    -96.1923254 -0.375312E-08  0.244E-04    1.64      52.1  T
     SCC iter.                  ...        0 min,  0.022 sec
     gradient                   ...        0 min,  0.105 sec
 * total energy  :   -94.8832543 Eh     change       -0.1226651E-04 Eh
   gradient norm :     0.0009392 Eh/α   predicted    -0.4587947E-05 ( -62.60%)
   displ. norm   :     0.2732127 α      lambda       -0.2132793E-04
   maximum displ.:     0.1296422 α      in ANC's #1, #5, #13, ...

........................................................................
.............................. CYCLE   29 ..............................
........................................................................

 iter      E             dE          RMSdq      gap      omega  full diag
   1    -96.1910709 -0.961911E+02  0.514E-02    1.64       0.0  T
   2    -96.1910716 -0.713680E-06  0.301E-02    1.64       1.0  T
   3    -96.1910699  0.177491E-05  0.614E-03    1.64       2.1  T
   4    -96.1910720 -0.218011E-05  0.122E-03    1.64      10.4  T
   5    -96.1910721 -0.198844E-07  0.635E-04    1.64      20.0  T
   6    -96.1910721 -0.559908E-08  0.226E-04    1.64      56.3  T
     SCC iter.                  ...        0 min,  0.027 sec
     gradient                   ...        0 min,  0.105 sec
 * total energy  :   -94.8832723 Eh     change       -0.1805420E-04 Eh
   gradient norm :     0.0021510 Eh/α   predicted    -0.1101886E-04 ( -38.97%)
   displ. norm   :     0.0462185 α      lambda       -0.8980744E-05
   maximum displ.:     0.0256901 α      in ANC's #1, #5, #3, ...

........................................................................
.............................. CYCLE   30 ..............................
........................................................................

 iter      E             dE          RMSdq      gap      omega  full diag
   1    -96.1913355 -0.961913E+02  0.929E-03    1.64       0.0  T
   2    -96.1913356 -0.724217E-07  0.542E-03    1.64       2.3  T
   3    -96.1913355  0.614729E-07  0.121E-03    1.64      10.5  T
   4    -96.1913356 -0.743955E-07  0.384E-04    1.64      33.1  T
   5    -96.1913356 -0.608968E-08  0.149E-04    1.64      85.2  T
     SCC iter.                  ...        0 min,  0.022 sec
     gradient                   ...        0 min,  0.102 sec
 * total energy  :   -94.8832799 Eh     change       -0.7543822E-05 Eh
   gradient norm :     0.0015390 Eh/α   predicted    -0.4500758E-05 ( -40.34%)
   displ. norm   :     0.1821339 α      lambda       -0.1929725E-04
   maximum displ.:     0.1023144 α      in ANC's #1, #5, #3, ...

........................................................................
.............................. CYCLE   31 ..............................
........................................................................

 iter      E             dE          RMSdq      gap      omega  full diag
   1    -96.1923945 -0.961924E+02  0.384E-02    1.65       0.0  T
   2    -96.1923953 -0.804698E-06  0.224E-02    1.65       1.0  T
   3    -96.1923936  0.169780E-05  0.583E-03    1.64       2.2  T
   4    -96.1923956 -0.199871E-05  0.119E-03    1.64      10.7  T
   5    -96.1923956 -0.430302E-07  0.527E-04    1.64      24.1  T
   6    -96.1923956 -0.301952E-09  0.235E-04    1.64      54.0  T
     SCC iter.                  ...        0 min,  0.083 sec
     gradient                   ...        0 min,  0.099 sec
 * total energy  :   -94.8832956 Eh     change       -0.1574606E-04 Eh
   gradient norm :     0.0013097 Eh/α   predicted    -0.9797578E-05 ( -37.78%)
   displ. norm   :     0.1757292 α      lambda       -0.8245096E-05
   maximum displ.:     0.0933686 α      in ANC's #1, #5, #13, ...

........................................................................
.............................. CYCLE   32 ..............................
........................................................................

 iter      E             dE          RMSdq      gap      omega  full diag
   1    -96.1917558 -0.961918E+02  0.350E-02    1.65       0.0  T
   2    -96.1917562 -0.369364E-06  0.205E-02    1.65       1.0  T
   3    -96.1917555  0.637564E-06  0.381E-03    1.65       3.3  T
   4    -96.1917564 -0.807194E-06  0.853E-04    1.65      14.9  T
   5    -96.1917564 -0.127245E-07  0.424E-04    1.65      30.0  T
     SCC iter.                  ...        0 min,  0.079 sec
     gradient                   ...        0 min,  0.104 sec
 * total energy  :   -94.8833029 Eh     change       -0.7267419E-05 Eh
   gradient norm :     0.0010096 Eh/α   predicted    -0.4180323E-05 ( -42.48%)
   displ. norm   :     0.0457106 α      lambda       -0.3996661E-05
   maximum displ.:     0.0302414 α      in ANC's #1, #3, #4, ...

........................................................................
.............................. CYCLE   33 ..............................
........................................................................

 iter      E             dE          RMSdq      gap      omega  full diag
   1    -96.1921824 -0.961922E+02  0.891E-03    1.65       0.0  T
   2    -96.1921825 -0.630961E-07  0.521E-03    1.65       2.4  T
   3    -96.1921824  0.522030E-07  0.117E-03    1.65      10.8  T
   4    -96.1921825 -0.675827E-07  0.300E-04    1.65      42.4  T
   5    -96.1921825 -0.256171E-08  0.152E-04    1.65      83.6  T
     SCC iter.                  ...        0 min,  0.073 sec
     gradient                   ...        0 min,  0.098 sec
 * total energy  :   -94.8833071 Eh     change       -0.4228162E-05 Eh
   gradient norm :     0.0005355 Eh/α   predicted    -0.2001349E-05 ( -52.67%)
   displ. norm   :     0.0501328 α      lambda       -0.2794030E-05
   maximum displ.:     0.0334711 α      in ANC's #1, #4, #3, ...

   *** GEOMETRY OPTIMIZATION CONVERGED AFTER 33 ITERATIONS ***

------------------------------------------------------------------------
 total energy gain   :        -0.0265855 Eh      -16.6827 kcal/mol
 total RMSD          :         0.5367470 a0        0.2840 Å
 total power (kW/mol):        -2.1151608 (step)  -10.4112 (real)
------------------------------------------------------------------------

 ANCopt (total)                0 d,  0 h,  0 min,  6.704 sec
 optimizer setup                ...        0 min,  0.000 sec (  0.003%)
 model hessian                  ...        0 min,  0.117 sec (  1.747%)
 ANC generation                 ...        0 min,  0.007 sec (  0.109%)
 coordinate transformation      ...        0 min,  0.001 sec (  0.014%)
 single point calculation       ...        0 min,  6.562 sec ( 97.873%)
 optimization log               ...        0 min,  0.008 sec (  0.120%)
 hessian update                 ...        0 min,  0.001 sec (  0.013%)
 rational function              ...        0 min,  0.004 sec (  0.062%)

================
 final structure:
================
62
 xtb: 6.7.1 (edcfbbe)
C           -7.29934052768825        2.96807041575211       -0.22671662477354
C           -6.18773185003420        3.16068837587319        0.76185342199224
C           -4.97864239544240        2.30267198518786        0.54590737845591
C           -3.72353800924414        2.83814063328390        0.53339565225242
C           -3.45321762715040        4.30190092523675        0.67505114094438
C           -2.61259272201273        1.96048969996021        0.34006075196470
C           -1.26990343624885        2.35614860243108        0.29610927293547
N           -0.26919867840353        1.52372587300122        0.14012028433040
C           -0.57857476968621        0.22383565670956        0.01424270564625
N            0.39510817606936       -0.69626433389246       -0.14448617655176
C            1.77539817210702       -0.57256282698981       -0.17761936171362
N            2.39948198686132       -1.73323715032558       -0.34568995427721
C            3.71683607075044       -1.75958060210892       -0.37402366098942
C            4.52532310032135       -0.62486686164998       -0.23260387074922
C            3.84573892999548        0.59332352966997       -0.07334479257754
C            2.46956793636160        0.63034601485085       -0.04561913201538
N            5.90619261973857       -0.66231542389118       -0.31247538529711
C            6.69977728105160        0.08027609967165        0.64912324340791
C            8.05941255225956        0.43268488875886        0.03340486938162
N            8.77464151696509       -0.74353024953356       -0.42146209113201
C            7.94491506050205       -1.50121320499596       -1.33568167179332
C            6.57370598969013       -1.87180470728718       -0.74576470384562
N           -1.81376546306900       -0.27423010202798        0.03268984113773
C           -2.82788684552329        0.56555152345414        0.19764016645328
N           -4.08759213526794        0.05890014535173        0.22897599201970
C           -4.32204330282570       -1.37546327474510        0.09588798446595
C           -3.71136141482687       -2.20438190304307        1.23545438197150
C           -3.44955166107273       -3.55765046375294        0.58408660682877
C           -2.91515199498936       -3.17442907785215       -0.79325890517165
C           -3.77991579954092       -1.98297462523902       -1.21508262762054
C           -5.21297829699145        0.86894528706004        0.39626974460052
O           -6.32076903549382        0.35943431490026        0.42770532845228
O           -6.24606159227418        3.96183987305377        1.66554590371802
H           -6.91386215947026        3.01931934088268       -1.24302389769740
H           -8.06796071913622        3.72045179070021       -0.07158097490824
H           -7.71678403186782        1.97329784119874       -0.07812208466756
H           -2.82137975089943        4.47588953211573        1.54465964452143
H           -2.92983139178888        4.67257811988610       -0.20590919635533
H           -4.37029018627778        4.86432445360207        0.80748854037449
H           -0.98872344094773        3.39554863637566        0.39563145260675
H            0.07165652993474       -1.65180112777534       -0.23794679846405
H            4.13755916707924       -2.74674752539399       -0.50212294638851
H            4.39811362471882        1.51705054193521        0.01002904487160
H            1.92982212091325        1.55384630777625        0.07003628285212
H            6.86388372379731       -0.53384431270604        1.55310430429161
H            6.17712618799462        0.98662266035136        0.94840592200588
H            8.67482561104918        0.96225425577312        0.76327098645153
H            7.90665382565873        1.08022983577912       -0.83450895820380
H            9.01878584528915       -1.32312342583034        0.37818253231297
H            7.79158239917436       -0.88265868532216       -2.22455492089444
H            8.47736658052404       -2.40801175111187       -1.62863599478837
H            6.71068551361461       -2.57839134484541        0.09119033512759
H            5.97802873466788       -2.35415866128596       -1.52084945013544
H           -5.41025423564117       -1.47574662207448        0.12219609699412
H           -2.76893511886269       -1.75966799104321        1.55135847952405
H           -4.37975061063093       -2.26467222529932        2.09304951443299
H           -4.38464726176276       -4.11103806745968        0.48365426221147
H           -2.74704107805141       -4.16449687561213        1.15303192437797
H           -2.96889245547651       -3.99501540925419       -1.50697310467880
H           -1.87645455734123       -2.85847931747833       -0.70286775518161
H           -3.20491176097317       -1.25360680216617       -1.78151815621368
H           -4.61275294017490       -2.31232220858764       -1.83647079682198

 Bond Distances (Angstroems)
 ---------------------------
C1-C2=1.5000         C1-H34=1.0882        C1-H35=1.0867        C1-H36=1.0890        C2-C1=1.5000         C2-C3=1.4982         
C2-O33=1.2091        C3-C2=1.4982         C3-C4=1.3646         C3-C31=1.4604        C4-C3=1.3646         C4-C5=1.4952         
C4-C6=1.4289         C5-C4=1.4952         C5-H37=1.0889        C5-H38=1.0897        C5-H39=1.0839        C6-C4=1.4289         
C6-C7=1.4005         C6-C24=1.4186        C7-C6=1.4005         C7-N8=1.3110         C7-H40=1.0814        N8-C7=1.3110         
N8-C9=1.3421         C9-N8=1.3421         C9-N10=1.3490        C9-N23=1.3320        N10-C9=1.3490        N10-C11=1.3862       
N10-H41=1.0131       C11-N10=1.3862       C11-N12=1.3285       C11-C16=1.3951       N12-C11=1.3285       N12-C13=1.3179       
C13-N12=1.3179       C13-C14=1.4004       C13-H42=1.0807       C14-C13=1.4004       C14-C15=1.4040       C14-N17=1.3837       
C15-C14=1.4040       C15-C16=1.3769       C15-H43=1.0795       C16-C11=1.3951       C16-C15=1.3769       C16-H44=1.0759       
N17-C14=1.3837       N17-C18=1.4512       N17-C22=1.4478       C18-N17=1.4512       C18-C19=1.5336       C18-H45=1.1051       
C18-H46=1.0882       C19-C18=1.5336       C19-N20=1.4498       C19-H47=1.0917       C19-H48=1.0936       N20-C19=1.4498       
N20-C21=1.4486       N20-H49=1.0173       C21-N20=1.4486       C21-C22=1.5380       C21-H50=1.0937       C21-H51=1.0916       
C22-N17=1.4478       C22-C21=1.5380       C22-H52=1.1039       C22-H53=1.0901       N23-C9=1.3320        N23-C24=1.3270       
C24-C6=1.4186        C24-N23=1.3270       C24-N25=1.3581       N25-C24=1.3581       N25-C26=1.4595       N25-C31=1.3967       
C26-N25=1.4595       C26-C27=1.5358       C26-C30=1.5432       C26-H54=1.0931       C27-C26=1.5358       C27-C28=1.5245       
C27-H55=1.0889       C27-H56=1.0890       C28-C27=1.5245       C28-C29=1.5263       C28-H57=1.0912       C28-H58=1.0888       
C29-C28=1.5263       C29-C30=1.5314       C29-H59=1.0889       C29-H60=1.0894       C30-C26=1.5432       C30-C29=1.5314       
C30-H61=1.0879       C30-H62=1.0901       C31-C3=1.4604        C31-N25=1.3967       C31-O32=1.2198       O32-C31=1.2198       
O33-C2=1.2091        H34-C1=1.0882        H35-C1=1.0867        H36-C1=1.0890        H37-C5=1.0889        H38-C5=1.0897        
H39-C5=1.0839        H40-C7=1.0814        H41-N10=1.0131       H42-C13=1.0807       H43-C15=1.0795       H44-C16=1.0759       
H45-C18=1.1051       H46-C18=1.0882       H47-C19=1.0917       H48-C19=1.0936       H49-N20=1.0173       H50-C21=1.0937       
H51-C21=1.0916       H52-C22=1.1039       H53-C22=1.0901       H54-C26=1.0931       H55-C27=1.0889       H56-C27=1.0890       
H57-C28=1.0912       H58-C28=1.0888       H59-C29=1.0889       H60-C29=1.0894       H61-C30=1.0879       H62-C30=1.0901       
 C  H  Rav=1.0892 sigma=0.0060  Rmin=1.0759  Rmax=1.1051    27
 C  C  Rav=1.4672 sigma=0.0625  Rmin=1.3646  Rmax=1.5432    19
 N  H  Rav=1.0152 sigma=0.0021  Rmin=1.0131  Rmax=1.0173     2
 N  C  Rav=1.3806 sigma=0.0531  Rmin=1.3110  Rmax=1.4595    16
 O  C  Rav=1.2144 sigma=0.0053  Rmin=1.2091  Rmax=1.2198     2

 selected bond angles (degree)
 --------------------
H34-C1-C2=110.30               H35-C1-C2=109.95               H35-C1-H34=110.57              H36-C1-C2=108.15               
H36-C1-H34=107.83              H36-C1-H35=109.99              C3-C2-C1=115.44                O33-C2-C1=122.81               
O33-C2-C3=121.74               C4-C3-C2=121.26                C31-C3-C2=116.58               C31-C3-C4=122.13               
C5-C4-C3=123.34                C6-C4-C3=118.38                C6-C4-C5=118.26                H37-C5-C4=109.69               
H38-C5-C4=110.07               H38-C5-H37=108.22              H39-C5-C4=111.50               H39-C5-H37=108.09              
H39-C5-H38=109.19              C7-C6-C4=125.18                C24-C6-C4=119.97               C24-C6-C7=114.84               
N8-C7-C6=123.79                H40-C7-C6=121.20               H40-C7-N8=115.01               C9-N8-C7=116.76                
N10-C9-N8=120.35               N23-C9-N8=125.07               N23-C9-N10=114.58              C11-N10-C9=131.35              
H41-N10-C9=115.07              H41-N10-C11=113.57             

 selected dihedral angles (degree)
 ---------------------------------
C3-C2-C1-H34=309.83           C3-C2-C1-H35=187.65           C3-C2-C1-H36= 67.54           O33-C2-C1-H34=128.99          
O33-C2-C1-H35=  6.80          O33-C2-C1-H36=246.69          C4-C3-C2-C1=130.67            C4-C3-C2-O33=311.50           
C31-C3-C2-C1=308.68           C31-C3-C2-O33=129.51          C5-C4-C3-C2=357.48            C5-C4-C3-C31=179.58           
C6-C4-C3-C2=179.18            C6-C4-C3-C31=  1.28           H37-C5-C4-C3=120.89           H37-C5-C4-C6=299.20           
H38-C5-C4-C3=239.86           H38-C5-C4-C6= 58.16           H39-C5-C4-C3=  1.20           H39-C5-C4-C6=179.50           
C7-C6-C4-C3=179.67            C7-C6-C4-C5=  1.28            C24-C6-C4-C3=358.56           C24-C6-C4-C5=180.18           
N8-C7-C6-C4=178.77            N8-C7-C6-C24=359.83           H40-C7-C6-C4=359.03           H40-C7-C6-C24=180.08          
C9-N8-C7-C6=  0.18            C9-N8-C7-H40=179.94           N10-C9-N8-C7=180.26           N23-C9-N8-C7=  0.18           
C11-N10-C9-N8=  1.84          C11-N10-C9-N23=181.91         H41-N10-C9-N8=180.40          H41-N10-C9-N23=  0.47         
           -------------------------------------------------
          |                Final Singlepoint                |
           -------------------------------------------------

          ...................................................
          :                      SETUP                      :
          :.................................................:
          :  # basis functions                 161          :
          :  # atomic orbitals                 161          :
          :  # shells                           95          :
          :  # electrons                       172          :
          :  max. iterations                   250          :
          :  Hamiltonian                  GFN2-xTB          :
          :  restarted?                      false          :
          :  GBSA solvation                  false          :
          :  PC potential                    false          :
          :  electronic temp.          300.0000000     K    :
          :  accuracy                    1.0000000          :
          :  -> integral cutoff          0.2500000E+02      :
          :  -> integral neglect         0.1000000E-07      :
          :  -> SCF convergence          0.1000000E-05 Eh   :
          :  -> wf. convergence          0.1000000E-03 e    :
          :  Broyden damping             0.4000000          :
          :  net charge                          0          :
          :  unpaired electrons                  0          :
          ...................................................

 iter      E             dE          RMSdq      gap      omega  full diag
   1    -96.1921825 -0.961922E+02  0.758E-05    1.65       0.0  T
   2    -96.1921825 -0.452332E-10  0.526E-05    1.65     241.4  T
   3    -96.1921825 -0.731433E-10  0.312E-05    1.65     406.8  T

   *** convergence criteria satisfied after 3 iterations ***

         #    Occupation            Energy/Eh            Energy/eV
      -------------------------------------------------------------
         1        2.0000           -0.7053078             -19.1924
       ...           ...                  ...                  ...
        80        2.0000           -0.4014819             -10.9249
        81        2.0000           -0.3936143             -10.7108
        82        2.0000           -0.3873373             -10.5400
        83        2.0000           -0.3783830             -10.2963
        84        2.0000           -0.3745439             -10.1919
        85        2.0000           -0.3738391             -10.1727
        86        2.0000           -0.3517133              -9.5706 (HOMO)
        87                         -0.2912296              -7.9248 (LUMO)
        88                         -0.2612965              -7.1102
        89                         -0.2454137              -6.6780
        90                         -0.2377080              -6.4684
        91                         -0.2284144              -6.2155
       ...                                ...                  ...
       161                          0.6908089              18.7979
      -------------------------------------------------------------
                  HL-Gap            0.0604836 Eh            1.6458 eV
             Fermi-level           -0.3214715 Eh           -8.7477 eV

 SCC (total)                   0 d,  0 h,  0 min,  0.124 sec
 SCC setup                      ...        0 min,  0.001 sec (  0.499%)
 Dispersion                     ...        0 min,  0.001 sec (  0.620%)
 classical contributions        ...        0 min,  0.000 sec (  0.245%)
 integral evaluation            ...        0 min,  0.013 sec ( 10.536%)
 iterations                     ...        0 min,  0.014 sec ( 11.242%)
 molecular gradient             ...        0 min,  0.095 sec ( 76.556%)
 printout                       ...        0 min,  0.000 sec (  0.296%)

         :::::::::::::::::::::::::::::::::::::::::::::::::::::
         ::                     SUMMARY                     ::
         :::::::::::::::::::::::::::::::::::::::::::::::::::::
         :: total energy             -94.883307112286 Eh    ::
         :: gradient norm              0.000535139312 Eh/a0 ::
         :: HOMO-LUMO gap              1.645843595959 eV    ::
         ::.................................................::
         :: SCC energy               -96.192389869792 Eh    ::
         :: -> isotropic ES            0.109739448120 Eh    ::
         :: -> anisotropic ES          0.005968927900 Eh    ::
         :: -> anisotropic XC          0.053425335485 Eh    ::
         :: -> dispersion             -0.071467896261 Eh    ::
         :: repulsion energy           1.309082757506 Eh    ::
         :: add. restraining           0.000000000000 Eh    ::
         :: total charge              -0.000000000000 e     ::
         :::::::::::::::::::::::::::::::::::::::::::::::::::::

           -------------------------------------------------
          |                Property Printout                |
           -------------------------------------------------

    * Orbital Energies and Occupations

         #    Occupation            Energy/Eh            Energy/eV
      -------------------------------------------------------------
         1        2.0000           -0.7053078             -19.1924
       ...           ...                  ...                  ...
        74        2.0000           -0.4349098             -11.8345
        75        2.0000           -0.4317840             -11.7494
        76        2.0000           -0.4266707             -11.6103
        77        2.0000           -0.4214254             -11.4676
        78        2.0000           -0.4177696             -11.3681
        79        2.0000           -0.4082860             -11.1100
        80        2.0000           -0.4014819             -10.9249
        81        2.0000           -0.3936143             -10.7108
        82        2.0000           -0.3873373             -10.5400
        83        2.0000           -0.3783830             -10.2963
        84        2.0000           -0.3745439             -10.1919
        85        2.0000           -0.3738391             -10.1727
        86        2.0000           -0.3517133              -9.5706 (HOMO)
        87                         -0.2912296              -7.9248 (LUMO)
        88                         -0.2612965              -7.1102
        89                         -0.2454137              -6.6780
        90                         -0.2377080              -6.4684
        91                         -0.2284144              -6.2155
        92                         -0.2053937              -5.5890
        93                         -0.1592878              -4.3344
        94                         -0.1033200              -2.8115
        95                         -0.0901733              -2.4537
        96                         -0.0190575              -0.5186
        97                         -0.0106447              -0.2897
       ...                                ...                  ...
       161                          0.6908089              18.7979
      -------------------------------------------------------------
                  HL-Gap            0.0604836 Eh            1.6458 eV
             Fermi-level           -0.3214715 Eh           -8.7477 eV

     #   Z          covCN         q      C6AA      α(0)
     1   6 C        3.754    -0.141    23.285     6.881
     2   6 C        2.817     0.252    22.777     7.820
     3   6 C        2.964    -0.068    29.686     8.937
     4   6 C        2.957     0.034    27.241     8.561
     5   6 C        3.758    -0.115    22.747     6.800
     6   6 C        2.979    -0.053    29.300     8.879
     7   6 C        2.925     0.077    26.291     8.409
     8   7 N        1.837    -0.281    28.144     7.862
     9   6 C        2.883     0.239    23.027     7.867
    10   7 N        2.727    -0.135    23.916     7.263
    11   6 C        2.891     0.142    24.908     8.182
    12   7 N        1.853    -0.258    27.557     7.780
    13   6 C        2.906     0.031    27.302     8.568
    14   6 C        2.906     0.046    26.960     8.514
    15   6 C        2.935    -0.038    28.934     8.822
    16   6 C        2.910    -0.061    29.507     8.907
    17   7 N        2.738    -0.122    23.649     7.223
    18   6 C        3.755     0.003    20.585     6.469
    19   6 C        3.757     0.005    20.550     6.463
    20   7 N        2.678    -0.253    26.580     7.657
    21   6 C        3.757     0.005    20.547     6.463
    22   6 C        3.754     0.000    20.630     6.477
    23   7 N        1.862    -0.309    28.862     7.963
    24   6 C        2.917     0.167    24.403     8.101
    25   7 N        2.749    -0.070    22.602     7.061
    26   6 C        3.822     0.035    19.963     6.358
    27   6 C        3.827    -0.065    21.720     6.632
    28   6 C        3.830    -0.058    21.593     6.612
    29   6 C        3.827    -0.060    21.626     6.617
    30   6 C        3.819    -0.063    21.695     6.629
    31   6 C        2.777     0.264    22.548     7.777
    32   8 O        0.859    -0.440    22.500     6.360
    33   8 O        0.857    -0.365    20.995     6.143
    34   1 H        0.925     0.058     2.225     2.333
    35   1 H        0.925     0.065     2.139     2.287
    36   1 H        0.925     0.106     1.734     2.059
    37   1 H        0.925     0.064     2.154     2.295
    38   1 H        0.925     0.053     2.277     2.360
    39   1 H        0.925     0.071     2.071     2.250
    40   1 H        0.925     0.050     2.324     2.384
    41   1 H        0.860     0.210     1.058     1.611
    42   1 H        0.926     0.034     2.526     2.485
    43   1 H        0.926     0.036     2.500     2.472
    44   1 H        0.926     0.070     2.087     2.259
    45   1 H        0.922     0.017     2.775     2.605
    46   1 H        0.925     0.043     2.404     2.425
    47   1 H        0.924     0.039     2.461     2.453
    48   1 H        0.924     0.048     2.341     2.393
    49   1 H        0.860     0.137     1.494     1.915
    50   1 H        0.924     0.048     2.346     2.395
    51   1 H        0.924     0.040     2.455     2.450
    52   1 H        0.923     0.017     2.776     2.605
    53   1 H        0.925     0.043     2.409     2.427
    54   1 H        0.924     0.081     1.970     2.195
    55   1 H        0.925     0.051     2.302     2.373
    56   1 H        0.925     0.038     2.479     2.462
    57   1 H        0.924     0.038     2.477     2.461
    58   1 H        0.925     0.036     2.502     2.474
    59   1 H        0.925     0.035     2.512     2.478
    60   1 H        0.925     0.042     2.419     2.432
    61   1 H        0.925     0.043     2.409     2.427
    62   1 H        0.925     0.039     2.457     2.451

 Mol. C6AA /au·bohr⁶  :      42301.497285
 Mol. C8AA /au·bohr⁸  :     981988.943745
 Mol. α(0) /au        :        315.274119


Wiberg/Mayer (AO) data.
largest (>0.10) Wiberg bond orders for each atom

 ---------------------------------------------------------------------------
     #   Z sym  total        # sym  WBO       # sym  WBO       # sym  WBO
 ---------------------------------------------------------------------------
     1   6 C    3.990 --     2 C    1.014    35 H    0.982    34 H    0.964
                            36 H    0.936
     2   6 C    3.919 --    33 O    1.832     1 C    1.014     3 C    0.995
     3   6 C    3.962 --     4 C    1.581    31 C    1.082     2 C    0.995
     4   6 C    3.977 --     3 C    1.581     6 C    1.176     5 C    1.034
     5   6 C    3.992 --     4 C    1.034    39 H    0.977    38 H    0.965
                            37 H    0.962
     6   6 C    3.974 --     7 C    1.331    24 C    1.218     4 C    1.176
     7   6 C    3.956 --     8 N    1.494     6 C    1.331    40 H    0.958
     8   7 N    3.036 --     7 C    1.494     9 C    1.265
     9   6 C    3.957 --    23 N    1.318     8 N    1.265    10 N    1.220
    10   7 N    3.502 --     9 C    1.220    11 C    1.089    41 H    0.917
    11   6 C    3.955 --    12 N    1.364    16 C    1.325    10 N    1.089
    12   7 N    3.047 --    13 C    1.448    11 C    1.364
    13   6 C    3.979 --    12 N    1.448    14 C    1.334    42 H    0.959
                            16 C    0.100
    14   6 C    3.962 --    13 C    1.334    15 C    1.326    17 N    1.130
    15   6 C    3.990 --    16 C    1.495    14 C    1.326    43 H    0.964
    16   6 C    3.982 --    15 C    1.495    11 C    1.325    44 H    0.958
                            13 C    0.100
    17   7 N    3.333 --    14 C    1.130    22 C    1.000    18 C    0.989
    18   6 C    3.980 --    17 N    0.989    19 C    0.989    46 H    0.968
                            45 H    0.964
    19   6 C    3.987 --    20 N    1.019    18 C    0.989    47 H    0.974
                            48 H    0.972
    20   7 N    3.077 --    21 C    1.021    19 C    1.019    49 H    0.956
    21   6 C    3.986 --    20 N    1.021    22 C    0.985    51 H    0.974
                            50 H    0.972
    22   6 C    3.982 --    17 N    1.000    21 C    0.985    53 H    0.970
                            52 H    0.964
    23   7 N    3.026 --    24 C    1.361     9 C    1.318
    24   6 C    3.965 --    23 N    1.361     6 C    1.218    25 N    1.200
    25   7 N    3.597 --    24 C    1.200    31 C    1.104    26 C    0.957
                            32 O    0.137
    26   6 C    3.947 --    27 C    0.983    30 C    0.980    25 N    0.957
                            54 H    0.956
    27   6 C    3.994 --    28 C    1.007    26 C    0.983    56 H    0.979
                            55 H    0.972
    28   6 C    3.996 --    29 C    1.007    27 C    1.007    57 H    0.979
                            58 H    0.979
    29   6 C    3.996 --    28 C    1.007    30 C    1.006    59 H    0.980
                            60 H    0.976
    30   6 C    3.995 --    29 C    1.006    62 H    0.981    26 C    0.980
                            61 H    0.977
    31   6 C    3.951 --    32 O    1.646    25 N    1.104     3 C    1.082
    32   8 O    1.978 --    31 C    1.646    25 N    0.137
    33   8 O    2.057 --     2 C    1.832
    34   1 H    0.996 --     1 C    0.964
    35   1 H    0.995 --     1 C    0.982
    36   1 H    0.988 --     1 C    0.936
    37   1 H    0.994 --     5 C    0.962
    38   1 H    0.995 --     5 C    0.965
    39   1 H    0.995 --     5 C    0.977
    40   1 H    0.997 --     7 C    0.958
    41   1 H    0.956 --    10 N    0.917
    42   1 H    0.998 --    13 C    0.959
    43   1 H    0.998 --    15 C    0.964
    44   1 H    0.995 --    16 C    0.958
    45   1 H    0.997 --    18 C    0.964
    46   1 H    0.998 --    18 C    0.968
    47   1 H    0.998 --    19 C    0.974
    48   1 H    0.998 --    19 C    0.972
    49   1 H    0.981 --    20 N    0.956
    50   1 H    0.998 --    21 C    0.972
    51   1 H    0.998 --    21 C    0.974
    52   1 H    0.997 --    22 C    0.964
    53   1 H    0.998 --    22 C    0.970
    54   1 H    0.993 --    26 C    0.956
    55   1 H    0.997 --    27 C    0.972
    56   1 H    0.998 --    27 C    0.979
    57   1 H    0.998 --    28 C    0.979
    58   1 H    0.998 --    28 C    0.979
    59   1 H    0.998 --    29 C    0.980
    60   1 H    0.998 --    29 C    0.976
    61   1 H    0.998 --    30 C    0.977
    62   1 H    0.998 --    30 C    0.981
 ---------------------------------------------------------------------------

Topologies differ in total number of bonds
Writing topology from bond orders to xtbtopo.mol

molecular dipole:
                 x           y           z       tot (Debye)
 q only:        2.855      -0.816      -0.906
   full:        2.610      -0.565      -0.616       6.966
molecular quadrupole (traceless):
                xx          xy          yy          xz          yz          zz
 q only:       -7.689      11.855       8.212      19.824      -7.248      -0.523
  q+dip:      -16.532       7.853      13.153      30.448     -10.399       3.379
   full:      -19.391       7.149      10.811      30.430     -11.144       8.580

           -------------------------------------------------
          |                Geometry Summary                 |
           -------------------------------------------------

      molecular mass/u    :      447.5336757
   center of mass at/Å    :       -0.3559626       0.1858804       0.0742318
  moments of inertia/u·Å² :        0.1673840E+04   0.1084634E+05   0.1226380E+05
rotational constants/cm⁻¹ :        0.1007123E-01   0.1554222E-02   0.1374585E-02

 * 62 selected distances

     #   Z          #   Z                                           value/Å
     3   6 C        4   6 C                                       1.3646137
     4   6 C        6   6 C                                       1.4289329
     6   6 C        7   6 C                                       1.4004616
     7   6 C        8   7 N                                       1.3109807
     8   7 N        9   6 C                                       1.3421154
     9   6 C       10   7 N                                       1.3490136
    10   7 N       11   6 C                                       1.3862181
    11   6 C       12   7 N                                       1.3284930
    12   7 N       13   6 C                                       1.3179222
    13   6 C       14   6 C                                       1.4004380
    14   6 C       15   6 C                                       1.4039894
    11   6 C       16   6 C                                       1.3950935
    15   6 C       16   6 C                                       1.3769482
    14   6 C       17   7 N                                       1.3836845
    17   7 N       18   6 C                                       1.4511689
[...]
    2    7 N      8, 10, 12, 17, 20, 23, 25
    3    8 O      32, 33
    4    1 H      34-62

           -------------------------------------------------
          |                Calculation Setup                |
           -------------------------------------------------

          program call               : xtb /rds/general/user/hgt20/home/callum/QDESCP/Palbociclib_rdkit_conf_8/Palbociclib_rdkit_conf_8.xyz --acc 1 --gfn 2 --chrg 0 --uhf 2 --etemp 300 --input /rds/general/user/hgt20/home/callum/QDESCP/Palbociclib_rdkit_conf_8/Palbociclib_rdkit_conf_8_xtb.inp -P 1
          hostname                   : login-c
          coordinate file            : /rds/general/user/hgt20/home/callum/QDESCP/Palbociclib_rdkit_conf_8/Palbociclib_rdkit_conf_8.xyz
          omp threads                :                     1


           -------------------------------------------------
          |                 G F N 2 - x T B                 |
           -------------------------------------------------

        Reference                      10.1021/acs.jctc.8b01176
      * Hamiltonian:
        H0-scaling (s, p, d)           1.850000    2.230000    2.230000
        zeta-weighting                 0.500000
      * Dispersion:
        s8                             2.700000
        a1                             0.520000
        a2                             5.000000
        s9                             5.000000
      * Repulsion:
        kExp                           1.500000    1.000000
        rExp                           1.000000
      * Coulomb:
        alpha                          2.000000
        third order                    shell-resolved
        anisotropic                    true
        a3                             3.000000
        a5                             4.000000
        cn-shift                       1.200000
        cn-exp                         4.000000
        max-rad                        5.000000


          ...................................................
          :                      SETUP                      :
          :.................................................:
          :  # basis functions                 161          :
          :  # atomic orbitals                 161          :
          :  # shells                           95          :
          :  # electrons                       172          :
          :  max. iterations                   250          :
          :  Hamiltonian                  GFN2-xTB          :
          :  restarted?                      false          :
          :  GBSA solvation                  false          :
          :  PC potential                    false          :
          :  electronic temp.          300.0000000     K    :
          :  accuracy                    1.0000000          :
          :  -> integral cutoff          0.2500000E+02      :
          :  -> integral neglect         0.1000000E-07      :
          :  -> SCF convergence          0.1000000E-05 Eh   :
          :  -> wf. convergence          0.1000000E-03 e    :
          :  Broyden damping             0.4000000          :
          :  net charge                          0          :
          :  unpaired electrons                  2          :
          ...................................................

 iter      E             dE          RMSdq      gap      omega  full diag
   1    -95.8328885 -0.958329E+02  0.377E+00    0.88       0.0  T
   2    -95.6900663  0.142822E+00  0.283E+00    0.45       1.0  T
   3    -95.7854037 -0.953374E-01  0.200E+00    0.85       1.0  T
   4    -96.0478835 -0.262480E+00  0.110E+00    0.25       1.0  T
   5    -96.0343295  0.135540E-01  0.890E-01    0.47       1.0  T
   6    -96.0455933 -0.112639E-01  0.701E-01    0.57       1.0  T
   7    -96.0759314 -0.303381E-01  0.467E-01    0.35       1.0  T
   8    -96.0901607 -0.142293E-01  0.357E-01    0.51       1.0  T
   9    -96.1034810 -0.133204E-01  0.196E-01    0.40       1.0  T
  10    -96.1034129  0.681340E-04  0.116E-01    0.39       1.0  T
  11    -96.1009703  0.244261E-02  0.153E-01    0.33       1.0  T
  12    -96.1049554 -0.398516E-02  0.635E-02    0.36       1.0  T
  13    -96.1048611  0.943206E-04  0.553E-02    0.36       1.0  T
  14    -96.1052478 -0.386722E-03  0.264E-02    0.35       1.0  T
  15    -96.1053149 -0.671056E-04  0.102E-02    0.35       1.2  T
  16    -96.1053253 -0.103889E-04  0.231E-03    0.35       5.5  T
  17    -96.1053252  0.989980E-07  0.139E-03    0.35       9.1  T
  18    -96.1053254 -0.204553E-06  0.879E-04    0.35      14.5  T
  19    -96.1053255 -0.105683E-06  0.165E-04    0.35      76.9  T

   *** convergence criteria satisfied after 19 iterations ***

         #    Occupation            Energy/Eh            Energy/eV
      -------------------------------------------------------------
         1        2.0000           -0.6930786             -18.8596
       ...           ...                  ...                  ...
        81        2.0000           -0.3899686             -10.6116
        82        2.0000           -0.3839600             -10.4481
        83        2.0000           -0.3779199             -10.2837
        84        1.9345           -0.3696606             -10.0590
        85        1.7065           -0.3679705             -10.0130
        86        1.3591           -0.3665854              -9.9753
        87        0.9989           -0.2706584              -7.3650 (HOMO)
        88        0.0011           -0.2577385              -7.0134 (LUMO)
        89                         -0.2470226              -6.7218
        90                         -0.2342708              -6.3748
        91                         -0.2127709              -5.7898
        92                         -0.1984422              -5.3999
       ...                                ...                  ...
       161                          0.7129557              19.4005
      -------------------------------------------------------------
                  HL-Gap            0.0129198 Eh            0.3516 eV
             Fermi-level           -0.3156672 Eh           -8.5897 eV

 transition dipole moment (au) for excitation:          86          87
     X       Y       Z   
  -2.6313   0.4757   0.2247  total (au/Debye):    2.683   6.821
 dE (eV)             :    2.610
 oscillator strength :  0.65123E+00

 SCC (total)                   0 d,  0 h,  0 min,  0.306 sec
 SCC setup                      ...        0 min,  0.001 sec (  0.217%)
 Dispersion                     ...        0 min,  0.001 sec (  0.313%)
 classical contributions        ...        0 min,  0.000 sec (  0.100%)
 integral evaluation            ...        0 min,  0.063 sec ( 20.725%)
 iterations                     ...        0 min,  0.127 sec ( 41.484%)
 molecular gradient             ...        0 min,  0.103 sec ( 33.572%)
 printout                       ...        0 min,  0.011 sec (  3.586%)

         :::::::::::::::::::::::::::::::::::::::::::::::::::::
         ::                     SUMMARY                     ::
         :::::::::::::::::::::::::::::::::::::::::::::::::::::
         :: total energy             -94.796450169593 Eh    ::
         :: gradient norm              0.099638373896 Eh/a0 ::
         :: HOMO-LUMO gap              0.351566872049 eV    ::
         ::.................................................::
         :: SCC energy               -96.105532927100 Eh    ::
         :: -> isotropic ES            0.109880550048 Eh    ::
         :: -> anisotropic ES          0.005682701208 Eh    ::
         :: -> anisotropic XC          0.048183564922 Eh    ::
         :: -> dispersion             -0.071416636901 Eh    ::
         :: repulsion energy           1.309082757506 Eh    ::
         :: add. restraining           0.000000000000 Eh    ::
         :: total charge               0.000000000000 e     ::
         :::::::::::::::::::::::::::::::::::::::::::::::::::::

           -------------------------------------------------
          |                Property Printout                |
           -------------------------------------------------

    * Orbital Energies and Occupations

         #    Occupation            Energy/Eh            Energy/eV
      -------------------------------------------------------------
         1        2.0000           -0.6930786             -18.8596
       ...           ...                  ...                  ...
        75        2.0000           -0.4244468             -11.5498
        76        2.0000           -0.4207098             -11.4481
        77        2.0000           -0.4184563             -11.3868
        78        2.0000           -0.4109823             -11.1834
        79        2.0000           -0.4006369             -10.9019
        80        2.0000           -0.3939006             -10.7186
        81        2.0000           -0.3899686             -10.6116
        82        2.0000           -0.3839600             -10.4481
        83        2.0000           -0.3779199             -10.2837
        84        1.9345           -0.3696606             -10.0590
        85        1.7065           -0.3679705             -10.0130
        86        1.3591           -0.3665854              -9.9753
        87        0.9989           -0.2706584              -7.3650 (HOMO)
        88        0.0011           -0.2577385              -7.0134 (LUMO)
        89                         -0.2470226              -6.7218
        90                         -0.2342708              -6.3748
        91                         -0.2127709              -5.7898
        92                         -0.1984422              -5.3999
        93                         -0.1430226              -3.8918
        94                         -0.1123409              -3.0570
        95                         -0.0734158              -1.9977
        96                         -0.0314351              -0.8554
        97                         -0.0050281              -0.1368
        98                          0.0061961               0.1686
       ...                                ...                  ...
       161                          0.7129557              19.4005
      -------------------------------------------------------------
                  HL-Gap            0.0129198 Eh            0.3516 eV
             Fermi-level           -0.3156672 Eh           -8.5897 eV

     #   Z          covCN         q      C6AA      α(0)
     1   6 C        3.754    -0.136    23.167     6.863
     2   6 C        2.817     0.245    22.898     7.840
     3   6 C        2.964    -0.073    29.828     8.958
     4   6 C        2.957    -0.000    28.033     8.684
     5   6 C        3.758    -0.108    22.613     6.780
     6   6 C        2.979    -0.040    28.977     8.830
     7   6 C        2.925     0.038    27.143     8.544
     8   7 N        1.837    -0.258    27.571     7.781
     9   6 C        2.883     0.210    23.555     7.957
    10   7 N        2.727    -0.122    23.654     7.223
    11   6 C        2.891     0.145    24.854     8.174
    12   7 N        1.853    -0.254    27.462     7.767
    13   6 C        2.906     0.038    27.142     8.543
    14   6 C        2.906     0.041    27.073     8.532
    15   6 C        2.935    -0.037    28.914     8.819
    16   6 C        2.910    -0.054    29.351     8.884
    17   7 N        2.738    -0.092    23.029     7.127
    18   6 C        3.755    -0.002    20.670     6.483
    19   6 C        3.757     0.002    20.592     6.470
    20   7 N        2.678    -0.242    26.307     7.618
    21   6 C        3.757     0.003    20.585     6.469
    22   6 C        3.754    -0.004    20.711     6.489
    23   7 N        1.862    -0.299    28.604     7.927
    24   6 C        2.917     0.167    24.414     8.102
    25   7 N        2.749    -0.078    22.762     7.086
    26   6 C        3.822     0.037    19.944     6.355
    27   6 C        3.827    -0.064    21.713     6.630
    28   6 C        3.830    -0.058    21.586     6.611
    29   6 C        3.827    -0.058    21.599     6.613
    30   6 C        3.819    -0.063    21.699     6.629
    31   6 C        2.777     0.254    22.730     7.809
    32   8 O        0.859    -0.452    22.754     6.396
    33   8 O        0.857    -0.368    21.042     6.150
    34   1 H        0.925     0.055     2.259     2.350
    35   1 H        0.925     0.061     2.188     2.313
    36   1 H        0.925     0.102     1.770     2.081
    37   1 H        0.925     0.050     2.324     2.384
    38   1 H        0.925     0.041     2.441     2.443
    39   1 H        0.925     0.063     2.159     2.298
    40   1 H        0.925     0.041     2.430     2.437
    41   1 H        0.860     0.211     1.050     1.605
    42   1 H        0.926     0.040     2.452     2.449
    43   1 H        0.926     0.040     2.447     2.446
    44   1 H        0.926     0.078     1.998     2.210
    45   1 H        0.922     0.030     2.589     2.516
    46   1 H        0.925     0.053     2.288     2.366
    47   1 H        0.924     0.047     2.359     2.402
    48   1 H        0.924     0.054     2.268     2.355
    49   1 H        0.860     0.143     1.451     1.887
    50   1 H        0.924     0.054     2.272     2.357
    51   1 H        0.924     0.047     2.355     2.400
    52   1 H        0.923     0.030     2.591     2.517
    53   1 H        0.925     0.052     2.301     2.372
    54   1 H        0.924     0.082     1.963     2.191
    55   1 H        0.925     0.050     2.317     2.380
    56   1 H        0.925     0.038     2.482     2.464
    57   1 H        0.924     0.037     2.487     2.466
    58   1 H        0.925     0.033     2.543     2.494
    59   1 H        0.925     0.033     2.548     2.496
    60   1 H        0.925     0.038     2.473     2.459
    61   1 H        0.925     0.043     2.410     2.428
    62   1 H        0.925     0.038     2.473     2.459

 Mol. C6AA /au·bohr⁶  :      42267.709720
 Mol. C8AA /au·bohr⁸  :     981774.544162
 Mol. α(0) /au        :        315.169618


Wiberg/Mayer (AO) data.
largest (>0.10) Wiberg bond orders for each atom

 ---------------------------------------------------------------------------
     #   Z sym  total        # sym  WBO       # sym  WBO       # sym  WBO
 ---------------------------------------------------------------------------
     1   6 C    3.961 --     2 C    0.995    35 H    0.981    34 H    0.967
                            36 H    0.940
     2   6 C    3.890 --    33 O    1.776     3 C    1.018     1 C    0.995
     3   6 C    3.821 --     4 C    1.383    31 C    1.127     2 C    1.018
     4   6 C    3.893 --     3 C    1.383     6 C    1.256     5 C    1.027
     5   6 C    3.988 --     4 C    1.027    39 H    0.978    38 H    0.969
                            37 H    0.967
     6   6 C    3.886 --     4 C    1.256     7 C    1.218    24 C    1.193
     7   6 C    3.865 --     8 N    1.441     6 C    1.218    40 H    0.951
     8   7 N    2.995 --     7 C    1.441     9 C    1.297
     9   6 C    3.912 --     8 N    1.297    23 N    1.239    10 N    1.166
    10   7 N    3.470 --     9 C    1.166    11 C    1.150    41 H    0.917
    11   6 C    3.904 --    12 N    1.304    16 C    1.282    10 N    1.150
    12   7 N    3.003 --    13 C    1.466    11 C    1.304
    13   6 C    3.940 --    12 N    1.466    14 C    1.318    42 H    0.958
    14   6 C    3.903 --    13 C    1.318    15 C    1.283    17 N    1.136
    15   6 C    3.947 --    16 C    1.530    14 C    1.283    43 H    0.963
    16   6 C    3.959 --    15 C    1.530    11 C    1.282    44 H    0.953
    17   7 N    3.292 --    14 C    1.136    22 C    1.002    18 C    0.992
    18   6 C    3.970 --    17 N    0.992    19 C    0.983    46 H    0.967
                            45 H    0.959
    19   6 C    3.980 --    20 N    1.021    18 C    0.983    47 H    0.973
                            48 H    0.971
    20   7 N    3.082 --    21 C    1.023    19 C    1.021    49 H    0.954
    21   6 C    3.979 --    20 N    1.023    22 C    0.978    51 H    0.973
                            50 H    0.971
    22   6 C    3.973 --    17 N    1.002    21 C    0.978    53 H    0.969
                            52 H    0.960
    23   7 N    2.953 --    24 C    1.371     9 C    1.239
    24   6 C    3.949 --    23 N    1.371    25 N    1.204     6 C    1.193
    25   7 N    3.561 --    24 C    1.204    31 C    1.068    26 C    0.960
                            32 O    0.107
    26   6 C    3.948 --    27 C    0.984    30 C    0.981    25 N    0.960
                            54 H    0.953
    27   6 C    3.991 --    28 C    1.007    26 C    0.984    56 H    0.979
                            55 H    0.970
    28   6 C    3.996 --    27 C    1.007    29 C    1.007    57 H    0.979
                            58 H    0.979
    29   6 C    3.996 --    28 C    1.007    30 C    1.006    59 H    0.980
                            60 H    0.976
    30   6 C    3.994 --    29 C    1.006    62 H    0.981    26 C    0.981
                            61 H    0.977
    31   6 C    3.934 --    32 O    1.604     3 C    1.127    25 N    1.068
    32   8 O    1.917 --    31 C    1.604    25 N    0.107
    33   8 O    1.991 --     2 C    1.776
    34   1 H    0.995 --     1 C    0.967
    35   1 H    0.994 --     1 C    0.981
    36   1 H    0.987 --     1 C    0.940
    37   1 H    0.994 --     5 C    0.967
    38   1 H    0.994 --     5 C    0.969
    39   1 H    0.995 --     5 C    0.978
    40   1 H    0.985 --     7 C    0.951
    41   1 H    0.954 --    10 N    0.917
    42   1 H    0.997 --    13 C    0.958
    43   1 H    0.997 --    15 C    0.963
    44   1 H    0.992 --    16 C    0.953
    45   1 H    0.988 --    18 C    0.959
    46   1 H    0.997 --    18 C    0.967
    47   1 H    0.997 --    19 C    0.973
    48   1 H    0.996 --    19 C    0.971
    49   1 H    0.979 --    20 N    0.954
    50   1 H    0.996 --    21 C    0.971
    51   1 H    0.997 --    21 C    0.973
    52   1 H    0.988 --    22 C    0.960
    53   1 H    0.997 --    22 C    0.969
    54   1 H    0.991 --    26 C    0.953
    55   1 H    0.996 --    27 C    0.970
    56   1 H    0.998 --    27 C    0.979
    57   1 H    0.998 --    28 C    0.979
    58   1 H    0.998 --    28 C    0.979
    59   1 H    0.999 --    29 C    0.980
    60   1 H    0.998 --    29 C    0.976
    61   1 H    0.998 --    30 C    0.977
    62   1 H    0.998 --    30 C    0.981
 ---------------------------------------------------------------------------

Topologies differ in total number of bonds
Writing topology from bond orders to xtbtopo.mol

molecular dipole:
                 x           y           z       tot (Debye)
 q only:        5.455      -1.650      -1.074
   full:        5.286      -1.470      -0.815      14.099
molecular quadrupole (traceless):
                xx          xy          yy          xz          yz          zz
 q only:        5.516      14.893      -1.401      20.297      -7.980      -4.115
  q+dip:       -3.037      11.263       3.554      30.586     -11.172      -0.517
   full:       -5.593      10.705       1.369      30.548     -11.814       4.224


           -------------------------------------------------
          | TOTAL ENERGY              -94.796450169593 Eh   |
          | GRADIENT NORM               0.099638373896 Eh/α |
          | HOMO-LUMO GAP               0.351566872049 eV   |
           -------------------------------------------------

------------------------------------------------------------------------
 * finished run on 2025/05/15 at 16:24:06.786     
------------------------------------------------------------------------
 total:
 * wall-time:     0 d,  0 h,  0 min,  0.371 sec
 *  cpu-time:     0 d,  0 h,  0 min,  0.177 sec
 * ratio c/w:     0.476 speedup
 SCF:
 * wall-time:     0 d,  0 h,  0 min,  0.306 sec
 *  cpu-time:     0 d,  0 h,  0 min,  0.160 sec
 * ratio c/w:     0.521 speedup


