----- Optimization -----
      -----------------------------------------------------------      
     |                   =====================                   |     
     |                           x T B                           |     
     |                   =====================                   |     
     |                         S. Grimme                         |     
     |          Mulliken Center for Theoretical Chemistry        |     
     |                    University of Bonn                     |     
      -----------------------------------------------------------      

   * xtb version 6.7.1 (edcfbbe) compiled by 'conda@3ef47c1a292c' on 2024-11-25

   xtb is free software: you can redistribute it and/or modify it under
   the terms of the GNU Lesser General Public License as published by
   the Free Software Foundation, either version 3 of the License, or
   (at your option) any later version.
   
   xtb is distributed in the hope that it will be useful,
   but WITHOUT ANY WARRANTY; without even the implied warranty of
   MERCHANTABILITY or FITNESS FOR A PARTICULAR PURPOSE.  See the
   GNU Lesser General Public License for more details.
   
   Cite this work as:
   * C. Bannwarth, E. Caldeweyher, S. Ehlert, A. Hansen, P. Pracht,
     J. Seibert, S. Spicher, S. Grimme, WIREs Comput. Mol. Sci., 2020, 11,
     e01493. DOI: 10.1002/wcms.1493
   
   for GFN2-xTB:
   * C. Bannwarth, S. Ehlert and S. Grimme., J. Chem. Theory Comput., 2019,
     15, 1652-1671. DOI: 10.1021/acs.jctc.8b01176
   for GFN1-xTB:
   * S. Grimme, C. Bannwarth, P. Shushkov, J. Chem. Theory Comput., 2017,
     13, 1989-2009. DOI: 10.1021/acs.jctc.7b00118
   for GFN0-xTB:
   * P. Pracht, E. Caldeweyher, S. Ehlert, S. Grimme, ChemRxiv, 2019, preprint.
     DOI: 10.26434/chemrxiv.8326202.v1
   for GFN-FF:
   * S. Spicher and S. Grimme, Angew. Chem. Int. Ed., 2020, 59, 15665-15673.
     DOI: 10.1002/anie.202004239
   
   for ALPB and GBSA implicit solvation:
   * S. Ehlert, M. Stahn, S. Spicher, S. Grimme, J. Chem. Theory Comput.,
     2021, 17, 4250-4261. DOI: 10.1021/acs.jctc.1c00471
   
   for ddCOSMO and CPCM-X implicit solvation:
   * M. Stahn, S. Ehlert, S. Grimme, J. Phys. Chem. A,
     2023, XX, XXXX-XXXX. DOI: 10.1021/acs.jpca.3c04382
   
   for DFT-D4:
   * E. Caldeweyher, C. Bannwarth and S. Grimme, J. Chem. Phys., 2017,
     147, 034112. DOI: 10.1063/1.4993215
   * E. Caldeweyher, S. Ehlert, A. Hansen, H. Neugebauer, S. Spicher,
     C. Bannwarth and S. Grimme, J. Chem. Phys., 2019, 150, 154122.
     DOI: 10.1063/1.5090222
   * E. Caldeweyher, J.-M. Mewes, S. Ehlert and S. Grimme, Phys. Chem. Chem. Phys.
     2020, 22, 8499-8512. DOI: 10.1039/D0CP00502A
   
   for sTDA-xTB:
   * S. Grimme and C. Bannwarth, J. Chem. Phys., 2016, 145, 054103.
     DOI: 10.1063/1.4959605
   
   in the mass-spec context:
   * V. Asgeirsson, C. Bauer and S. Grimme, Chem. Sci., 2017, 8, 4879.
     DOI: 10.1039/c7sc00601b
   * J. Koopman and S. Grimme, ACS Omega 2019, 4, 12, 15120-15133.
     DOI: 10.1021/acsomega.9b02011
   
   for metadynamics refer to:
   * S. Grimme, J. Chem. Theory Comput., 2019, 155, 2847-2862
     DOI: 10.1021/acs.jctc.9b00143
   
   for SPH calculations refer to:
   * S. Spicher and S. Grimme, J. Chem. Theory Comput., 2021, 17, 1701-1714
     DOI: 10.1021/acs.jctc.0c01306
   
   for ONIOM refer to:
   * C. Plett, A. Katbashev, S. Ehlert, S. Grimme, M. Bursch,
     Phys. Chem. Chem. Phys., 2023, 25, 17860-17868. DOI: 10.1039/D3CP02178E
   
   for DIPRO refer to:
   * J. Kohn, N. Gildemeister, S. Grimme, D. Fazzi, A. Hansen,
     J. Chem. Phys., 2023, just accepted.
   
   for PTB refer to:
   * S. Grimme, M. Mueller, A. Hansen, J. Chem. Phys., 2023, 158, 124111.
     DOI: 10.1063/5.0137838
   
   with help from (in alphabetical order)
   P. Atkinson, C. Bannwarth, F. Bohle, G. Brandenburg, E. Caldeweyher
   M. Checinski, S. Dohm, S. Ehlert, S. Ehrlich, I. Gerasimov, C. Hölzer
   A. Katbashev, J. Kohn, J. Koopman, C. Lavigne, S. Lehtola, F. März, M. Müller,
   F. Musil, H. Neugebauer, J. Pisarek, C. Plett, P. Pracht, F. Pultar,
   J. Seibert, P. Shushkov, S. Spicher, M. Stahn, M. Steiner, T. Strunk,
   J. Stückrath, T. Rose, and J. Unsleber
   
 * started run on 2025/05/15 at 16:27:15.874     
   ID    Z sym.   atoms
    1    6 C      1-5, 7-11, 13, 14, 16-18, 20-23
    2    7 N      6
    3   17 Cl     12
    4    8 O      15, 19, 24, 25
    5    1 H      26-41

           -------------------------------------------------
          |                Calculation Setup                |
           -------------------------------------------------

          program call               : xtb /rds/general/user/hgt20/home/callum/QDESCP/Indomethacin_rdkit_conf_8/Indomethacin_rdkit_conf_8.xyz --opt normal --acc 1 --gfn 2 --chrg 0 --uhf 0 -P 1
          hostname                   : login-c
          coordinate file            : /rds/general/user/hgt20/home/callum/QDESCP/Indomethacin_rdkit_conf_8/Indomethacin_rdkit_conf_8.xyz
          omp threads                :                     1


           -------------------------------------------------
          |                 G F N 2 - x T B                 |
           -------------------------------------------------

        Reference                      10.1021/acs.jctc.8b01176
      * Hamiltonian:
        H0-scaling (s, p, d)           1.850000    2.230000    2.230000
        zeta-weighting                 0.500000
      * Dispersion:
        s8                             2.700000
        a1                             0.520000
        a2                             5.000000
        s9                             5.000000
      * Repulsion:
        kExp                           1.500000    1.000000
        rExp                           1.000000
      * Coulomb:
        alpha                          2.000000
        third order                    shell-resolved
        anisotropic                    true
        a3                             3.000000
        a5                             4.000000
        cn-shift                       1.200000
        cn-exp                         4.000000
        max-rad                        5.000000


          ...................................................
          :                      SETUP                      :
          :.................................................:
          :  # basis functions                 122          :
          :  # atomic orbitals                 121          :
          :  # shells                           67          :
          :  # electrons                       128          :
          :  max. iterations                   250          :
          :  Hamiltonian                  GFN2-xTB          :
          :  restarted?                      false          :
          :  GBSA solvation                  false          :
          :  PC potential                    false          :
          :  electronic temp.          300.0000000     K    :
          :  accuracy                    1.0000000          :
          :  -> integral cutoff          0.2500000E+02      :
          :  -> integral neglect         0.1000000E-07      :
          :  -> SCF convergence          0.1000000E-05 Eh   :
          :  -> wf. convergence          0.1000000E-03 e    :
          :  Broyden damping             0.4000000          :
          :  net charge                          0          :
          :  unpaired electrons                  0          :
          ...................................................

 iter      E             dE          RMSdq      gap      omega  full diag
   1    -73.3962831 -0.733963E+02  0.460E+00    2.65       0.0  T
   2    -73.5058428 -0.109560E+00  0.267E+00    2.16       1.0  T
   3    -73.4989930  0.684978E-02  0.152E+00    2.52       1.0  T
   4    -73.5241627 -0.251697E-01  0.542E-01    2.17       1.0  T
   5    -73.5329805 -0.881778E-02  0.146E-01    2.29       1.0  T
   6    -73.5335044 -0.523934E-03  0.621E-02    2.28       1.0  T
   7    -73.5335294 -0.249504E-04  0.313E-02    2.28       1.0  T
   8    -73.5335431 -0.137327E-04  0.155E-02    2.28       1.0  T
   9    -73.5335462 -0.305580E-05  0.951E-03    2.28       1.6  T
  10    -73.5335470 -0.818850E-06  0.666E-03    2.28       2.3  T
  11    -73.5335477 -0.676298E-06  0.457E-03    2.28       3.4  T
  12    -73.5335481 -0.414196E-06  0.182E-03    2.28       8.6  T
  13    -73.5335481 -0.527929E-07  0.967E-04    2.28      16.1  T
  14    -73.5335482 -0.155885E-07  0.410E-04    2.28      38.1  T

   *** convergence criteria satisfied after 14 iterations ***

         #    Occupation            Energy/Eh            Energy/eV
      -------------------------------------------------------------
         1        2.0000           -1.0640206             -28.9535
       ...           ...                  ...                  ...
        58        2.0000           -0.4264143             -11.6033
        59        2.0000           -0.4257088             -11.5841
        60        2.0000           -0.4181691             -11.3790
        61        2.0000           -0.4109140             -11.1815
        62        2.0000           -0.4055965             -11.0368
        63        2.0000           -0.3738308             -10.1725
        64        2.0000           -0.3710274             -10.0962 (HOMO)
        65                         -0.2871587              -7.8140 (LUMO)
        66                         -0.2543548              -6.9213
        67                         -0.2517091              -6.8494
        68                         -0.2453921              -6.6775
        69                         -0.2264125              -6.1610
       ...                                ...                  ...
       121                          0.6724454              18.2982
      -------------------------------------------------------------
                  HL-Gap            0.0838687 Eh            2.2822 eV
             Fermi-level           -0.3290930 Eh           -8.9551 eV

 SCC (total)                   0 d,  0 h,  0 min,  0.069 sec
 SCC setup                      ...        0 min,  0.000 sec (  0.575%)
 Dispersion                     ...        0 min,  0.000 sec (  0.690%)
 classical contributions        ...        0 min,  0.000 sec (  0.205%)
 integral evaluation            ...        0 min,  0.009 sec ( 12.378%)
 iterations                     ...        0 min,  0.035 sec ( 50.548%)
 molecular gradient             ...        0 min,  0.024 sec ( 35.319%)
 printout                       ...        0 min,  0.000 sec (  0.275%)

         :::::::::::::::::::::::::::::::::::::::::::::::::::::
         ::                     SUMMARY                     ::
         :::::::::::::::::::::::::::::::::::::::::::::::::::::
         :: total energy             -72.615195670212 Eh    ::
         :: gradient norm              0.092280762233 Eh/a0 ::
         :: HOMO-LUMO gap              2.282183511474 eV    ::
         ::.................................................::
         :: SCC energy               -73.533340161159 Eh    ::
         :: -> isotropic ES            0.099468983279 Eh    ::
         :: -> anisotropic ES          0.002677246896 Eh    ::
         :: -> anisotropic XC          0.020472662301 Eh    ::
         :: -> dispersion             -0.047980048088 Eh    ::
         :: repulsion energy           0.918144490947 Eh    ::
         :: add. restraining           0.000000000000 Eh    ::
         :: total charge              -0.000000000000 e     ::
         :::::::::::::::::::::::::::::::::::::::::::::::::::::

      ----------------------------------------------------------- 
     |                   =====================                   |
     |                        A N C O P T                        |
     |                   =====================                   |
     |               Approximate Normal Coordinate               |
     |                Rational Function Optimizer                |
      ----------------------------------------------------------- 
      ----------------------------------------------------------- 
     |                   =====================                   |
     |                        A N C O P T                        |
     |                   =====================                   |
     |               Approximate Normal Coordinate               |
     |                Rational Function Optimizer                |
      ----------------------------------------------------------- 

          ...................................................
          :                      SETUP                      :
          :.................................................:
          :   optimization level            normal          :
          :   max. optcycles                   200          :
          :   ANC micro-cycles                  20          :
          :   degrees of freedom               117          :
          :.................................................:
          :   RF solver                   davidson          :
          :   write xtbopt.log                true          :
          :   linear?                        false          :
          :   energy convergence         0.5000000E-05 Eh   :
          :   grad. convergence          0.1000000E-02 Eh/α :
          :   maxmium RF displ.          1.0000000          :
          :   Hlow (freq-cutoff)         0.1000000E-01      :
          :   Hmax (freq-cutoff)         5.0000000          :
          :   S6 in model hess.         20.0000000          :
          ...................................................

generating ANC from exact Hessian ...
Using Lindh-Hessian (1995)
 Shifting diagonal of input Hessian by    9.6381222774077607E-003
 Lowest  eigenvalues of input Hessian
    0.000000    0.000000    0.000000    0.000000    0.000000    0.000000
    0.010000    0.010172    0.010592    0.010654    0.010954    0.012242
    0.012478    0.013846    0.014343    0.014902    0.015598    0.016269
 Highest eigenvalues
    1.946679    1.987670    2.022132    2.118803    2.198842    2.255218


........................................................................
.............................. CYCLE    1 ..............................
........................................................................

 iter      E             dE          RMSdq      gap      omega  full diag
   1    -73.5335482 -0.735335E+02  0.175E-04    2.28       0.0  T
   2    -73.5335482 -0.185864E-09  0.117E-04    2.28     133.9  T
   3    -73.5335482 -0.815987E-10  0.846E-05    2.28     184.7  T
     SCC iter.                  ...        0 min,  0.008 sec
     gradient                   ...        0 min,  0.024 sec
 * total energy  :   -72.6151957 Eh     change       -0.1362949E-08 Eh
   gradient norm :     0.0922797 Eh/α   predicted     0.0000000E+00 (-100.00%)
   displ. norm   :     0.3465178 α      lambda       -0.1391364E-01
   maximum displ.:     0.1178497 α      in ANC's #23, #26, #14, ...

........................................................................
.............................. CYCLE    2 ..............................
........................................................................

 iter      E             dE          RMSdq      gap      omega  full diag
   1    -73.5809901 -0.735810E+02  0.208E-01    2.39       0.0  T
   2    -73.5810857 -0.955938E-04  0.123E-01    2.39       1.0  T
   3    -73.5810449  0.407248E-04  0.489E-02    2.40       1.0  T
   4    -73.5811031 -0.581782E-04  0.966E-03    2.40       1.6  T
   5    -73.5811059 -0.276408E-05  0.375E-03    2.40       4.2  T
   6    -73.5811061 -0.240066E-06  0.194E-03    2.40       8.1  T
   7    -73.5811061 -0.158583E-07  0.103E-03    2.40      15.2  T
   8    -73.5811061 -0.179731E-07  0.573E-04    2.40      27.3  T
   9    -73.5811062 -0.456760E-08  0.348E-04    2.40      44.9  T
     SCC iter.                  ...        0 min,  0.021 sec
     gradient                   ...        0 min,  0.024 sec
 * total energy  :   -72.6248576 Eh     change       -0.9661903E-02 Eh
   gradient norm :     0.0357863 Eh/α   predicted    -0.7804600E-02 ( -19.22%)
   displ. norm   :     0.3499640 α      lambda       -0.4812901E-02
   maximum displ.:     0.1285510 α      in ANC's #14, #23, #6, ...

........................................................................
.............................. CYCLE    3 ..............................
........................................................................

 iter      E             dE          RMSdq      gap      omega  full diag
   1    -73.6069868 -0.736070E+02  0.146E-01    2.44       0.0  T
   2    -73.6070283 -0.415854E-04  0.856E-02    2.44       1.0  T
   3    -73.6070054  0.228922E-04  0.363E-02    2.45       1.0  T
   4    -73.6070381 -0.326563E-04  0.768E-03    2.45       2.0  T
   5    -73.6070396 -0.152644E-05  0.316E-03    2.45       4.9  T
   6    -73.6070398 -0.157253E-06  0.150E-03    2.45      10.4  T
   7    -73.6070398 -0.194065E-07  0.741E-04    2.45      21.1  T
   8    -73.6070398 -0.125218E-07  0.375E-04    2.45      41.7  T
     SCC iter.                  ...        0 min,  0.026 sec
     gradient                   ...        0 min,  0.024 sec
 * total energy  :   -72.6277347 Eh     change       -0.2877090E-02 Eh
   gradient norm :     0.0108912 Eh/α   predicted    -0.2703191E-02 (  -6.04%)
   displ. norm   :     0.2291787 α      lambda       -0.8888539E-03
   maximum displ.:     0.1169332 α      in ANC's #6, #14, #7, ...

........................................................................
.............................. CYCLE    4 ..............................
........................................................................

 iter      E             dE          RMSdq      gap      omega  full diag
   1    -73.6096673 -0.736097E+02  0.576E-02    2.45       0.0  T
   2    -73.6096725 -0.518213E-05  0.344E-02    2.46       1.0  T
   3    -73.6096690  0.351393E-05  0.122E-02    2.46       1.3  T
   4    -73.6096736 -0.465104E-05  0.300E-03    2.46       5.2  T
   5    -73.6096739 -0.271585E-06  0.120E-03    2.46      13.0  T
   6    -73.6096739 -0.129830E-07  0.718E-04    2.46      21.8  T
   7    -73.6096739 -0.669176E-08  0.281E-04    2.46      55.5  T
     SCC iter.                  ...        0 min,  0.017 sec
     gradient                   ...        0 min,  0.052 sec
 * total energy  :   -72.6283332 Eh     change       -0.5985391E-03 Eh
   gradient norm :     0.0084540 Eh/α   predicted    -0.4677899E-03 ( -21.84%)
   displ. norm   :     0.2327308 α      lambda       -0.4806525E-03
   maximum displ.:     0.1400258 α      in ANC's #6, #7, #3, ...

........................................................................
.............................. CYCLE    5 ..............................
........................................................................

 iter      E             dE          RMSdq      gap      omega  full diag
   1    -73.6095002 -0.736095E+02  0.540E-02    2.45       0.0  T
   2    -73.6095043 -0.417018E-05  0.320E-02    2.46       1.0  T
   3    -73.6095012  0.312190E-05  0.116E-02    2.46       1.3  T
   4    -73.6095048 -0.362429E-05  0.375E-03    2.46       4.2  T
   5    -73.6095053 -0.476696E-06  0.123E-03    2.46      12.7  T
   6    -73.6095053 -0.142030E-07  0.788E-04    2.46      19.8  T
   7    -73.6095053 -0.593101E-08  0.436E-04    2.46      35.8  T
     SCC iter.                  ...        0 min,  0.016 sec
     gradient                   ...        0 min,  0.024 sec
 * total energy  :   -72.6286416 Eh     change       -0.3083708E-03 Eh
   gradient norm :     0.0048432 Eh/α   predicted    -0.2533516E-03 ( -17.84%)
   displ. norm   :     0.1755300 α      lambda       -0.2016566E-03
   maximum displ.:     0.1064436 α      in ANC's #6, #7, #3, ...

........................................................................
.............................. CYCLE    6 ..............................
........................................................................

 iter      E             dE          RMSdq      gap      omega  full diag
   1    -73.6087174 -0.736087E+02  0.419E-02    2.46       0.0  T
   2    -73.6087183 -0.860464E-06  0.245E-02    2.45       1.0  T
   3    -73.6087173  0.997780E-06  0.592E-03    2.45       2.6  T
   4    -73.6087185 -0.121219E-05  0.180E-03    2.45       8.7  T
   5    -73.6087185 -0.692237E-07  0.993E-04    2.45      15.7  T
   6    -73.6087185 -0.663314E-08  0.681E-04    2.45      22.9  T
     SCC iter.                  ...        0 min,  0.014 sec
     gradient                   ...        0 min,  0.024 sec
 * total energy  :   -72.6287816 Eh     change       -0.1399824E-03 Eh
   gradient norm :     0.0033054 Eh/α   predicted    -0.1039390E-03 ( -25.75%)
   displ. norm   :     0.1710453 α      lambda       -0.1388764E-03
   maximum displ.:     0.0904948 α      in ANC's #6, #3, #2, ...

........................................................................
.............................. CYCLE    7 ..............................
........................................................................

 iter      E             dE          RMSdq      gap      omega  full diag
   1    -73.6082001 -0.736082E+02  0.456E-02    2.45       0.0  T
   2    -73.6082009 -0.858419E-06  0.268E-02    2.45       1.0  T
   3    -73.6081992  0.172984E-05  0.750E-03    2.45       2.1  T
   4    -73.6082013 -0.205798E-05  0.161E-03    2.45       9.7  T
   5    -73.6082013 -0.503447E-07  0.913E-04    2.45      17.1  T
   6    -73.6082013 -0.726786E-08  0.562E-04    2.45      27.8  T
     SCC iter.                  ...        0 min,  0.014 sec
     gradient                   ...        0 min,  0.051 sec
 * total energy  :   -72.6288849 Eh     change       -0.1033921E-03 Eh
   gradient norm :     0.0036511 Eh/α   predicted    -0.7147114E-04 ( -30.87%)
   displ. norm   :     0.2030240 α      lambda       -0.1253097E-03
   maximum displ.:     0.0955089 α      in ANC's #3, #6, #2, ...

........................................................................
.............................. CYCLE    8 ..............................
........................................................................

 iter      E             dE          RMSdq      gap      omega  full diag
   1    -73.6081624 -0.736082E+02  0.568E-02    2.44       0.0  T
   2    -73.6081642 -0.175639E-05  0.333E-02    2.44       1.0  T
   3    -73.6081610  0.312735E-05  0.105E-02    2.44       1.5  T
   4    -73.6081647 -0.364776E-05  0.235E-03    2.44       6.6  T
   5    -73.6081648 -0.150684E-06  0.105E-03    2.44      14.9  T
   6    -73.6081648 -0.740010E-08  0.632E-04    2.44      24.7  T
   7    -73.6081648 -0.496387E-08  0.288E-04    2.44      54.3  T
     SCC iter.                  ...        0 min,  0.016 sec
     gradient                   ...        0 min,  0.060 sec
 * total energy  :   -72.6289761 Eh     change       -0.9115606E-04 Eh
   gradient norm :     0.0035632 Eh/α   predicted    -0.6524068E-04 ( -28.43%)
   displ. norm   :     0.1861773 α      lambda       -0.8747345E-04
   maximum displ.:     0.0897787 α      in ANC's #3, #2, #6, ...

........................................................................
.............................. CYCLE    9 ..............................
........................................................................

 iter      E             dE          RMSdq      gap      omega  full diag
   1    -73.6084675 -0.736085E+02  0.559E-02    2.44       0.0  T
   2    -73.6084693 -0.184829E-05  0.327E-02    2.43       1.0  T
   3    -73.6084652  0.408448E-05  0.120E-02    2.43       1.3  T
   4    -73.6084699 -0.472456E-05  0.245E-03    2.43       6.4  T
   5    -73.6084701 -0.164003E-06  0.112E-03    2.43      14.0  T
   6    -73.6084701 -0.681190E-08  0.717E-04    2.43      21.8  T
   7    -73.6084701 -0.670727E-08  0.359E-04    2.43      43.5  T
     SCC iter.                  ...        0 min,  0.016 sec
     gradient                   ...        0 min,  0.024 sec
 * total energy  :   -72.6290388 Eh     change       -0.6272664E-04 Eh
   gradient norm :     0.0026834 Eh/α   predicted    -0.4525309E-04 ( -27.86%)
   displ. norm   :     0.1471874 α      lambda       -0.5607707E-04
   maximum displ.:     0.0700897 α      in ANC's #3, #2, #1, ...

........................................................................
.............................. CYCLE   10 ..............................
........................................................................

 iter      E             dE          RMSdq      gap      omega  full diag
   1    -73.6091583 -0.736092E+02  0.458E-02    2.43       0.0  T
   2    -73.6091593 -0.104239E-05  0.269E-02    2.42       1.0  T
   3    -73.6091556  0.370165E-05  0.109E-02    2.43       1.4  T
   4    -73.6091599 -0.427693E-05  0.171E-03    2.42       9.1  T
   5    -73.6091600 -0.620524E-07  0.909E-04    2.42      17.2  T
   6    -73.6091600 -0.347033E-08  0.589E-04    2.42      26.5  T
     SCC iter.                  ...        0 min,  0.047 sec
     gradient                   ...        0 min,  0.024 sec
 * total energy  :   -72.6290794 Eh     change       -0.4053182E-04 Eh
   gradient norm :     0.0018635 Eh/α   predicted    -0.2864715E-04 ( -29.32%)
   displ. norm   :     0.1873008 α      lambda       -0.3995959E-04
   maximum displ.:     0.0949618 α      in ANC's #2, #3, #1, ...

........................................................................
.............................. CYCLE   11 ..............................
........................................................................

 iter      E             dE          RMSdq      gap      omega  full diag
   1    -73.6098112 -0.736098E+02  0.574E-02    2.43       0.0  T
   2    -73.6098123 -0.111053E-05  0.337E-02    2.42       1.0  T
   3    -73.6098058  0.648286E-05  0.137E-02    2.43       1.1  T
   4    -73.6098133 -0.742108E-05  0.162E-03    2.42       9.6  T
   5    -73.6098133 -0.337783E-07  0.934E-04    2.42      16.7  T
   6    -73.6098133 -0.338520E-08  0.535E-04    2.42      29.2  T
     SCC iter.                  ...        0 min,  0.014 sec
     gradient                   ...        0 min,  0.057 sec
 * total energy  :   -72.6291170 Eh     change       -0.3766513E-04 Eh
   gradient norm :     0.0026196 Eh/α   predicted    -0.2029456E-04 ( -46.12%)
   displ. norm   :     0.0682616 α      lambda       -0.2324420E-04
   maximum displ.:     0.0357924 α      in ANC's #2, #1, #11, ...

........................................................................
.............................. CYCLE   12 ..............................
........................................................................

 iter      E             dE          RMSdq      gap      omega  full diag
   1    -73.6099258 -0.736099E+02  0.183E-02    2.43       0.0  T
   2    -73.6099260 -0.117075E-06  0.108E-02    2.43       1.5  T
   3    -73.6099257  0.294217E-06  0.287E-03    2.43       5.4  T
   4    -73.6099260 -0.343387E-06  0.655E-04    2.43      23.9  T
   5    -73.6099260 -0.111875E-07  0.340E-04    2.43      45.9  T
     SCC iter.                  ...        0 min,  0.012 sec
     gradient                   ...        0 min,  0.024 sec
 * total energy  :   -72.6291370 Eh     change       -0.2001656E-04 Eh
   gradient norm :     0.0020919 Eh/α   predicted    -0.1168186E-04 ( -41.64%)
   displ. norm   :     0.1632867 α      lambda       -0.4719246E-04
   maximum displ.:     0.0885939 α      in ANC's #2, #1, #11, ...

........................................................................
.............................. CYCLE   13 ..............................
........................................................................

 iter      E             dE          RMSdq      gap      omega  full diag
   1    -73.6093812 -0.736094E+02  0.453E-02    2.43       0.0  T
   2    -73.6093819 -0.714288E-06  0.266E-02    2.43       1.0  T
   3    -73.6093808  0.104800E-05  0.553E-03    2.44       2.8  T
   4    -73.6093821 -0.127110E-05  0.152E-03    2.43      10.3  T
   5    -73.6093822 -0.539038E-07  0.901E-04    2.43      17.3  T
   6    -73.6093822 -0.731973E-08  0.580E-04    2.43      26.9  T
     SCC iter.                  ...        0 min,  0.041 sec
     gradient                   ...        0 min,  0.024 sec
 * total energy  :   -72.6291692 Eh     change       -0.3216022E-04 Eh
   gradient norm :     0.0018974 Eh/α   predicted    -0.2422686E-04 ( -24.67%)
   displ. norm   :     0.1590271 α      lambda       -0.2152213E-04
   maximum displ.:     0.0921944 α      in ANC's #2, #1, #11, ...

........................................................................
.............................. CYCLE   14 ..............................
........................................................................

 iter      E             dE          RMSdq      gap      omega  full diag
   1    -73.6096476 -0.736096E+02  0.390E-02    2.44       0.0  T
   2    -73.6096482 -0.579369E-06  0.229E-02    2.45       1.0  T
   3    -73.6096475  0.679553E-06  0.518E-03    2.45       3.0  T
   4    -73.6096484 -0.910904E-06  0.110E-03    2.45      14.2  T
   5    -73.6096484 -0.129803E-07  0.687E-04    2.45      22.7  T
   6    -73.6096485 -0.328092E-08  0.346E-04    2.45      45.2  T
     SCC iter.                  ...        0 min,  0.014 sec
     gradient                   ...        0 min,  0.052 sec
 * total energy  :   -72.6291876 Eh     change       -0.1836701E-04 Eh
   gradient norm :     0.0016209 Eh/α   predicted    -0.1088225E-04 ( -40.75%)
   displ. norm   :     0.1078793 α      lambda       -0.1394537E-04
   maximum displ.:     0.0687411 α      in ANC's #2, #1, #11, ...

........................................................................
.............................. CYCLE   15 ..............................
........................................................................

 iter      E             dE          RMSdq      gap      omega  full diag
   1    -73.6090948 -0.736091E+02  0.299E-02    2.45       0.0  T
   2    -73.6090952 -0.408932E-06  0.177E-02    2.45       1.0  T
   3    -73.6090949  0.317825E-06  0.345E-03    2.45       4.5  T
   4    -73.6090953 -0.432450E-06  0.103E-03    2.45      15.2  T
   5    -73.6090954 -0.184490E-07  0.611E-04    2.45      25.6  T
   6    -73.6090954 -0.385741E-08  0.320E-04    2.45      48.7  T
     SCC iter.                  ...        0 min,  0.014 sec
     gradient                   ...        0 min,  0.024 sec
 * total energy  :   -72.6292007 Eh     change       -0.1310946E-04 Eh
   gradient norm :     0.0022114 Eh/α   predicted    -0.7009973E-05 ( -46.53%)
   displ. norm   :     0.0531513 α      lambda       -0.1543390E-04
   maximum displ.:     0.0323327 α      in ANC's #2, #1, #16, ...

........................................................................
.............................. CYCLE   16 ..............................
........................................................................

 iter      E             dE          RMSdq      gap      omega  full diag
   1    -73.6096698 -0.736097E+02  0.136E-02    2.45       0.0  T
   2    -73.6096699 -0.111187E-06  0.803E-03    2.45       1.9  T
   3    -73.6096698  0.922252E-07  0.188E-03    2.45       8.3  T
   4    -73.6096699 -0.113861E-06  0.557E-04    2.45      28.0  T
   5    -73.6096699 -0.729970E-08  0.267E-04    2.45      58.6  T
     SCC iter.                  ...        0 min,  0.036 sec
     gradient                   ...        0 min,  0.024 sec
 * total energy  :   -72.6292114 Eh     change       -0.1072286E-04 Eh
   gradient norm :     0.0009904 Eh/α   predicted    -0.7742629E-05 ( -27.79%)
   displ. norm   :     0.0947224 α      lambda       -0.8432999E-05
   maximum displ.:     0.0625072 α      in ANC's #2, #1, #16, ...

........................................................................
.............................. CYCLE   17 ..............................
........................................................................

 iter      E             dE          RMSdq      gap      omega  full diag
   1    -73.6098803 -0.736099E+02  0.216E-02    2.46       0.0  T
   2    -73.6098804 -0.179605E-06  0.126E-02    2.46       1.2  T
   3    -73.6098804  0.563782E-07  0.163E-03    2.46       9.6  T
   4    -73.6098805 -0.916277E-07  0.672E-04    2.46      23.3  T
   5    -73.6098805 -0.108762E-07  0.358E-04    2.46      43.6  T
     SCC iter.                  ...        0 min,  0.012 sec
     gradient                   ...        0 min,  0.024 sec
 * total energy  :   -72.6292192 Eh     change       -0.7758374E-05 Eh
   gradient norm :     0.0010170 Eh/α   predicted    -0.4235260E-05 ( -45.41%)
   displ. norm   :     0.0595460 α      lambda       -0.5280698E-05
   maximum displ.:     0.0381858 α      in ANC's #2, #1, #4, ...

........................................................................
.............................. CYCLE   18 ..............................
........................................................................

 iter      E             dE          RMSdq      gap      omega  full diag
   1    -73.6098664 -0.736099E+02  0.140E-02    2.46       0.0  T
   2    -73.6098664 -0.534910E-07  0.826E-03    2.46       1.9  T
   3    -73.6098664  0.567667E-07  0.148E-03    2.46      10.6  T
   4    -73.6098665 -0.732384E-07  0.403E-04    2.46      38.8  T
   5    -73.6098665 -0.269772E-08  0.232E-04    2.46      67.4  T
     SCC iter.                  ...        0 min,  0.012 sec
     gradient                   ...        0 min,  0.025 sec
 * total energy  :   -72.6292260 Eh     change       -0.6840419E-05 Eh
   gradient norm :     0.0007346 Eh/α   predicted    -0.2646573E-05 ( -61.31%)
   displ. norm   :     0.1170546 α      lambda       -0.1089260E-04
   maximum displ.:     0.0692068 α      in ANC's #2, #1, #4, ...

........................................................................
.............................. CYCLE   19 ..............................
........................................................................

 iter      E             dE          RMSdq      gap      omega  full diag
   1    -73.6096465 -0.736096E+02  0.305E-02    2.45       0.0  T
   2    -73.6096466 -0.121416E-06  0.179E-02    2.45       1.0  T
   3    -73.6096463  0.379779E-06  0.361E-03    2.45       4.3  T
   4    -73.6096467 -0.458306E-06  0.682E-04    2.45      22.9  T
   5    -73.6096467 -0.361597E-08  0.445E-04    2.45      35.1  T
     SCC iter.                  ...        0 min,  0.012 sec
     gradient                   ...        0 min,  0.049 sec
 * total energy  :   -72.6292378 Eh     change       -0.1179659E-04 Eh
   gradient norm :     0.0011013 Eh/α   predicted    -0.5479885E-05 ( -53.55%)
   displ. norm   :     0.1261469 α      lambda       -0.7695407E-05
   maximum displ.:     0.0749415 α      in ANC's #1, #2, #4, ...

........................................................................
.............................. CYCLE   20 ..............................
........................................................................

 iter      E             dE          RMSdq      gap      omega  full diag
   1    -73.6096161 -0.736096E+02  0.337E-02    2.45       0.0  T
   2    -73.6096164 -0.361300E-06  0.198E-02    2.45       1.0  T
   3    -73.6096161  0.298080E-06  0.338E-03    2.45       4.6  T
   4    -73.6096165 -0.367085E-06  0.843E-04    2.45      18.5  T
   5    -73.6096165 -0.167790E-07  0.409E-04    2.45      38.2  T
     SCC iter.                  ...        0 min,  0.012 sec
     gradient                   ...        0 min,  0.024 sec
 * total energy  :   -72.6292454 Eh     change       -0.7643481E-05 Eh
   gradient norm :     0.0009058 Eh/α   predicted    -0.3876050E-05 ( -49.29%)
   displ. norm   :     0.0895613 α      lambda       -0.3861667E-05
   maximum displ.:     0.0555759 α      in ANC's #1, #2, #3, ...
 * RMSD in coord.:     0.3387119 α      energy gain  -0.1404977E-01 Eh

generating ANC from exact Hessian ...
Using Lindh-Hessian (1995)
 Shifting diagonal of input Hessian by    9.6307796416567233E-003
 Lowest  eigenvalues of input Hessian
    0.000000    0.000000    0.000000    0.000000    0.000000    0.000000
    0.010000    0.010215    0.010682    0.010722    0.011131    0.012541
    0.012713    0.014128    0.014532    0.015184    0.015762    0.016815
 Highest eigenvalues
    2.017570    2.048247    2.090439    2.191324    2.357542    2.371812


........................................................................
.............................. CYCLE   21 ..............................
........................................................................

 iter      E             dE          RMSdq      gap      omega  full diag
   1    -73.6095832 -0.736096E+02  0.230E-02    2.45       0.0  T
   2    -73.6095833 -0.652509E-07  0.135E-02    2.45       1.2  T
   3    -73.6095832  0.642746E-07  0.175E-03    2.45       8.9  T
   4    -73.6095833 -0.929398E-07  0.400E-04    2.45      39.1  T
   5    -73.6095833 -0.768736E-09  0.231E-04    2.45      67.7  T
     SCC iter.                  ...        0 min,  0.012 sec
     gradient                   ...        0 min,  0.024 sec
 * total energy  :   -72.6292497 Eh     change       -0.4250561E-05 Eh
   gradient norm :     0.0005012 Eh/α   predicted     0.0000000E+00 (-100.00%)
   displ. norm   :     0.0137662 α      lambda       -0.1426986E-05
   maximum displ.:     0.0065679 α      in ANC's #3, #1, #13, ...

   *** GEOMETRY OPTIMIZATION CONVERGED AFTER 21 ITERATIONS ***

------------------------------------------------------------------------
 total energy gain   :        -0.0140540 Eh       -8.8190 kcal/mol
 total RMSD          :         0.3387119 a0        0.1792 Å
 total power (kW/mol):        -1.7570875 (step)  -26.6085 (real)
------------------------------------------------------------------------

 ANCopt (total)                0 d,  0 h,  0 min,  1.387 sec
 optimizer setup                ...        0 min,  0.000 sec (  0.006%)
 model hessian                  ...        0 min,  0.056 sec (  4.058%)
 ANC generation                 ...        0 min,  0.003 sec (  0.206%)
 coordinate transformation      ...        0 min,  0.000 sec (  0.010%)
 single point calculation       ...        0 min,  1.294 sec ( 93.292%)
 optimization log               ...        0 min,  0.030 sec (  2.189%)
 hessian update                 ...        0 min,  0.000 sec (  0.018%)
 rational function              ...        0 min,  0.001 sec (  0.099%)

================
 final structure:
================
41
 xtb: 6.7.1 (edcfbbe)
C            1.29118325386343        1.68488788222263        1.39473882396630
C            0.28587508581109        0.67745026621138        0.95910977239513
C           -1.02967091717642        0.90420379777238        0.67816770312700
C           -1.65741085316436       -0.36595678466351        0.45976533283087
C           -0.66706742642286       -1.34335338818642        0.66107993239768
N            0.53740693756967       -0.69218587046225        0.92696340383603
C            1.75115611372060       -1.35612796561956        1.04032543794143
C            2.94906411278584       -0.62824560116370        0.54454270727737
C            4.16635161322653       -0.80573162513589        1.19690428057598
C            5.31315711273415       -0.20505276287666        0.71615442187938
C            5.24502569397224        0.55331300541176       -0.44383024855080
Cl           6.67380822121836        1.30521196205261       -1.05338618731115
C            4.04694164996803        0.70829574443381       -1.12601186232733
C            2.89947907184344        0.11937869557237       -0.63011843541402
O            1.81876067049512       -2.49157933875533        1.45591841774356
C           -0.95159374729997       -2.69337679176516        0.52937033841802
C           -2.24384213640018       -3.04611896617565        0.21067654343207
C           -3.24749547622443       -2.08345315375880        0.01337549557511
O           -4.47667390563269       -2.59143560688731       -0.29396701208881
C           -5.54033848446658       -1.69553683800903       -0.49542476856091
C           -2.96026250965913       -0.73387862027992        0.13162270152772
C           -1.68322929153739        2.23926684115622        0.55286370680699
C           -1.24505888332629        2.93991901521984       -0.71563500155138
O           -2.16524523651206        3.81851128739943       -1.13284215273112
O           -0.20730112163737        2.76582598799091       -1.29338550224399
H            1.75942920838111        2.17189326157580        0.54067692586876
H            2.06664490448849        1.23038907131888        2.00590719408296
H            0.79145479839835        2.45450198809297        1.98160704768652
H            4.19828307414315       -1.41392287272791        2.08826323040339
H            6.25456823345262       -0.32676134078822        1.22818562440754
H            4.01415956000096        1.28596411814746       -2.03620015706464
H            1.96804954796199        0.23420181047312       -1.16419291070700
H           -0.19175907484485       -3.44145626502818        0.68350619030672
H           -2.52099849023727       -4.08262893072694        0.10641625541166
H           -6.41112699092962       -2.31348166959111       -0.70892551716223
H           -5.35237756561623       -1.03134506314303       -1.34598596738488
H           -5.73563971970931       -1.09404456771961        0.39885462338756
H           -3.70987395622162        0.02447846020094       -0.02766885819777
H           -1.39945590900580        2.89128857442520        1.38501229514256
H           -2.76905239093442        2.15317277717539        0.54771317016973
H           -1.86532477707449        4.27311947661308       -1.93614699530231

 Bond Distances (Angstroems)
 ---------------------------
C1-C2=1.4884         C1-H26=1.0890        C1-H27=1.0869        C1-H28=1.0892        C2-C1=1.4884         C2-C3=1.3642         
C2-N6=1.3929         C3-C2=1.3642         C3-C4=1.4335         C3-C22=1.4917        C4-C3=1.4335         C4-C5=1.4059         
C4-C21=1.3930        C5-C4=1.4059         C5-N6=1.3948         C5-C16=1.3860        N6-C2=1.3929         N6-C5=1.3948         
N6-C7=1.3881         C7-N6=1.3881         C7-C8=1.4868         C7-O15=1.2110        C8-C7=1.4868         C8-C9=1.3924         
C8-C14=1.3933        C9-C8=1.3924         C9-C10=1.3810        C9-H29=1.0796        C10-C9=1.3810        C10-C11=1.3876       
C10-H30=1.0785       C11-C10=1.3876       C11-Cl12=1.7258      C11-C13=1.3874       Cl12-C11=1.7258      C13-C11=1.3874       
C13-C14=1.3818       C13-H31=1.0785       C14-C8=1.3933        C14-C13=1.3818       C14-H32=1.0798       O15-C7=1.2110        
C16-C5=1.3860        C16-C17=1.3769       C16-H33=1.0774       C17-C16=1.3769       C17-C18=1.4046       C17-H34=1.0780       
C18-C17=1.4046       C18-O19=1.3651       C18-C21=1.3849       O19-C18=1.3651       O19-C20=1.4052       C20-O19=1.4052       
C20-H35=1.0889       C20-H36=1.0954       C20-H37=1.0953       C21-C4=1.3930        C21-C18=1.3849       C21-H38=1.0781       
C22-C3=1.4917        C22-C23=1.5139       C22-H39=1.0946       C22-H40=1.0892       C23-C22=1.5139       C23-O24=1.3389       
C23-O25=1.2004       O24-C23=1.3389       O24-H41=0.9705       O25-C23=1.2004       H26-C1=1.0890        H27-C1=1.0869        
H28-C1=1.0892        H29-C9=1.0796        H30-C10=1.0785       H31-C13=1.0785       H32-C14=1.0798       H33-C16=1.0774       
H34-C17=1.0780       H35-C20=1.0889       H36-C20=1.0954       H37-C20=1.0953       H38-C21=1.0781       H39-C22=1.0946       
H40-C22=1.0892       H41-O24=0.9705       
 C  H  Rav=1.0852 sigma=0.0067  Rmin=1.0774  Rmax=1.0954    15
 C  C  Rav=1.4141 sigma=0.0458  Rmin=1.3642  Rmax=1.5139    18
 N  C  Rav=1.3919 sigma=0.0028  Rmin=1.3881  Rmax=1.3948     3
 O  H  Rav=0.9705 sigma=0.0000  Rmin=0.9705  Rmax=0.9705     1
 O  C  Rav=1.3041 sigma=0.0831  Rmin=1.2004  Rmax=1.4052     5
 Cl C  Rav=1.7258 sigma=0.0000  Rmin=1.7258  Rmax=1.7258     1

 selected bond angles (degree)
 --------------------
H26-C1-C2=111.32               H27-C1-C2=111.31               H27-C1-H26=108.74              H28-C1-C2=109.03               
H28-C1-H26=107.69              H28-C1-H27=108.65              C3-C2-C1=126.81                N6-C2-C1=123.39                
N6-C2-C3=109.44                C4-C3-C2=107.84                C22-C3-C2=126.06               C22-C3-C4=126.04               
C5-C4-C3=106.60                C21-C4-C3=132.80               C21-C4-C5=120.59               N6-C5-C4=108.12                
C16-C5-C4=121.26               C16-C5-N6=130.55               C5-N6-C2=107.91                C7-N6-C2=128.78                
C7-N6-C5=123.18                C8-C7-N6=116.30                O15-C7-N6=121.69               O15-C7-C8=121.90               
C9-C8-C7=119.06                C14-C8-C7=121.01               C14-C8-C9=119.64               C10-C9-C8=120.49               
H29-C9-C8=118.98               H29-C9-C10=120.53              C11-C10-C9=119.21              H30-C10-C9=120.70              
H30-C10-C11=120.09             

 selected dihedral angles (degree)
 ---------------------------------
C3-C2-C1-H26=273.00           C3-C2-C1-H27=151.51           C3-C2-C1-H28= 31.66           N6-C2-C1-H26=100.66           
N6-C2-C1-H27=339.17           N6-C2-C1-H28=219.32           C4-C3-C2-C1=186.98            C4-C3-C2-N6=  0.20            
C22-C3-C2-C1=  9.78           C22-C3-C2-N6=183.00           C5-C4-C3-C2=  1.62            C5-C4-C3-C22=178.82           
C21-C4-C3-C2=180.75           C21-C4-C3-C22=357.94          N6-C5-C4-C3=357.18            N6-C5-C4-C21=177.93           
C16-C5-C4-C3=179.79           C16-C5-C4-C21=  0.54          C5-N6-C2-C1=171.53            C5-N6-C2-C3=358.03            
C7-N6-C2-C1=347.49            C7-N6-C2-C3=173.99            C2-N6-C5-C4=  2.98            C2-N6-C5-C16=180.04           
C7-N6-C5-C4=186.74            C7-N6-C5-C16=  3.80           C8-C7-N6-C2=330.08            C8-C7-N6-C5=145.49            
O15-C7-N6-C2=153.78           O15-C7-N6-C5=329.19           C9-C8-C7-N6=145.84            C9-C8-C7-O15=322.13           
C14-C8-C7-N6=319.57           C14-C8-C7-O15=135.86          C10-C9-C8-C7=176.28           C10-C9-C8-C14=  2.46          
H29-C9-C8-C7=355.82           H29-C9-C8-C14=182.00          C11-C10-C9-C8=358.51          C11-C10-C9-H29=178.97         
H30-C10-C9-C8=178.96          H30-C10-C9-H29=359.43         
           -------------------------------------------------
          |                Final Singlepoint                |
           -------------------------------------------------

          ...................................................
          :                      SETUP                      :
          :.................................................:
          :  # basis functions                 122          :
          :  # atomic orbitals                 121          :
          :  # shells                           67          :
          :  # electrons                       128          :
          :  max. iterations                   250          :
          :  Hamiltonian                  GFN2-xTB          :
          :  restarted?                      false          :
          :  GBSA solvation                  false          :
          :  PC potential                    false          :
          :  electronic temp.          300.0000000     K    :
          :  accuracy                    1.0000000          :
          :  -> integral cutoff          0.2500000E+02      :
          :  -> integral neglect         0.1000000E-07      :
          :  -> SCF convergence          0.1000000E-05 Eh   :
          :  -> wf. convergence          0.1000000E-03 e    :
          :  Broyden damping             0.4000000          :
          :  net charge                          0          :
          :  unpaired electrons                  0          :
          ...................................................

 iter      E             dE          RMSdq      gap      omega  full diag
   1    -73.6095833 -0.736096E+02  0.102E-04    2.45       0.0  T
   2    -73.6095833 -0.790550E-10  0.750E-05    2.45     208.2  T
   3    -73.6095833 -0.470948E-10  0.592E-05    2.45     263.8  T

   *** convergence criteria satisfied after 3 iterations ***

         #    Occupation            Energy/Eh            Energy/eV
      -------------------------------------------------------------
         1        2.0000           -1.0617775             -28.8924
       ...           ...                  ...                  ...
        58        2.0000           -0.4252614             -11.5720
        59        2.0000           -0.4241439             -11.5415
        60        2.0000           -0.4207061             -11.4480
        61        2.0000           -0.4081006             -11.1050
        62        2.0000           -0.4059143             -11.0455
        63        2.0000           -0.3737356             -10.1699
        64        2.0000           -0.3721174             -10.1258 (HOMO)
        65                         -0.2821596              -7.6780 (LUMO)
        66                         -0.2484928              -6.7618
        67                         -0.2442740              -6.6470
        68                         -0.2393595              -6.5133
        69                         -0.2210006              -6.0137
       ...                                ...                  ...
       121                          0.7075304              19.2529
      -------------------------------------------------------------
                  HL-Gap            0.0899578 Eh            2.4479 eV
             Fermi-level           -0.3271385 Eh           -8.9019 eV

 SCC (total)                   0 d,  0 h,  0 min,  0.077 sec
 SCC setup                      ...        0 min,  0.000 sec (  0.396%)
 Dispersion                     ...        0 min,  0.000 sec (  0.391%)
 classical contributions        ...        0 min,  0.000 sec (  0.173%)
 integral evaluation            ...        0 min,  0.044 sec ( 57.616%)
 iterations                     ...        0 min,  0.007 sec (  9.254%)
 molecular gradient             ...        0 min,  0.025 sec ( 31.961%)
 printout                       ...        0 min,  0.000 sec (  0.200%)

         :::::::::::::::::::::::::::::::::::::::::::::::::::::
         ::                     SUMMARY                     ::
         :::::::::::::::::::::::::::::::::::::::::::::::::::::
         :: total energy             -72.629249695449 Eh    ::
         :: gradient norm              0.000501816483 Eh/a0 ::
         :: HOMO-LUMO gap              2.447876002800 eV    ::
         ::.................................................::
         :: SCC energy               -73.609312228841 Eh    ::
         :: -> isotropic ES            0.097504479474 Eh    ::
         :: -> anisotropic ES          0.002396688988 Eh    ::
         :: -> anisotropic XC          0.018541560522 Eh    ::
         :: -> dispersion             -0.049492937134 Eh    ::
         :: repulsion energy           0.980062533392 Eh    ::
         :: add. restraining           0.000000000000 Eh    ::
         :: total charge               0.000000000000 e     ::
         :::::::::::::::::::::::::::::::::::::::::::::::::::::

           -------------------------------------------------
          |                Property Printout                |
           -------------------------------------------------

    * Orbital Energies and Occupations

         #    Occupation            Energy/Eh            Energy/eV
      -------------------------------------------------------------
         1        2.0000           -1.0617775             -28.8924
       ...           ...                  ...                  ...
        52        2.0000           -0.4555285             -12.3956
        53        2.0000           -0.4508637             -12.2686
        54        2.0000           -0.4488923             -12.2150
        55        2.0000           -0.4398962             -11.9702
        56        2.0000           -0.4342917             -11.8177
        57        2.0000           -0.4304447             -11.7130
        58        2.0000           -0.4252614             -11.5720
        59        2.0000           -0.4241439             -11.5415
        60        2.0000           -0.4207061             -11.4480
        61        2.0000           -0.4081006             -11.1050
        62        2.0000           -0.4059143             -11.0455
        63        2.0000           -0.3737356             -10.1699
        64        2.0000           -0.3721174             -10.1258 (HOMO)
        65                         -0.2821596              -7.6780 (LUMO)
        66                         -0.2484928              -6.7618
        67                         -0.2442740              -6.6470
        68                         -0.2393595              -6.5133
        69                         -0.2210006              -6.0137
        70                         -0.1907530              -5.1907
        71                         -0.1643310              -4.4717
        72                         -0.1427913              -3.8856
        73                         -0.1149041              -3.1267
        74                         -0.0766019              -2.0844
        75                          0.0004284               0.0117
       ...                                ...                  ...
       121                          0.7075304              19.2529
      -------------------------------------------------------------
                  HL-Gap            0.0899578 Eh            2.4479 eV
             Fermi-level           -0.3271385 Eh           -8.9019 eV

     #   Z          covCN         q      C6AA      α(0)
     1   6 C        3.754    -0.114    22.732     6.799
     2   6 C        3.041     0.044    26.983     8.520
     3   6 C        3.060    -0.028    28.634     8.775
     4   6 C        3.090    -0.016    28.305     8.721
     5   6 C        3.073     0.038    27.065     8.530
     6   7 N        2.815    -0.052    22.239     7.004
     7   6 C        2.763     0.276    22.325     7.738
     8   6 C        2.973    -0.015    28.388     8.740
     9   6 C        2.926    -0.019    28.472     8.751
    10   6 C        2.954    -0.037    28.924     8.821
    11   6 C        2.889     0.104    25.700     8.312
    12  17 Cl       0.968    -0.166   104.357    15.629
    13   6 C        2.954    -0.036    28.906     8.818
    14   6 C        2.923    -0.022    28.548     8.762
    15   8 O        0.858    -0.384    21.366     6.197
    16   6 C        2.909    -0.040    29.005     8.831
    17   6 C        2.927    -0.058    29.433     8.897
    18   6 C        2.867     0.138    24.987     8.194
    19   8 O        1.706    -0.270    18.480     5.804
    20   6 C        3.644     0.039    20.262     6.470
    21   6 C        2.911    -0.076    29.895     8.966
    22   6 C        3.806    -0.087    22.160     6.701
    23   6 C        2.691     0.365    20.813     7.466
    24   8 O        1.660    -0.378    20.418     6.100
    25   8 O        0.856    -0.409    21.865     6.269
    26   1 H        0.925     0.070     2.091     2.261
    27   1 H        0.925     0.047     2.360     2.402
    28   1 H        0.925     0.055     2.264     2.353
    29   1 H        0.926     0.065     2.140     2.288
    30   1 H        0.926     0.063     2.159     2.297
    31   1 H        0.926     0.065     2.136     2.286
    32   1 H        0.926     0.063     2.165     2.301
    33   1 H        0.926     0.067     2.119     2.276
    34   1 H        0.926     0.055     2.263     2.353
    35   1 H        0.925     0.061     2.186     2.312
    36   1 H        0.924     0.038     2.472     2.459
    37   1 H        0.924     0.038     2.471     2.458
    38   1 H        0.926     0.034     2.532     2.488
    39   1 H        0.924     0.076     2.023     2.224
    40   1 H        0.925     0.077     2.015     2.220
    41   1 H        0.804     0.330     0.638     1.255

 Mol. C6AA /au·bohr⁶  :      23513.253571
 Mol. C8AA /au·bohr⁸  :     596969.374085
 Mol. α(0) /au        :        240.046848


Wiberg/Mayer (AO) data.
largest (>0.10) Wiberg bond orders for each atom

 ---------------------------------------------------------------------------
     #   Z sym  total        # sym  WBO       # sym  WBO       # sym  WBO
 ---------------------------------------------------------------------------
     1   6 C    3.994 --     2 C    1.034    27 H    0.977    28 H    0.971
                            26 H    0.960
     2   6 C    3.951 --     3 C    1.587     6 N    1.113     1 C    1.034
     3   6 C    3.971 --     2 C    1.587     4 C    1.167    22 C    1.013
     4   6 C    3.985 --    21 C    1.339     5 C    1.279     3 C    1.167
     5   6 C    3.951 --    16 C    1.360     4 C    1.279     6 N    1.079
     6   7 N    3.605 --     2 C    1.113     7 C    1.099     5 C    1.079
                            15 O    0.118
     7   6 C    3.940 --    15 O    1.737     6 N    1.099     8 C    0.997
     8   6 C    3.987 --     9 C    1.387    14 C    1.382     7 C    0.997
     9   6 C    3.985 --    10 C    1.454     8 C    1.387    29 H    0.966
                            13 C    0.104
    10   6 C    3.988 --     9 C    1.454    11 C    1.396    30 H    0.966
                            14 C    0.105
    11   6 C    3.917 --    13 C    1.396    10 C    1.396    12 Cl   0.983
    12  17 Cl   1.121 --    11 C    0.983
    13   6 C    3.988 --    14 C    1.453    11 C    1.396    31 H    0.966
                             9 C    0.104
    14   6 C    3.988 --    13 C    1.453     8 C    1.382    32 H    0.965
                            10 C    0.105
    15   8 O    2.050 --     7 C    1.737     6 N    0.118
    16   6 C    3.987 --    17 C    1.491     5 C    1.360    33 H    0.962
    17   6 C    3.983 --    16 C    1.491    18 C    1.313    34 H    0.968
    18   6 C    3.933 --    21 C    1.417    17 C    1.313    19 O    1.055
    19   8 O    2.221 --    18 C    1.055    20 C    0.988
    20   6 C    3.949 --    19 O    0.988    35 H    0.980    37 H    0.976
                            36 H    0.976
    21   6 C    3.980 --    18 C    1.417     4 C    1.339    38 H    0.963
    22   6 C    3.993 --     3 C    1.013    23 C    0.962    40 H    0.962
                            39 H    0.932
    23   6 C    3.909 --    25 O    1.769    24 O    1.131    22 C    0.962
    24   8 O    2.197 --    23 C    1.131    41 H    0.866    25 O    0.172
    25   8 O    2.043 --    23 C    1.769    24 O    0.172
    26   1 H    0.991 --     1 C    0.960
    27   1 H    0.997 --     1 C    0.977
    28   1 H    0.996 --     1 C    0.971
    29   1 H    0.996 --     9 C    0.966
    30   1 H    0.995 --    10 C    0.966
    31   1 H    0.995 --    13 C    0.966
    32   1 H    0.996 --    14 C    0.965
    33   1 H    0.994 --    16 C    0.962
    34   1 H    0.997 --    17 C    0.968
    35   1 H    0.996 --    20 C    0.980
    36   1 H    0.998 --    20 C    0.976
    37   1 H    0.998 --    20 C    0.976
    38   1 H    0.998 --    21 C    0.963
    39   1 H    0.993 --    22 C    0.932
    40   1 H    0.994 --    22 C    0.962
    41   1 H    0.891 --    24 O    0.866
 ---------------------------------------------------------------------------

Topologies differ in total number of bonds
Writing topology from bond orders to xtbtopo.mol

molecular dipole:
                 x           y           z       tot (Debye)
 q only:       -1.155       1.262       0.155
   full:       -1.013       1.782      -0.075       5.212
molecular quadrupole (traceless):
                xx          xy          yy          xz          yz          zz
 q only:        0.014      -7.764      -2.405       7.737       4.475       2.390
  q+dip:        5.200      -6.927      -5.787       8.316       2.287       0.587
   full:        3.342      -6.946      -5.803       7.166       4.313       2.461

           -------------------------------------------------
          |                Geometry Summary                 |
           -------------------------------------------------

      molecular mass/u    :      357.7882946
   center of mass at/Å    :        0.6579720       0.0056498       0.0765264
  moments of inertia/u·Å² :        0.1471842E+04   0.4531935E+04   0.5572443E+04
rotational constants/cm⁻¹ :        0.1145342E-01   0.3719743E-02   0.3025178E-02

 * 41 selected distances

     #   Z          #   Z                                           value/Å
     1   6 C        2   6 C                                       1.4884046
     2   6 C        3   6 C                                       1.3641874
     3   6 C        4   6 C                                       1.4335499
     4   6 C        5   6 C                                       1.4059204
     2   6 C        6   7 N                                       1.3929125
     5   6 C        6   7 N                                       1.3948018
     6   7 N        7   6 C                                       1.3881129
     8   6 C        9   6 C                                       1.3924317
     9   6 C       10   6 C                                       1.3809775
    10   6 C       11   6 C                                       1.3875609
    11   6 C       12  17 Cl                                      1.7257840 (max)
    11   6 C       13   6 C                                       1.3873706
     8   6 C       14   6 C                                       1.3932803
    13   6 C       14   6 C                                       1.3818120
     7   6 C       15   8 O                                       1.2110070
     5   6 C       16   6 C                                       1.3859532
    16   6 C       17   6 C                                       1.3769165
    17   6 C       18   6 C                                       1.4046258
    18   6 C       19   8 O                                       1.3650588
    19   8 O       20   6 C                                       1.4052055
     4   6 C       21   6 C                                       1.3930064
    18   6 C       21   6 C                                       1.3848599
     3   6 C       22   6 C                                       1.4917216
    23   6 C       24   8 O                                       1.3389285
    23   6 C       25   8 O                                       1.2004355
     1   6 C       26   1 H                                       1.0889676
     1   6 C       27   1 H                                       1.0869393
     1   6 C       28   1 H                                       1.0892424
     9   6 C       29   1 H                                       1.0795542
    10   6 C       30   1 H                                       1.0785379
    13   6 C       31   1 H                                       1.0785260
    14   6 C       32   1 H                                       1.0798060
    16   6 C       33   1 H                                       1.0773717
    17   6 C       34   1 H                                       1.0779791
    20   6 C       35   1 H                                       1.0889037
    20   6 C       36   1 H                                       1.0954153
    20   6 C       37   1 H                                       1.0952951
    21   6 C       38   1 H                                       1.0781451
    22   6 C       39   1 H                                       1.0945918
    22   6 C       40   1 H                                       1.0892432
    24   8 O       41   1 H                                       0.9705255 (min)

 * 6 distinct bonds (by element types)

   Z      Z             #   av. dist./Å        max./Å        min./Å
   1 H    6 C          15     1.0852346     1.0954153     1.0773717
   6 C    6 C          16     1.4032862     1.4917216     1.3641874
   6 C    7 N           3     1.3919424     1.3948018     1.3881129
   1 H    8 O           1     0.9705255     0.9705255     0.9705255
   6 C    8 O           5     1.3041271     1.4052055     1.2004355
   6 C   17 Cl          1     1.7257840     1.7257840     1.7257840


optimized geometry written to: xtbopt.xyz


           -------------------------------------------------
          | TOTAL ENERGY              -72.629249695449 Eh   |
          | GRADIENT NORM               0.000501816483 Eh/α |
          | HOMO-LUMO GAP               2.447876002800 eV   |
           -------------------------------------------------

------------------------------------------------------------------------
 * finished run on 2025/05/15 at 16:27:17.424     
------------------------------------------------------------------------
 total:
 * wall-time:     0 d,  0 h,  0 min,  1.550 sec
 *  cpu-time:     0 d,  0 h,  0 min,  1.148 sec
 * ratio c/w:     0.740 speedup
 SCF:
 * wall-time:     0 d,  0 h,  0 min,  0.069 sec
 *  cpu-time:     0 d,  0 h,  0 min,  0.069 sec
 * ratio c/w:     0.994 speedup
 ANC optimizer:
 * wall-time:     0 d,  0 h,  0 min,  1.467 sec
 *  cpu-time:     0 d,  0 h,  0 min,  1.066 sec
 * ratio c/w:     0.727 speedup



----- Single-point -----
      -----------------------------------------------------------      
     |                   =====================                   |     
     |                           x T B                           |     
     |                   =====================                   |     
     |                         S. Grimme                         |     
     |          Mulliken Center for Theoretical Chemistry        |     
     |                    University of Bonn                     |     
      -----------------------------------------------------------      

   * xtb version 6.7.1 (edcfbbe) compiled by 'conda@3ef47c1a292c' on 2024-11-25

   xtb is free software: you can redistribute it and/or modify it under
   the terms of the GNU Lesser General Public License as published by
   the Free Software Foundation, either version 3 of the License, or
   (at your option) any later version.
   
   xtb is distributed in the hope that it will be useful,
   but WITHOUT ANY WARRANTY; without even the implied warranty of
   MERCHANTABILITY or FITNESS FOR A PARTICULAR PURPOSE.  See the
   GNU Lesser General Public License for more details.
   
   Cite this work as:
   * C. Bannwarth, E. Caldeweyher, S. Ehlert, A. Hansen, P. Pracht,
     J. Seibert, S. Spicher, S. Grimme, WIREs Comput. Mol. Sci., 2020, 11,
     e01493. DOI: 10.1002/wcms.1493
   
   for GFN2-xTB:
   * C. Bannwarth, S. Ehlert and S. Grimme., J. Chem. Theory Comput., 2019,
     15, 1652-1671. DOI: 10.1021/acs.jctc.8b01176
   for GFN1-xTB:
   * S. Grimme, C. Bannwarth, P. Shushkov, J. Chem. Theory Comput., 2017,
     13, 1989-2009. DOI: 10.1021/acs.jctc.7b00118
   for GFN0-xTB:
   * P. Pracht, E. Caldeweyher, S. Ehlert, S. Grimme, ChemRxiv, 2019, preprint.
     DOI: 10.26434/chemrxiv.8326202.v1
   for GFN-FF:
   * S. Spicher and S. Grimme, Angew. Chem. Int. Ed., 2020, 59, 15665-15673.
     DOI: 10.1002/anie.202004239
   
   for ALPB and GBSA implicit solvation:
   * S. Ehlert, M. Stahn, S. Spicher, S. Grimme, J. Chem. Theory Comput.,
     2021, 17, 4250-4261. DOI: 10.1021/acs.jctc.1c00471
   
   for ddCOSMO and CPCM-X implicit solvation:
   * M. Stahn, S. Ehlert, S. Grimme, J. Phys. Chem. A,
     2023, XX, XXXX-XXXX. DOI: 10.1021/acs.jpca.3c04382
   
   for DFT-D4:
   * E. Caldeweyher, C. Bannwarth and S. Grimme, J. Chem. Phys., 2017,
     147, 034112. DOI: 10.1063/1.4993215
   * E. Caldeweyher, S. Ehlert, A. Hansen, H. Neugebauer, S. Spicher,
     C. Bannwarth and S. Grimme, J. Chem. Phys., 2019, 150, 154122.
     DOI: 10.1063/1.5090222
   * E. Caldeweyher, J.-M. Mewes, S. Ehlert and S. Grimme, Phys. Chem. Chem. Phys.
     2020, 22, 8499-8512. DOI: 10.1039/D0CP00502A
   
   for sTDA-xTB:
   * S. Grimme and C. Bannwarth, J. Chem. Phys., 2016, 145, 054103.
     DOI: 10.1063/1.4959605
   
   in the mass-spec context:
   * V. Asgeirsson, C. Bauer and S. Grimme, Chem. Sci., 2017, 8, 4879.
     DOI: 10.1039/c7sc00601b
   * J. Koopman and S. Grimme, ACS Omega 2019, 4, 12, 15120-15133.
     DOI: 10.1021/acsomega.9b02011
   
   for metadynamics refer to:
   * S. Grimme, J. Chem. Theory Comput., 2019, 155, 2847-2862
     DOI: 10.1021/acs.jctc.9b00143
   
   for SPH calculations refer to:
   * S. Spicher and S. Grimme, J. Chem. Theory Comput., 2021, 17, 1701-1714
     DOI: 10.1021/acs.jctc.0c01306
   
   for ONIOM refer to:
   * C. Plett, A. Katbashev, S. Ehlert, S. Grimme, M. Bursch,
     Phys. Chem. Chem. Phys., 2023, 25, 17860-17868. DOI: 10.1039/D3CP02178E
   
   for DIPRO refer to:
   * J. Kohn, N. Gildemeister, S. Grimme, D. Fazzi, A. Hansen,
     J. Chem. Phys., 2023, just accepted.
   
   for PTB refer to:
   * S. Grimme, M. Mueller, A. Hansen, J. Chem. Phys., 2023, 158, 124111.
     DOI: 10.1063/5.0137838
   
   with help from (in alphabetical order)
   P. Atkinson, C. Bannwarth, F. Bohle, G. Brandenburg, E. Caldeweyher
   M. Checinski, S. Dohm, S. Ehlert, S. Ehrlich, I. Gerasimov, C. Hölzer
   A. Katbashev, J. Kohn, J. Koopman, C. Lavigne, S. Lehtola, F. März, M. Müller,
   F. Musil, H. Neugebauer, J. Pisarek, C. Plett, P. Pracht, F. Pultar,
   J. Seibert, P. Shushkov, S. Spicher, M. Stahn, M. Steiner, T. Strunk,
   J. Stückrath, T. Rose, and J. Unsleber
   
 * started run on 2025/05/15 at 16:27:17.440     
   ID    Z sym.   atoms
    1    6 C      1-5, 7-11, 13, 14, 16-18, 20-23
    2    7 N      6
    3   17 Cl     12
    4    8 O      15, 19, 24, 25
    5    1 H      26-41

           -------------------------------------------------
          |                Calculation Setup                |
           -------------------------------------------------

          program call               : xtb /rds/general/user/hgt20/home/callum/QDESCP/Indomethacin_rdkit_conf_8/Indomethacin_rdkit_conf_8.xyz --acc 1 --gfn 2 --chrg 0 --uhf 0 --etemp 300 --input /rds/general/user/hgt20/home/callum/QDESCP/Indomethacin_rdkit_conf_8/Indomethacin_rdkit_conf_8_xtb.inp -P 1
          hostname                   : login-c
          coordinate file            : /rds/general/user/hgt20/home/callum/QDESCP/Indomethacin_rdkit_conf_8/Indomethacin_rdkit_conf_8.xyz
          omp threads                :                     1


           -------------------------------------------------
          |                 G F N 2 - x T B                 |
           -------------------------------------------------

        Reference                      10.1021/acs.jctc.8b01176
      * Hamiltonian:
        H0-scaling (s, p, d)           1.850000    2.230000    2.230000
        zeta-weighting                 0.500000
      * Dispersion:
        s8                             2.700000
        a1                             0.520000
        a2                             5.000000
        s9                             5.000000
      * Repulsion:
        kExp                           1.500000    1.000000
        rExp                           1.000000
      * Coulomb:
        alpha                          2.000000
        third order                    shell-resolved
        anisotropic                    true
        a3                             3.000000
        a5                             4.000000
        cn-shift                       1.200000
        cn-exp                         4.000000
        max-rad                        5.000000

q/qsh data taken from xtbrestart
CAMM data taken from xtbrestart

          ...................................................
          :                      SETUP                      :
          :.................................................:
          :  # basis functions                 122          :
          :  # atomic orbitals                 121          :
          :  # shells                           67          :
          :  # electrons                       128          :
          :  max. iterations                   250          :
          :  Hamiltonian                  GFN2-xTB          :
          :  restarted?                       true          :
          :  GBSA solvation                  false          :
          :  PC potential                    false          :
          :  electronic temp.          300.0000000     K    :
          :  accuracy                    1.0000000          :
          :  -> integral cutoff          0.2500000E+02      :
          :  -> integral neglect         0.1000000E-07      :
          :  -> SCF convergence          0.1000000E-05 Eh   :
          :  -> wf. convergence          0.1000000E-03 e    :
          :  Broyden damping             0.4000000          :
          :  net charge                          0          :
          :  unpaired electrons                  0          :
          ...................................................

 iter      E             dE          RMSdq      gap      omega  full diag
   1    -73.6095833 -0.736096E+02  0.300E-05    2.45       0.0  T
   2    -73.6095833 -0.552802E-11  0.254E-05    2.45     615.3  T
   3    -73.6095833 -0.873968E-11  0.196E-05    2.45     795.4  T

   *** convergence criteria satisfied after 3 iterations ***

         #    Occupation            Energy/Eh            Energy/eV
      -------------------------------------------------------------
         1        2.0000           -1.0617774             -28.8924
       ...           ...                  ...                  ...
        58        2.0000           -0.4252614             -11.5720
        59        2.0000           -0.4241438             -11.5415
        60        2.0000           -0.4207061             -11.4480
        61        2.0000           -0.4081007             -11.1050
        62        2.0000           -0.4059145             -11.0455
        63        2.0000           -0.3737357             -10.1699
        64        2.0000           -0.3721174             -10.1258 (HOMO)
        65                         -0.2821597              -7.6780 (LUMO)
        66                         -0.2484930              -6.7618
        67                         -0.2442741              -6.6470
        68                         -0.2393596              -6.5133
        69                         -0.2210006              -6.0137
       ...                                ...                  ...
       121                          0.7075304              19.2529
      -------------------------------------------------------------
                  HL-Gap            0.0899576 Eh            2.4479 eV
             Fermi-level           -0.3271385 Eh           -8.9019 eV

 SCC (total)                   0 d,  0 h,  0 min,  0.070 sec
 SCC setup                      ...        0 min,  0.000 sec (  0.565%)
 Dispersion                     ...        0 min,  0.000 sec (  0.706%)
 classical contributions        ...        0 min,  0.000 sec (  0.208%)
 integral evaluation            ...        0 min,  0.035 sec ( 49.586%)
 iterations                     ...        0 min,  0.009 sec ( 12.125%)
 molecular gradient             ...        0 min,  0.026 sec ( 36.483%)
 printout                       ...        0 min,  0.000 sec (  0.316%)

         :::::::::::::::::::::::::::::::::::::::::::::::::::::
         ::                     SUMMARY                     ::
         :::::::::::::::::::::::::::::::::::::::::::::::::::::
         :: total energy             -72.629249695497 Eh    ::
         :: gradient norm              0.000501634219 Eh/a0 ::
         :: HOMO-LUMO gap              2.447871899020 eV    ::
         ::.................................................::
         :: SCC energy               -73.609312228889 Eh    ::
         :: -> isotropic ES            0.097504573919 Eh    ::
         :: -> anisotropic ES          0.002396723239 Eh    ::
         :: -> anisotropic XC          0.018541573274 Eh    ::
         :: -> dispersion             -0.049492941784 Eh    ::
         :: repulsion energy           0.980062533392 Eh    ::
         :: add. restraining           0.000000000000 Eh    ::
         :: total charge               0.000000000000 e     ::
         :::::::::::::::::::::::::::::::::::::::::::::::::::::

           -------------------------------------------------
          |                Property Printout                |
           -------------------------------------------------

    * Orbital Energies and Occupations

         #    Occupation            Energy/Eh            Energy/eV
      -------------------------------------------------------------
         1        2.0000           -1.0617774             -28.8924
       ...           ...                  ...                  ...
        52        2.0000           -0.4555286             -12.3956
        53        2.0000           -0.4508638             -12.2686
        54        2.0000           -0.4488923             -12.2150
        55        2.0000           -0.4398964             -11.9702
        56        2.0000           -0.4342918             -11.8177
        57        2.0000           -0.4304448             -11.7130
        58        2.0000           -0.4252614             -11.5720
        59        2.0000           -0.4241438             -11.5415
        60        2.0000           -0.4207061             -11.4480
        61        2.0000           -0.4081007             -11.1050
        62        2.0000           -0.4059145             -11.0455
        63        2.0000           -0.3737357             -10.1699
        64        2.0000           -0.3721174             -10.1258 (HOMO)
        65                         -0.2821597              -7.6780 (LUMO)
        66                         -0.2484930              -6.7618
        67                         -0.2442741              -6.6470
        68                         -0.2393596              -6.5133
        69                         -0.2210006              -6.0137
        70                         -0.1907530              -5.1907
        71                         -0.1643312              -4.4717
        72                         -0.1427914              -3.8856
        73                         -0.1149042              -3.1267
        74                         -0.0766019              -2.0844
        75                          0.0004282               0.0117
       ...                                ...                  ...
       121                          0.7075304              19.2529
      -------------------------------------------------------------
                  HL-Gap            0.0899576 Eh            2.4479 eV
             Fermi-level           -0.3271385 Eh           -8.9019 eV

     #   Z          covCN         q      C6AA      α(0)
     1   6 C        3.754    -0.114    22.732     6.799
     2   6 C        3.041     0.044    26.983     8.520
     3   6 C        3.060    -0.028    28.634     8.775
     4   6 C        3.090    -0.016    28.305     8.721
     5   6 C        3.073     0.038    27.065     8.530
     6   7 N        2.815    -0.052    22.239     7.004
     7   6 C        2.763     0.276    22.325     7.738
     8   6 C        2.973    -0.015    28.388     8.740
     9   6 C        2.926    -0.019    28.472     8.751
    10   6 C        2.954    -0.037    28.924     8.821
    11   6 C        2.889     0.104    25.700     8.312
    12  17 Cl       0.968    -0.166   104.357    15.629
    13   6 C        2.954    -0.036    28.906     8.818
    14   6 C        2.923    -0.022    28.548     8.762
    15   8 O        0.858    -0.384    21.366     6.197
[...]
     DOI: 10.1002/anie.202004239
   
   for ALPB and GBSA implicit solvation:
   * S. Ehlert, M. Stahn, S. Spicher, S. Grimme, J. Chem. Theory Comput.,
     2021, 17, 4250-4261. DOI: 10.1021/acs.jctc.1c00471
   
   for ddCOSMO and CPCM-X implicit solvation:
   * M. Stahn, S. Ehlert, S. Grimme, J. Phys. Chem. A,
     2023, XX, XXXX-XXXX. DOI: 10.1021/acs.jpca.3c04382
   
   for DFT-D4:
   * E. Caldeweyher, C. Bannwarth and S. Grimme, J. Chem. Phys., 2017,
     147, 034112. DOI: 10.1063/1.4993215
   * E. Caldeweyher, S. Ehlert, A. Hansen, H. Neugebauer, S. Spicher,
     C. Bannwarth and S. Grimme, J. Chem. Phys., 2019, 150, 154122.
     DOI: 10.1063/1.5090222
   * E. Caldeweyher, J.-M. Mewes, S. Ehlert and S. Grimme, Phys. Chem. Chem. Phys.
     2020, 22, 8499-8512. DOI: 10.1039/D0CP00502A
   
   for sTDA-xTB:
   * S. Grimme and C. Bannwarth, J. Chem. Phys., 2016, 145, 054103.
     DOI: 10.1063/1.4959605
   
   in the mass-spec context:
   * V. Asgeirsson, C. Bauer and S. Grimme, Chem. Sci., 2017, 8, 4879.
     DOI: 10.1039/c7sc00601b
   * J. Koopman and S. Grimme, ACS Omega 2019, 4, 12, 15120-15133.
     DOI: 10.1021/acsomega.9b02011
   
   for metadynamics refer to:
   * S. Grimme, J. Chem. Theory Comput., 2019, 155, 2847-2862
     DOI: 10.1021/acs.jctc.9b00143
   
   for SPH calculations refer to:
   * S. Spicher and S. Grimme, J. Chem. Theory Comput., 2021, 17, 1701-1714
     DOI: 10.1021/acs.jctc.0c01306
   
   for ONIOM refer to:
   * C. Plett, A. Katbashev, S. Ehlert, S. Grimme, M. Bursch,
     Phys. Chem. Chem. Phys., 2023, 25, 17860-17868. DOI: 10.1039/D3CP02178E
   
   for DIPRO refer to:
   * J. Kohn, N. Gildemeister, S. Grimme, D. Fazzi, A. Hansen,
     J. Chem. Phys., 2023, just accepted.
   
   for PTB refer to:
   * S. Grimme, M. Mueller, A. Hansen, J. Chem. Phys., 2023, 158, 124111.
     DOI: 10.1063/5.0137838
   
   with help from (in alphabetical order)
   P. Atkinson, C. Bannwarth, F. Bohle, G. Brandenburg, E. Caldeweyher
   M. Checinski, S. Dohm, S. Ehlert, S. Ehrlich, I. Gerasimov, C. Hölzer
   A. Katbashev, J. Kohn, J. Koopman, C. Lavigne, S. Lehtola, F. März, M. Müller,
   F. Musil, H. Neugebauer, J. Pisarek, C. Plett, P. Pracht, F. Pultar,
   J. Seibert, P. Shushkov, S. Spicher, M. Stahn, M. Steiner, T. Strunk,
   J. Stückrath, T. Rose, and J. Unsleber
   
 * started run on 2025/05/15 at 16:27:19.629     
   ID    Z sym.   atoms
    1    6 C      1-5, 7-11, 13, 14, 16-18, 20-23
    2    7 N      6
    3   17 Cl     12
    4    8 O      15, 19, 24, 25
    5    1 H      26-41

           -------------------------------------------------
          |                Calculation Setup                |
           -------------------------------------------------

          program call               : xtb /rds/general/user/hgt20/home/callum/QDESCP/Indomethacin_rdkit_conf_8/Indomethacin_rdkit_conf_8.xyz --acc 1 --gfn 2 --chrg 0 --uhf 2 --etemp 300 --input /rds/general/user/hgt20/home/callum/QDESCP/Indomethacin_rdkit_conf_8/Indomethacin_rdkit_conf_8_xtb.inp -P 1
          hostname                   : login-c
          coordinate file            : /rds/general/user/hgt20/home/callum/QDESCP/Indomethacin_rdkit_conf_8/Indomethacin_rdkit_conf_8.xyz
          omp threads                :                     1


           -------------------------------------------------
          |                 G F N 2 - x T B                 |
           -------------------------------------------------

        Reference                      10.1021/acs.jctc.8b01176
      * Hamiltonian:
        H0-scaling (s, p, d)           1.850000    2.230000    2.230000
        zeta-weighting                 0.500000
      * Dispersion:
        s8                             2.700000
        a1                             0.520000
        a2                             5.000000
        s9                             5.000000
      * Repulsion:
        kExp                           1.500000    1.000000
        rExp                           1.000000
      * Coulomb:
        alpha                          2.000000
        third order                    shell-resolved
        anisotropic                    true
        a3                             3.000000
        a5                             4.000000
        cn-shift                       1.200000
        cn-exp                         4.000000
        max-rad                        5.000000


          ...................................................
          :                      SETUP                      :
          :.................................................:
          :  # basis functions                 122          :
          :  # atomic orbitals                 121          :
          :  # shells                           67          :
          :  # electrons                       128          :
          :  max. iterations                   250          :
          :  Hamiltonian                  GFN2-xTB          :
          :  restarted?                      false          :
          :  GBSA solvation                  false          :
          :  PC potential                    false          :
          :  electronic temp.          300.0000000     K    :
          :  accuracy                    1.0000000          :
          :  -> integral cutoff          0.2500000E+02      :
          :  -> integral neglect         0.1000000E-07      :
          :  -> SCF convergence          0.1000000E-05 Eh   :
          :  -> wf. convergence          0.1000000E-03 e    :
          :  Broyden damping             0.4000000          :
          :  net charge                          0          :
          :  unpaired electrons                  2          :
          ...................................................

 iter      E             dE          RMSdq      gap      omega  full diag
   1    -73.3442395 -0.733442E+02  0.446E+00    0.70       0.0  T
   2    -73.2680457  0.761938E-01  0.278E+00    0.45       1.0  T
   3    -73.2499482  0.180976E-01  0.268E+00    1.18       1.0  T
   4    -73.4031629 -0.153215E+00  0.153E+00    0.92       1.0  T
   5    -73.4209295 -0.177666E-01  0.125E+00    0.40       1.0  T
   6    -73.4690016 -0.480721E-01  0.720E-01    0.49       1.0  T
   7    -73.4739212 -0.491968E-02  0.648E-01    0.48       1.0  T
   8    -73.4865446 -0.126234E-01  0.416E-01    0.39       1.0  T
   9    -73.4804281  0.611650E-02  0.566E-01    0.49       1.0  T
  10    -73.4872896 -0.686144E-02  0.426E-01    0.47       1.0  T
  11    -73.4970644 -0.977484E-02  0.165E-01    0.42       1.0  T
  12    -73.4987349 -0.167044E-02  0.572E-02    0.40       1.0  T
  13    -73.4988575 -0.122611E-03  0.313E-02    0.41       1.0  T
  14    -73.4988668 -0.933003E-05  0.175E-02    0.41       1.0  T
  15    -73.4988769 -0.100783E-04  0.830E-03    0.41       1.9  T
  16    -73.4988791 -0.223650E-05  0.537E-03    0.41       2.9  T
  17    -73.4988798 -0.696051E-06  0.412E-03    0.41       3.8  T
  18    -73.4988810 -0.118749E-05  0.121E-03    0.41      12.9  T
  19    -73.4988809  0.137339E-06  0.160E-03    0.41       9.7  T
  20    -73.4988810 -0.178243E-06  0.631E-04    0.41      24.8  T
  21    -73.4988810  0.784931E-07  0.113E-03    0.41      13.8  T
  22    -73.4988810 -0.905897E-07  0.457E-04    0.41      34.1  T

   *** convergence criteria satisfied after 22 iterations ***

         #    Occupation            Energy/Eh            Energy/eV
      -------------------------------------------------------------
         1        2.0000           -1.0491249             -28.5481
       ...           ...                  ...                  ...
        59        2.0000           -0.4098686             -11.1531
        60        2.0000           -0.4089165             -11.1272
        61        1.9990           -0.3921557             -10.6711
        62        1.9792           -0.3892620             -10.5924
        63        1.7397           -0.3865955             -10.5198
        64        1.2821           -0.3847157             -10.4686
        65        0.9996           -0.2661899              -7.2434 (HOMO)
        66        0.0004           -0.2510823              -6.8323 (LUMO)
        67        0.0000           -0.2463364              -6.7032
        68                         -0.2271667              -6.1815
        69                         -0.2202461              -5.9932
        70                         -0.1955641              -5.3216
       ...                                ...                  ...
       121                          0.6999308              19.0461
      -------------------------------------------------------------
                  HL-Gap            0.0151076 Eh            0.4111 eV
             Fermi-level           -0.3221213 Eh           -8.7654 eV

 transition dipole moment (au) for excitation:          64          65
     X       Y       Z   
  -1.7108  -0.0359  -0.1623  total (au/Debye):    1.719   4.369
 dE (eV)             :    3.225
 oscillator strength :  0.33013E+00

 SCC (total)                   0 d,  0 h,  0 min,  0.170 sec
 SCC setup                      ...        0 min,  0.000 sec (  0.215%)
 Dispersion                     ...        0 min,  0.001 sec (  0.294%)
 classical contributions        ...        0 min,  0.000 sec (  0.082%)
 integral evaluation            ...        0 min,  0.044 sec ( 25.696%)
 iterations                     ...        0 min,  0.054 sec ( 31.559%)
 molecular gradient             ...        0 min,  0.064 sec ( 37.383%)
 printout                       ...        0 min,  0.008 sec (  4.767%)

         :::::::::::::::::::::::::::::::::::::::::::::::::::::
         ::                     SUMMARY                     ::
         :::::::::::::::::::::::::::::::::::::::::::::::::::::
         :: total energy             -72.518547457876 Eh    ::
         :: gradient norm              0.109224996060 Eh/a0 ::
         :: HOMO-LUMO gap              0.411098758749 eV    ::
         ::.................................................::
         :: SCC energy               -73.498609991269 Eh    ::
         :: -> isotropic ES            0.097595580740 Eh    ::
         :: -> anisotropic ES          0.002458823665 Eh    ::
         :: -> anisotropic XC          0.017617486414 Eh    ::
         :: -> dispersion             -0.049452262978 Eh    ::
         :: repulsion energy           0.980062533392 Eh    ::
         :: add. restraining           0.000000000000 Eh    ::
         :: total charge               0.000000000076 e     ::
         :::::::::::::::::::::::::::::::::::::::::::::::::::::

           -------------------------------------------------
          |                Property Printout                |
           -------------------------------------------------

    * Orbital Energies and Occupations

         #    Occupation            Energy/Eh            Energy/eV
      -------------------------------------------------------------
         1        2.0000           -1.0491249             -28.5481
       ...           ...                  ...                  ...
        53        2.0000           -0.4476459             -12.1811
        54        2.0000           -0.4449573             -12.1079
        55        2.0000           -0.4394447             -11.9579
        56        2.0000           -0.4359751             -11.8635
        57        2.0000           -0.4336884             -11.8013
        58        2.0000           -0.4324183             -11.7667
        59        2.0000           -0.4098686             -11.1531
        60        2.0000           -0.4089165             -11.1272
        61        1.9990           -0.3921557             -10.6711
        62        1.9792           -0.3892620             -10.5924
        63        1.7397           -0.3865955             -10.5198
        64        1.2821           -0.3847157             -10.4686
        65        0.9996           -0.2661899              -7.2434 (HOMO)
        66        0.0004           -0.2510823              -6.8323 (LUMO)
        67        0.0000           -0.2463364              -6.7032
        68                         -0.2271667              -6.1815
        69                         -0.2202461              -5.9932
        70                         -0.1955641              -5.3216
        71                         -0.1662175              -4.5230
        72                         -0.1274330              -3.4676
        73                         -0.0960696              -2.6142
        74                         -0.0896098              -2.4384
        75                         -0.0014499              -0.0395
        76                          0.0161398               0.4392
       ...                                ...                  ...
       121                          0.6999308              19.0461
      -------------------------------------------------------------
                  HL-Gap            0.0151076 Eh            0.4111 eV
             Fermi-level           -0.3221213 Eh           -8.7654 eV

     #   Z          covCN         q      C6AA      α(0)
     1   6 C        3.754    -0.115    22.761     6.803
     2   6 C        3.041     0.044    26.966     8.517
     3   6 C        3.060    -0.011    28.230     8.713
     4   6 C        3.090    -0.022    28.454     8.743
     5   6 C        3.073     0.050    26.802     8.488
     6   7 N        2.815    -0.030    21.820     6.938
     7   6 C        2.763     0.231    23.163     7.882
     8   6 C        2.973    -0.020    28.492     8.756
     9   6 C        2.926    -0.029    28.727     8.790
    10   6 C        2.954    -0.041    29.015     8.835
    11   6 C        2.889     0.087    26.060     8.370
    12  17 Cl       0.968    -0.173   104.580    15.645
    13   6 C        2.954    -0.039    28.969     8.828
    14   6 C        2.923    -0.036    28.893     8.815
    15   8 O        0.858    -0.414    21.967     6.284
    16   6 C        2.909    -0.030    28.740     8.791
    17   6 C        2.927    -0.056    29.395     8.891
    18   6 C        2.867     0.146    24.821     8.167
    19   8 O        1.706    -0.250    18.143     5.751
    20   6 C        3.644     0.033    20.352     6.484
    21   6 C        2.911    -0.065    29.620     8.924
    22   6 C        3.806    -0.088    22.168     6.703
    23   6 C        2.691     0.365    20.812     7.466
    24   8 O        1.660    -0.376    20.397     6.097
    25   8 O        0.856    -0.402    21.722     6.249
    26   1 H        0.925     0.081     1.970     2.195
    27   1 H        0.925     0.059     2.212     2.326
    28   1 H        0.925     0.056     2.245     2.343
    29   1 H        0.926     0.054     2.272     2.357
    30   1 H        0.926     0.053     2.288     2.365
    31   1 H        0.926     0.053     2.279     2.361
    32   1 H        0.926     0.045     2.390     2.417
    33   1 H        0.926     0.083     1.953     2.185
    34   1 H        0.926     0.062     2.178     2.308
    35   1 H        0.925     0.069     2.099     2.266
    36   1 H        0.924     0.046     2.369     2.407
    37   1 H        0.924     0.046     2.370     2.407
    38   1 H        0.926     0.041     2.429     2.437
    39   1 H        0.924     0.083     1.949     2.183
    40   1 H        0.925     0.078     1.995     2.209
    41   1 H        0.804     0.333     0.631     1.247

 Mol. C6AA /au·bohr⁶  :      23491.982521
 Mol. C8AA /au·bohr⁸  :     596857.213106
 Mol. α(0) /au        :        239.943490


Wiberg/Mayer (AO) data.
largest (>0.10) Wiberg bond orders for each atom

 ---------------------------------------------------------------------------
     #   Z sym  total        # sym  WBO       # sym  WBO       # sym  WBO
 ---------------------------------------------------------------------------
     1   6 C    3.985 --     2 C    1.047    27 H    0.972    28 H    0.968
                            26 H    0.946
     2   6 C    3.821 --     3 C    1.327     6 N    1.164     1 C    1.047
     3   6 C    3.825 --     2 C    1.327     4 C    1.240    22 C    1.024
     4   6 C    3.932 --    21 C    1.288     3 C    1.240     5 C    1.205
     5   6 C    3.880 --    16 C    1.389     4 C    1.205     6 N    1.090
     6   7 N    3.584 --     2 C    1.164     5 C    1.090     7 C    1.055
     7   6 C    3.899 --    15 O    1.581     6 N    1.055     8 C    1.028
     8   6 C    3.906 --    14 C    1.317     9 C    1.316     7 C    1.028
     9   6 C    3.957 --    10 C    1.484     8 C    1.316    29 H    0.967
    10   6 C    3.974 --     9 C    1.484    11 C    1.358    30 H    0.966
    11   6 C    3.841 --    10 C    1.358    13 C    1.353    12 Cl   0.969
    12  17 Cl   1.078 --    11 C    0.969
    13   6 C    3.965 --    14 C    1.482    11 C    1.353    31 H    0.967
    14   6 C    3.972 --    13 C    1.482     8 C    1.317    32 H    0.967
    15   8 O    1.962 --     7 C    1.581
    16   6 C    3.937 --    17 C    1.406     5 C    1.389    33 H    0.957
    17   6 C    3.852 --    16 C    1.406    18 C    1.288    34 H    0.967
    18   6 C    3.884 --    21 C    1.382    17 C    1.288    19 O    1.076
    19   8 O    2.215 --    18 C    1.076    20 C    0.985
    20   6 C    3.941 --    19 O    0.985    35 H    0.979    36 H    0.974
                            37 H    0.974
    21   6 C    3.875 --    18 C    1.382     4 C    1.288    38 H    0.962
    22   6 C    3.988 --     3 C    1.024    40 H    0.961    23 C    0.951
                            39 H    0.928
    23   6 C    3.898 --    25 O    1.770    24 O    1.131    22 C    0.951
    24   8 O    2.195 --    23 C    1.131    41 H    0.864    25 O    0.171
    25   8 O    2.046 --    23 C    1.770    24 O    0.171
    26   1 H    0.982 --     1 C    0.946
    27   1 H    0.994 --     1 C    0.972
    28   1 H    0.992 --     1 C    0.968
    29   1 H    0.996 --     9 C    0.967
    30   1 H    0.996 --    10 C    0.966
    31   1 H    0.995 --    13 C    0.967
    32   1 H    0.998 --    14 C    0.967
    33   1 H    0.991 --    16 C    0.957
    34   1 H    0.996 --    17 C    0.967
    35   1 H    0.995 --    20 C    0.979
    36   1 H    0.993 --    20 C    0.974
    37   1 H    0.993 --    20 C    0.974
    38   1 H    0.998 --    21 C    0.962
    39   1 H    0.984 --    22 C    0.928
    40   1 H    0.993 --    22 C    0.961
    41   1 H    0.888 --    24 O    0.864
 ---------------------------------------------------------------------------

Topologies differ in total number of bonds
Writing topology from bond orders to xtbtopo.mol

molecular dipole:
                 x           y           z       tot (Debye)
 q only:       -2.852       1.254       0.141
   full:       -2.806       1.743      -0.097       8.400
molecular quadrupole (traceless):
                xx          xy          yy          xz          yz          zz
 q only:       -3.887      -3.699       1.480       7.623       5.875       2.407
  q+dip:        0.188      -2.900      -1.368       8.102       4.013       1.180
   full:       -1.354      -3.038      -1.671       7.013       5.721       3.025


           -------------------------------------------------
          | TOTAL ENERGY              -72.518547457876 Eh   |
          | GRADIENT NORM               0.109224996060 Eh/α |
          | HOMO-LUMO GAP               0.411098758749 eV   |
           -------------------------------------------------

------------------------------------------------------------------------
 * finished run on 2025/05/15 at 16:27:19.815     
------------------------------------------------------------------------
 total:
 * wall-time:     0 d,  0 h,  0 min,  0.185 sec
 *  cpu-time:     0 d,  0 h,  0 min,  0.109 sec
 * ratio c/w:     0.587 speedup
 SCF:
 * wall-time:     0 d,  0 h,  0 min,  0.171 sec
 *  cpu-time:     0 d,  0 h,  0 min,  0.096 sec
 * ratio c/w:     0.563 speedup


