41
 energy: -72.629249695449 gnorm: 0.000501816483 xtb: 6.7.1 (edcfbbe)
C            1.29118325386343        1.68488788222263        1.39473882396630
C            0.28587508581109        0.67745026621138        0.95910977239513
C           -1.02967091717642        0.90420379777238        0.67816770312700
C           -1.65741085316436       -0.36595678466351        0.45976533283087
C           -0.66706742642286       -1.34335338818642        0.66107993239768
N            0.53740693756967       -0.69218587046225        0.92696340383603
C            1.75115611372060       -1.35612796561956        1.04032543794143
C            2.94906411278584       -0.62824560116370        0.54454270727737
C            4.16635161322653       -0.80573162513589        1.19690428057598
C            5.31315711273415       -0.20505276287666        0.71615442187938
C            5.24502569397224        0.55331300541176       -0.44383024855080
Cl           6.67380822121836        1.30521196205261       -1.05338618731115
C            4.04694164996803        0.70829574443381       -1.12601186232733
C            2.89947907184344        0.11937869557237       -0.63011843541402
O            1.81876067049512       -2.49157933875533        1.45591841774356
C           -0.95159374729997       -2.69337679176516        0.52937033841802
C           -2.24384213640018       -3.04611896617565        0.21067654343207
C           -3.24749547622443       -2.08345315375880        0.01337549557511
O           -4.47667390563269       -2.59143560688731       -0.29396701208881
C           -5.54033848446658       -1.69553683800903       -0.49542476856091
C           -2.96026250965913       -0.73387862027992        0.13162270152772
C           -1.68322929153739        2.23926684115622        0.55286370680699
C           -1.24505888332629        2.93991901521984       -0.71563500155138
O           -2.16524523651206        3.81851128739943       -1.13284215273112
O           -0.20730112163737        2.76582598799091       -1.29338550224399
H            1.75942920838111        2.17189326157580        0.54067692586876
H            2.06664490448849        1.23038907131888        2.00590719408296
H            0.79145479839835        2.45450198809297        1.98160704768652
H            4.19828307414315       -1.41392287272791        2.08826323040339
H            6.25456823345262       -0.32676134078822        1.22818562440754
H            4.01415956000096        1.28596411814746       -2.03620015706464
H            1.96804954796199        0.23420181047312       -1.16419291070700
H           -0.19175907484485       -3.44145626502818        0.68350619030672
H           -2.52099849023727       -4.08262893072694        0.10641625541166
H           -6.41112699092962       -2.31348166959111       -0.70892551716223
H           -5.35237756561623       -1.03134506314303       -1.34598596738488
H           -5.73563971970931       -1.09404456771961        0.39885462338756
H           -3.70987395622162        0.02447846020094       -0.02766885819777
H           -1.39945590900580        2.89128857442520        1.38501229514256
H           -2.76905239093442        2.15317277717539        0.54771317016973
H           -1.86532477707449        4.27311947661308       -1.93614699530231
