43
 energy: -70.314093955367 gnorm: 0.000199065615 xtb: 6.7.1 (edcfbbe)
C           -2.23784993854030        2.34309807979490       -2.39111134994330
C           -2.08329883314526        0.93888352499016       -1.89632831849054
C           -1.89589573621098        0.64785149317950       -0.54362583383916
O           -1.85405772360701        1.67263254795792        0.38763034124699
C           -3.12849467467647        2.07761815447316        0.84188274960829
C           -1.71217221774177       -0.67299055815037       -0.12633838287321
C           -1.47701240752638       -0.98160318731727        1.32149711374681
C           -2.11251838162834       -0.14110393225733       -2.76926975859064
N           -1.97356667318219       -1.39380145414161       -2.39316170646083
C           -1.76612334475072       -1.66466797107348       -1.11085031089191
C           -1.54161168608730       -3.10355015420831       -0.81979843053685
S            0.08409494440599       -3.62338931098815       -1.60046297631693
C            1.04865711138218       -2.36812422474339       -0.74746826790994
N            1.07094408774647       -1.08859971366925       -0.97968623261040
C            1.92691408852443       -0.57116288445031       -0.04068049273870
C            2.43828758405315       -1.61788498287676        0.76360025136753
N            1.85139603918820       -2.75895537098248        0.27845523086767
C            3.32453835779293       -1.36437798340795        1.79981382215265
C            3.68000673463911       -0.05334215401700        2.01222860742139
C            3.17182324313126        0.99836882775032        1.22374563376492
O            3.62326164770302        2.23607982975214        1.57741382370665
C            3.16539177872200        3.34444208841526        0.84229476208009
C            2.28934213919970        0.75292441424361        0.18734477037159
O            0.47841978646829       -4.84615856620194       -0.88316905250185
H           -1.73800517606553        2.45934971364904       -3.34991288273677
H           -3.29221312704937        2.58575762366661       -2.53149913272894
H           -1.81099655713521        3.04406441520172       -1.67785597220981
H           -2.95609774140670        2.88804066103513        1.54817265771672
H           -3.75576988202144        2.43756471298986        0.02012501397849
H           -3.64962305782947        1.25725515831453        1.34828014425869
H           -1.38423960698771       -0.05545870614773        1.88227679347864
H           -0.55576295990270       -1.54537604719897        1.45383591274741
H           -2.30100574497806       -1.56580514207672        1.73229950783725
H           -2.25779471359516        0.01435351351719       -3.83040232580356
H           -1.48788812634380       -3.35217599052481        0.23572260089094
H           -2.28237777127381       -3.72533857335380       -1.31975684317724
H            1.96809973200648       -3.71911943809809        0.56338732560914
H            3.71829348584361       -2.15887768380918        2.41452688163471
H            4.36502505975964        0.20932411660976        2.80241706310244
H            3.64249019918201        4.21382860740806        1.29213958679566
H            2.07792573319370        3.44926010521357        0.91098551731183
H            3.45696851134010        3.27472227933373       -0.21065327904103
H            1.87239581742244        1.52674416224526       -0.43314456230390
