----- Optimization -----
      -----------------------------------------------------------      
     |                   =====================                   |     
     |                           x T B                           |     
     |                   =====================                   |     
     |                         S. Grimme                         |     
     |          Mulliken Center for Theoretical Chemistry        |     
     |                    University of Bonn                     |     
      -----------------------------------------------------------      

   * xtb version 6.7.1 (edcfbbe) compiled by 'conda@3ef47c1a292c' on 2024-11-25

   xtb is free software: you can redistribute it and/or modify it under
   the terms of the GNU Lesser General Public License as published by
   the Free Software Foundation, either version 3 of the License, or
   (at your option) any later version.
   
   xtb is distributed in the hope that it will be useful,
   but WITHOUT ANY WARRANTY; without even the implied warranty of
   MERCHANTABILITY or FITNESS FOR A PARTICULAR PURPOSE.  See the
   GNU Lesser General Public License for more details.
   
   Cite this work as:
   * C. Bannwarth, E. Caldeweyher, S. Ehlert, A. Hansen, P. Pracht,
     J. Seibert, S. Spicher, S. Grimme, WIREs Comput. Mol. Sci., 2020, 11,
     e01493. DOI: 10.1002/wcms.1493
   
   for GFN2-xTB:
   * C. Bannwarth, S. Ehlert and S. Grimme., J. Chem. Theory Comput., 2019,
     15, 1652-1671. DOI: 10.1021/acs.jctc.8b01176
   for GFN1-xTB:
   * S. Grimme, C. Bannwarth, P. Shushkov, J. Chem. Theory Comput., 2017,
     13, 1989-2009. DOI: 10.1021/acs.jctc.7b00118
   for GFN0-xTB:
   * P. Pracht, E. Caldeweyher, S. Ehlert, S. Grimme, ChemRxiv, 2019, preprint.
     DOI: 10.26434/chemrxiv.8326202.v1
   for GFN-FF:
   * S. Spicher and S. Grimme, Angew. Chem. Int. Ed., 2020, 59, 15665-15673.
     DOI: 10.1002/anie.202004239
   
   for ALPB and GBSA implicit solvation:
   * S. Ehlert, M. Stahn, S. Spicher, S. Grimme, J. Chem. Theory Comput.,
     2021, 17, 4250-4261. DOI: 10.1021/acs.jctc.1c00471
   
   for ddCOSMO and CPCM-X implicit solvation:
   * M. Stahn, S. Ehlert, S. Grimme, J. Phys. Chem. A,
     2023, XX, XXXX-XXXX. DOI: 10.1021/acs.jpca.3c04382
   
   for DFT-D4:
   * E. Caldeweyher, C. Bannwarth and S. Grimme, J. Chem. Phys., 2017,
     147, 034112. DOI: 10.1063/1.4993215
   * E. Caldeweyher, S. Ehlert, A. Hansen, H. Neugebauer, S. Spicher,
     C. Bannwarth and S. Grimme, J. Chem. Phys., 2019, 150, 154122.
     DOI: 10.1063/1.5090222
   * E. Caldeweyher, J.-M. Mewes, S. Ehlert and S. Grimme, Phys. Chem. Chem. Phys.
     2020, 22, 8499-8512. DOI: 10.1039/D0CP00502A
   
   for sTDA-xTB:
   * S. Grimme and C. Bannwarth, J. Chem. Phys., 2016, 145, 054103.
     DOI: 10.1063/1.4959605
   
   in the mass-spec context:
   * V. Asgeirsson, C. Bauer and S. Grimme, Chem. Sci., 2017, 8, 4879.
     DOI: 10.1039/c7sc00601b
   * J. Koopman and S. Grimme, ACS Omega 2019, 4, 12, 15120-15133.
     DOI: 10.1021/acsomega.9b02011
   
   for metadynamics refer to:
   * S. Grimme, J. Chem. Theory Comput., 2019, 155, 2847-2862
     DOI: 10.1021/acs.jctc.9b00143
   
   for SPH calculations refer to:
   * S. Spicher and S. Grimme, J. Chem. Theory Comput., 2021, 17, 1701-1714
     DOI: 10.1021/acs.jctc.0c01306
   
   for ONIOM refer to:
   * C. Plett, A. Katbashev, S. Ehlert, S. Grimme, M. Bursch,
     Phys. Chem. Chem. Phys., 2023, 25, 17860-17868. DOI: 10.1039/D3CP02178E
   
   for DIPRO refer to:
   * J. Kohn, N. Gildemeister, S. Grimme, D. Fazzi, A. Hansen,
     J. Chem. Phys., 2023, just accepted.
   
   for PTB refer to:
   * S. Grimme, M. Mueller, A. Hansen, J. Chem. Phys., 2023, 158, 124111.
     DOI: 10.1063/5.0137838
   
   with help from (in alphabetical order)
   P. Atkinson, C. Bannwarth, F. Bohle, G. Brandenburg, E. Caldeweyher
   M. Checinski, S. Dohm, S. Ehlert, S. Ehrlich, I. Gerasimov, C. Hölzer
   A. Katbashev, J. Kohn, J. Koopman, C. Lavigne, S. Lehtola, F. März, M. Müller,
   F. Musil, H. Neugebauer, J. Pisarek, C. Plett, P. Pracht, F. Pultar,
   J. Seibert, P. Shushkov, S. Spicher, M. Stahn, M. Steiner, T. Strunk,
   J. Stückrath, T. Rose, and J. Unsleber
   
 * started run on 2025/05/15 at 16:23:55.305     
   ID    Z sym.   atoms
    1    6 C      1-4, 6-8, 11-16, 20, 21, 23-26, 28, 30, 31, 33
    2    7 N      5, 9, 10, 19, 22, 32
    3   16 S      17
    4    8 O      18, 27, 29, 34
    5    1 H      35-66

           -------------------------------------------------
          |                Calculation Setup                |
           -------------------------------------------------

          program call               : xtb /rds/general/user/hgt20/home/callum/QDESCP/Vardenafil_rdkit_conf_9/Vardenafil_rdkit_conf_9.xyz --opt normal --acc 1 --gfn 2 --chrg 0 --uhf 0 -P 1
          hostname                   : login-c
          coordinate file            : /rds/general/user/hgt20/home/callum/QDESCP/Vardenafil_rdkit_conf_9/Vardenafil_rdkit_conf_9.xyz
          omp threads                :                     1


           -------------------------------------------------
          |                 G F N 2 - x T B                 |
           -------------------------------------------------

        Reference                      10.1021/acs.jctc.8b01176
      * Hamiltonian:
        H0-scaling (s, p, d)           1.850000    2.230000    2.230000
        zeta-weighting                 0.500000
      * Dispersion:
        s8                             2.700000
        a1                             0.520000
        a2                             5.000000
        s9                             5.000000
      * Repulsion:
        kExp                           1.500000    1.000000
        rExp                           1.000000
      * Coulomb:
        alpha                          2.000000
        third order                    shell-resolved
        anisotropic                    true
        a3                             3.000000
        a5                             4.000000
        cn-shift                       1.200000
        cn-exp                         4.000000
        max-rad                        5.000000


          ...................................................
          :                      SETUP                      :
          :.................................................:
          :  # basis functions                 174          :
          :  # atomic orbitals                 173          :
          :  # shells                          101          :
          :  # electrons                       184          :
          :  max. iterations                   250          :
          :  Hamiltonian                  GFN2-xTB          :
          :  restarted?                      false          :
          :  GBSA solvation                  false          :
          :  PC potential                    false          :
          :  electronic temp.          300.0000000     K    :
          :  accuracy                    1.0000000          :
          :  -> integral cutoff          0.2500000E+02      :
          :  -> integral neglect         0.1000000E-07      :
          :  -> SCF convergence          0.1000000E-05 Eh   :
          :  -> wf. convergence          0.1000000E-03 e    :
          :  Broyden damping             0.4000000          :
          :  net charge                          0          :
          :  unpaired electrons                  0          :
          ...................................................

 iter      E             dE          RMSdq      gap      omega  full diag
   1   -103.6028830 -0.103603E+03  0.429E+00    2.33       0.0  T
   2   -103.8308857 -0.228003E+00  0.275E+00    1.60       1.0  T
   3   -103.8517267 -0.208410E-01  0.141E+00    1.92       1.0  T
   4   -103.8665280 -0.148013E-01  0.490E-01    1.35       1.0  T
   5   -103.8764644 -0.993637E-02  0.181E-01    1.43       1.0  T
   6   -103.8768393 -0.374889E-03  0.962E-02    1.42       1.0  T
   7   -103.8769587 -0.119472E-03  0.574E-02    1.46       1.0  T
   8   -103.8770357 -0.769815E-04  0.278E-02    1.47       1.0  T
   9   -103.8770437 -0.795883E-05  0.102E-02    1.47       1.2  T
  10   -103.8770463 -0.259835E-05  0.485E-03    1.47       2.5  T
  11   -103.8770466 -0.279475E-06  0.210E-03    1.46       5.9  T
  12   -103.8770466 -0.796755E-07  0.638E-04    1.46      19.3  T
  13   -103.8770466 -0.990570E-08  0.321E-04    1.46      38.4  T

   *** convergence criteria satisfied after 13 iterations ***

         #    Occupation            Energy/Eh            Energy/eV
      -------------------------------------------------------------
         1        2.0000           -0.7729988             -21.0344
       ...           ...                  ...                  ...
        86        2.0000           -0.4113724             -11.1940
        87        2.0000           -0.4087845             -11.1236
        88        2.0000           -0.3936034             -10.7105
        89        2.0000           -0.3866664             -10.5217
        90        2.0000           -0.3795090             -10.3270
        91        2.0000           -0.3720983             -10.1253
        92        2.0000           -0.3577010              -9.7335 (HOMO)
        93                         -0.3038994              -8.2695 (LUMO)
        94                         -0.2716296              -7.3914
        95                         -0.2525895              -6.8733
        96                         -0.2298745              -6.2552
        97                         -0.1920357              -5.2256
       ...                                ...                  ...
       173                          1.1509153              31.3180
      -------------------------------------------------------------
                  HL-Gap            0.0538016 Eh            1.4640 eV
             Fermi-level           -0.3307869 Eh           -9.0012 eV

 SCC (total)                   0 d,  0 h,  0 min,  0.370 sec
 SCC setup                      ...        0 min,  0.001 sec (  0.204%)
 Dispersion                     ...        0 min,  0.001 sec (  0.308%)
 classical contributions        ...        0 min,  0.000 sec (  0.093%)
 integral evaluation            ...        0 min,  0.073 sec ( 19.628%)
 iterations                     ...        0 min,  0.126 sec ( 34.136%)
 molecular gradient             ...        0 min,  0.168 sec ( 45.485%)
 printout                       ...        0 min,  0.001 sec (  0.144%)

         :::::::::::::::::::::::::::::::::::::::::::::::::::::
         ::                     SUMMARY                     ::
         :::::::::::::::::::::::::::::::::::::::::::::::::::::
         :: total energy            -102.649947407637 Eh    ::
         :: gradient norm              0.105482835560 Eh/a0 ::
         :: HOMO-LUMO gap              1.464016049199 eV    ::
         ::.................................................::
         :: SCC energy              -103.876294581607 Eh    ::
         :: -> isotropic ES            0.146690825900 Eh    ::
         :: -> anisotropic ES          0.006218893654 Eh    ::
         :: -> anisotropic XC          0.051339203972 Eh    ::
         :: -> dispersion             -0.075251334915 Eh    ::
         :: repulsion energy           1.226347173970 Eh    ::
         :: add. restraining           0.000000000000 Eh    ::
         :: total charge               0.000000000000 e     ::
         :::::::::::::::::::::::::::::::::::::::::::::::::::::

      ----------------------------------------------------------- 
     |                   =====================                   |
     |                        A N C O P T                        |
     |                   =====================                   |
     |               Approximate Normal Coordinate               |
     |                Rational Function Optimizer                |
      ----------------------------------------------------------- 
      ----------------------------------------------------------- 
     |                   =====================                   |
     |                        A N C O P T                        |
     |                   =====================                   |
     |               Approximate Normal Coordinate               |
     |                Rational Function Optimizer                |
      ----------------------------------------------------------- 

          ...................................................
          :                      SETUP                      :
          :.................................................:
          :   optimization level            normal          :
          :   max. optcycles                   200          :
          :   ANC micro-cycles                  20          :
          :   degrees of freedom               192          :
          :.................................................:
          :   RF solver                   davidson          :
          :   write xtbopt.log                true          :
          :   linear?                        false          :
          :   energy convergence         0.5000000E-05 Eh   :
          :   grad. convergence          0.1000000E-02 Eh/α :
          :   maxmium RF displ.          1.0000000          :
          :   Hlow (freq-cutoff)         0.1000000E-01      :
          :   Hmax (freq-cutoff)         5.0000000          :
          :   S6 in model hess.         20.0000000          :
          ...................................................

generating ANC from exact Hessian ...
Using Lindh-Hessian (1995)
 Shifting diagonal of input Hessian by    9.9086466947889886E-003
 Lowest  eigenvalues of input Hessian
    0.000000    0.000000    0.000000    0.000000    0.000000    0.000000
    0.010000    0.010058    0.010141    0.010455    0.010770    0.010887
    0.011230    0.011590    0.011657    0.011793    0.012379    0.012628
 Highest eigenvalues
    2.089073    2.103293    2.322884    2.433560    2.519877    3.432431


........................................................................
.............................. CYCLE    1 ..............................
........................................................................

 iter      E             dE          RMSdq      gap      omega  full diag
   1   -103.8770467 -0.103877E+03  0.130E-04    1.46       0.0  T
   2   -103.8770467 -0.145675E-09  0.856E-05    1.46     143.8  T
   3   -103.8770467 -0.879083E-10  0.575E-05    1.46     214.1  T
     SCC iter.                  ...        0 min,  0.017 sec
     gradient                   ...        0 min,  0.174 sec
 * total energy  :  -102.6499474 Eh     change       -0.1875307E-08 Eh
   gradient norm :     0.1054803 Eh/α   predicted     0.0000000E+00 (-100.00%)
   displ. norm   :     0.3383451 α      lambda       -0.1952559E-01
   maximum displ.:     0.1417951 α      in ANC's #64, #36, #75, ...

........................................................................
.............................. CYCLE    2 ..............................
........................................................................

 iter      E             dE          RMSdq      gap      omega  full diag
   1   -103.9277443 -0.103928E+03  0.184E-01    1.51       0.0  T
   2   -103.9279633 -0.219063E-03  0.116E-01    1.56       1.0  T
   3   -103.9279515  0.118230E-04  0.598E-02    1.56       1.0  T
   4   -103.9280386 -0.871397E-04  0.197E-02    1.57       1.0  T
   5   -103.9280540 -0.153131E-04  0.606E-03    1.57       2.0  T
   6   -103.9280540 -0.446493E-07  0.183E-03    1.57       6.7  T
   7   -103.9280541 -0.120386E-06  0.764E-04    1.57      16.1  T
   8   -103.9280541 -0.128992E-07  0.374E-04    1.57      32.9  T
     SCC iter.                  ...        0 min,  0.095 sec
     gradient                   ...        0 min,  0.115 sec
 * total energy  :  -102.6638272 Eh     change       -0.1387976E-01 Eh
   gradient norm :     0.0474135 Eh/α   predicted    -0.1088633E-01 ( -21.57%)
   displ. norm   :     0.3173558 α      lambda       -0.7323265E-02
   maximum displ.:     0.1123894 α      in ANC's #36, #64, #30, ...

........................................................................
.............................. CYCLE    3 ..............................
........................................................................

 iter      E             dE          RMSdq      gap      omega  full diag
   1   -103.9572609 -0.103957E+03  0.144E-01    1.56       0.0  T
   2   -103.9574014 -0.140540E-03  0.896E-02    1.60       1.0  T
   3   -103.9574009  0.520702E-06  0.451E-02    1.60       1.0  T
   4   -103.9574533 -0.524203E-04  0.166E-02    1.61       1.0  T
   5   -103.9574624 -0.909951E-05  0.588E-03    1.61       2.1  T
   6   -103.9574625 -0.343502E-07  0.174E-03    1.61       7.1  T
   7   -103.9574626 -0.131862E-06  0.605E-04    1.61      20.4  T
   8   -103.9574626 -0.361928E-08  0.283E-04    1.61      43.4  T
     SCC iter.                  ...        0 min,  0.040 sec
     gradient                   ...        0 min,  0.172 sec
 * total energy  :  -102.6681406 Eh     change       -0.4313404E-02 Eh
   gradient norm :     0.0167494 Eh/α   predicted    -0.4032028E-02 (  -6.52%)
   displ. norm   :     0.2066840 α      lambda       -0.1141432E-02
   maximum displ.:     0.0710405 α      in ANC's #17, #8, #6, ...

........................................................................
.............................. CYCLE    4 ..............................
........................................................................

 iter      E             dE          RMSdq      gap      omega  full diag
   1   -103.9597251 -0.103960E+03  0.598E-02    1.60       0.0  T
   2   -103.9597467 -0.215430E-04  0.336E-02    1.61       1.0  T
   3   -103.9597446  0.211040E-05  0.169E-02    1.62       1.0  T
   4   -103.9597543 -0.970132E-05  0.536E-03    1.62       2.3  T
   5   -103.9597551 -0.782522E-06  0.257E-03    1.62       4.8  T
   6   -103.9597552 -0.103111E-06  0.774E-04    1.62      15.9  T
   7   -103.9597552 -0.183902E-07  0.258E-04    1.62      47.8  T
     SCC iter.                  ...        0 min,  0.092 sec
     gradient                   ...        0 min,  0.115 sec
 * total energy  :  -102.6690112 Eh     change       -0.8706488E-03 Eh
   gradient norm :     0.0146036 Eh/α   predicted    -0.5951010E-03 ( -31.65%)
   displ. norm   :     0.3158667 α      lambda       -0.1142344E-02
   maximum displ.:     0.1252137 α      in ANC's #8, #17, #6, ...

........................................................................
.............................. CYCLE    5 ..............................
........................................................................

 iter      E             dE          RMSdq      gap      omega  full diag
   1   -103.9593235 -0.103959E+03  0.763E-02    1.62       0.0  T
   2   -103.9593728 -0.493532E-04  0.421E-02    1.62       1.0  T
   3   -103.9593764 -0.358977E-05  0.225E-02    1.62       1.0  T
   4   -103.9593882 -0.117758E-04  0.663E-03    1.62       1.9  T
   5   -103.9593897 -0.150899E-05  0.337E-03    1.62       3.6  T
   6   -103.9593899 -0.209467E-06  0.993E-04    1.62      12.4  T
   7   -103.9593899 -0.396488E-07  0.337E-04    1.62      36.6  T
     SCC iter.                  ...        0 min,  0.092 sec
     gradient                   ...        0 min,  0.114 sec
 * total energy  :  -102.6697995 Eh     change       -0.7882833E-03 Eh
   gradient norm :     0.0108933 Eh/α   predicted    -0.6281646E-03 ( -20.31%)
   displ. norm   :     0.2727009 α      lambda       -0.5650753E-03
   maximum displ.:     0.1218596 α      in ANC's #8, #6, #17, ...

........................................................................
.............................. CYCLE    6 ..............................
........................................................................

 iter      E             dE          RMSdq      gap      omega  full diag
   1   -103.9594165 -0.103959E+03  0.533E-02    1.63       0.0  T
   2   -103.9594437 -0.272528E-04  0.301E-02    1.63       1.0  T
   3   -103.9594471 -0.339176E-05  0.170E-02    1.63       1.0  T
   4   -103.9594524 -0.531103E-05  0.469E-03    1.63       2.6  T
   5   -103.9594534 -0.918064E-06  0.217E-03    1.63       5.7  T
   6   -103.9594535 -0.866529E-07  0.737E-04    1.63      16.7  T
   7   -103.9594535 -0.204060E-07  0.241E-04    1.63      51.1  T
     SCC iter.                  ...        0 min,  0.092 sec
     gradient                   ...        0 min,  0.174 sec
 * total energy  :  -102.6702165 Eh     change       -0.4169880E-03 Eh
   gradient norm :     0.0085774 Eh/α   predicted    -0.3035573E-03 ( -27.20%)
   displ. norm   :     0.3025738 α      lambda       -0.4573771E-03
   maximum displ.:     0.1403266 α      in ANC's #8, #6, #17, ...

........................................................................
.............................. CYCLE    7 ..............................
........................................................................

 iter      E             dE          RMSdq      gap      omega  full diag
   1   -103.9603019 -0.103960E+03  0.543E-02    1.64       0.0  T
   2   -103.9603204 -0.185506E-04  0.310E-02    1.63       1.0  T
   3   -103.9603194  0.100833E-05  0.172E-02    1.64       1.0  T
   4   -103.9603268 -0.736595E-05  0.409E-03    1.64       3.0  T
   5   -103.9603275 -0.682987E-06  0.183E-03    1.64       6.7  T
   6   -103.9603275 -0.728273E-07  0.678E-04    1.64      18.2  T
   7   -103.9603275 -0.145003E-07  0.226E-04    1.64      54.5  T
     SCC iter.                  ...        0 min,  0.092 sec
     gradient                   ...        0 min,  0.117 sec
 * total energy  :  -102.6705504 Eh     change       -0.3338766E-03 Eh
   gradient norm :     0.0073729 Eh/α   predicted    -0.2497378E-03 ( -25.20%)
   displ. norm   :     0.2945110 α      lambda       -0.3237797E-03
   maximum displ.:     0.1469816 α      in ANC's #6, #8, #17, ...

........................................................................
.............................. CYCLE    8 ..............................
........................................................................

 iter      E             dE          RMSdq      gap      omega  full diag
   1   -103.9613691 -0.103961E+03  0.513E-02    1.64       0.0  T
   2   -103.9613768 -0.767739E-05  0.292E-02    1.64       1.0  T
   3   -103.9613725  0.431426E-05  0.137E-02    1.64       1.0  T
   4   -103.9613796 -0.713627E-05  0.298E-03    1.64       4.1  T
   5   -103.9613798 -0.237901E-06  0.145E-03    1.64       8.5  T
   6   -103.9613799 -0.571871E-07  0.512E-04    1.64      24.1  T
   7   -103.9613799 -0.834652E-08  0.178E-04    1.64      69.3  T
     SCC iter.                  ...        0 min,  0.088 sec
     gradient                   ...        0 min,  0.172 sec
 * total energy  :  -102.6707875 Eh     change       -0.2370932E-03 Eh
   gradient norm :     0.0069722 Eh/α   predicted    -0.1759322E-03 ( -25.80%)
   displ. norm   :     0.2760265 α      lambda       -0.2317529E-03
   maximum displ.:     0.1453663 α      in ANC's #6, #8, #4, ...

........................................................................
.............................. CYCLE    9 ..............................
........................................................................

 iter      E             dE          RMSdq      gap      omega  full diag
   1   -103.9622259 -0.103962E+03  0.463E-02    1.64       0.0  T
   2   -103.9622290 -0.311315E-05  0.262E-02    1.64       1.0  T
   3   -103.9622266  0.239126E-05  0.886E-03    1.64       1.4  T
   4   -103.9622301 -0.350128E-05  0.230E-03    1.64       5.3  T
   5   -103.9622302 -0.522928E-07  0.102E-03    1.64      12.1  T
   6   -103.9622302 -0.368702E-07  0.348E-04    1.64      35.4  T
   7   -103.9622302 -0.447677E-08  0.142E-04    1.64      86.5  T
     SCC iter.                  ...        0 min,  0.092 sec
     gradient                   ...        0 min,  0.118 sec
 * total energy  :  -102.6709604 Eh     change       -0.1729165E-03 Eh
   gradient norm :     0.0062194 Eh/α   predicted    -0.1247683E-03 ( -27.84%)
   displ. norm   :     0.2730619 α      lambda       -0.1832115E-03
   maximum displ.:     0.1485480 α      in ANC's #6, #8, #4, ...

........................................................................
.............................. CYCLE   10 ..............................
........................................................................

 iter      E             dE          RMSdq      gap      omega  full diag
   1   -103.9627293 -0.103963E+03  0.432E-02    1.63       0.0  T
   2   -103.9627312 -0.193102E-05  0.245E-02    1.63       1.0  T
   3   -103.9627304  0.874041E-06  0.610E-03    1.63       2.0  T
   4   -103.9627318 -0.145503E-05  0.220E-03    1.63       5.6  T
   5   -103.9627319 -0.593111E-07  0.716E-04    1.63      17.2  T
   6   -103.9627319 -0.138815E-07  0.255E-04    1.63      48.3  T
     SCC iter.                  ...        0 min,  0.030 sec
     gradient                   ...        0 min,  0.165 sec
 * total energy  :  -102.6710980 Eh     change       -0.1376586E-03 Eh
   gradient norm :     0.0050931 Eh/α   predicted    -0.9843678E-04 ( -28.49%)
   displ. norm   :     0.2658291 α      lambda       -0.1468008E-03
   maximum displ.:     0.1457506 α      in ANC's #6, #8, #4, ...

........................................................................
.............................. CYCLE   11 ..............................
........................................................................

 iter      E             dE          RMSdq      gap      omega  full diag
   1   -103.9630619 -0.103963E+03  0.397E-02    1.62       0.0  T
   2   -103.9630635 -0.160557E-05  0.226E-02    1.62       1.0  T
   3   -103.9630631  0.428681E-06  0.503E-03    1.62       2.4  T
   4   -103.9630638 -0.706757E-06  0.233E-03    1.62       5.3  T
   5   -103.9630639 -0.161905E-06  0.792E-04    1.62      15.5  T
   6   -103.9630640 -0.148344E-07  0.284E-04    1.62      43.3  T
     SCC iter.                  ...        0 min,  0.030 sec
     gradient                   ...        0 min,  0.162 sec
 * total energy  :  -102.6712094 Eh     change       -0.1113094E-03 Eh
   gradient norm :     0.0041316 Eh/α   predicted    -0.7858793E-04 ( -29.40%)
   displ. norm   :     0.2605905 α      lambda       -0.1211927E-03
   maximum displ.:     0.1405322 α      in ANC's #6, #8, #2, ...

........................................................................
.............................. CYCLE   12 ..............................
........................................................................

 iter      E             dE          RMSdq      gap      omega  full diag
   1   -103.9632903 -0.103963E+03  0.369E-02    1.61       0.0  T
   2   -103.9632919 -0.156430E-05  0.211E-02    1.61       1.0  T
   3   -103.9632915  0.345553E-06  0.466E-03    1.61       2.6  T
   4   -103.9632920 -0.511709E-06  0.216E-03    1.62       5.7  T
   5   -103.9632922 -0.183347E-06  0.784E-04    1.62      15.7  T
   6   -103.9632922 -0.141719E-07  0.247E-04    1.62      49.8  T
     SCC iter.                  ...        0 min,  0.087 sec
     gradient                   ...        0 min,  0.110 sec
 * total energy  :  -102.6713021 Eh     change       -0.9274582E-04 Eh
   gradient norm :     0.0038594 Eh/α   predicted    -0.6471223E-04 ( -30.23%)
   displ. norm   :     0.2561334 α      lambda       -0.1035581E-03
   maximum displ.:     0.1331253 α      in ANC's #6, #5, #8, ...

........................................................................
.............................. CYCLE   13 ..............................
........................................................................

 iter      E             dE          RMSdq      gap      omega  full diag
   1   -103.9635862 -0.103964E+03  0.344E-02    1.61       0.0  T
   2   -103.9635876 -0.139897E-05  0.198E-02    1.61       1.0  T
   3   -103.9635872  0.490315E-06  0.446E-03    1.61       2.8  T
   4   -103.9635878 -0.672044E-06  0.172E-03    1.61       7.1  T
   5   -103.9635880 -0.127550E-06  0.681E-04    1.61      18.1  T
   6   -103.9635880 -0.102312E-07  0.205E-04    1.61      60.1  T
     SCC iter.                  ...        0 min,  0.081 sec
     gradient                   ...        0 min,  0.108 sec
 * total energy  :  -102.6713816 Eh     change       -0.7950881E-04 Eh
   gradient norm :     0.0043327 Eh/α   predicted    -0.5517890E-04 ( -30.60%)
   displ. norm   :     0.2506651 α      lambda       -0.8966975E-04
   maximum displ.:     0.1255650 α      in ANC's #6, #2, #5, ...

........................................................................
.............................. CYCLE   14 ..............................
........................................................................

 iter      E             dE          RMSdq      gap      omega  full diag
   1   -103.9637510 -0.103964E+03  0.326E-02    1.60       0.0  T
   2   -103.9637520 -0.100323E-05  0.189E-02    1.60       1.0  T
   3   -103.9637513  0.714057E-06  0.423E-03    1.60       2.9  T
   4   -103.9637522 -0.941665E-06  0.122E-03    1.60      10.1  T
   5   -103.9637523 -0.515643E-07  0.575E-04    1.60      21.4  T
   6   -103.9637523 -0.621372E-08  0.172E-04    1.60      71.8  T
     SCC iter.                  ...        0 min,  0.030 sec
     gradient                   ...        0 min,  0.103 sec
 * total energy  :  -102.6714513 Eh     change       -0.6964591E-04 Eh
   gradient norm :     0.0045948 Eh/α   predicted    -0.4765530E-04 ( -31.57%)
   displ. norm   :     0.2611858 α      lambda       -0.8646720E-04
   maximum displ.:     0.1239854 α      in ANC's #6, #2, #5, ...

........................................................................
.............................. CYCLE   15 ..............................
........................................................................

 iter      E             dE          RMSdq      gap      omega  full diag
   1   -103.9641195 -0.103964E+03  0.343E-02    1.60       0.0  T
   2   -103.9641202 -0.722321E-06  0.200E-02    1.60       1.0  T
   3   -103.9641196  0.604948E-06  0.380E-03    1.60       3.2  T
   4   -103.9641204 -0.824126E-06  0.111E-03    1.60      11.0  T
   5   -103.9641205 -0.234128E-07  0.549E-04    1.60      22.4  T
   6   -103.9641205 -0.629136E-08  0.174E-04    1.60      70.6  T
     SCC iter.                  ...        0 min,  0.030 sec
     gradient                   ...        0 min,  0.166 sec
 * total energy  :  -102.6715182 Eh     change       -0.6693449E-04 Eh
   gradient norm :     0.0046693 Eh/α   predicted    -0.4618353E-04 ( -31.00%)
   displ. norm   :     0.2783229 α      lambda       -0.8587072E-04
   maximum displ.:     0.1283216 α      in ANC's #6, #2, #5, ...

........................................................................
.............................. CYCLE   16 ..............................
........................................................................

 iter      E             dE          RMSdq      gap      omega  full diag
   1   -103.9639643 -0.103964E+03  0.373E-02    1.60       0.0  T
   2   -103.9639651 -0.868898E-06  0.217E-02    1.60       1.0  T
   3   -103.9639646  0.531360E-06  0.411E-03    1.60       3.0  T
   4   -103.9639653 -0.717832E-06  0.153E-03    1.60       8.1  T
   5   -103.9639654 -0.914114E-07  0.638E-04    1.60      19.3  T
   6   -103.9639654 -0.765627E-08  0.218E-04    1.60      56.5  T
     SCC iter.                  ...        0 min,  0.084 sec
     gradient                   ...        0 min,  0.110 sec
 * total energy  :  -102.6715838 Eh     change       -0.6558947E-04 Eh
   gradient norm :     0.0038203 Eh/α   predicted    -0.4626347E-04 ( -29.47%)
   displ. norm   :     0.2850330 α      lambda       -0.8610264E-04
   maximum displ.:     0.1355491 α      in ANC's #2, #5, #6, ...

........................................................................
.............................. CYCLE   17 ..............................
........................................................................

 iter      E             dE          RMSdq      gap      omega  full diag
   1   -103.9644683 -0.103964E+03  0.393E-02    1.59       0.0  T
   2   -103.9644693 -0.971482E-06  0.228E-02    1.60       1.0  T
   3   -103.9644692  0.545869E-07  0.339E-03    1.60       3.6  T
   4   -103.9644694 -0.201366E-06  0.164E-03    1.60       7.5  T
   5   -103.9644695 -0.103843E-06  0.678E-04    1.60      18.2  T
   6   -103.9644696 -0.112210E-07  0.201E-04    1.60      61.3  T
     SCC iter.                  ...        0 min,  0.087 sec
     gradient                   ...        0 min,  0.110 sec
 * total energy  :  -102.6716476 Eh     change       -0.6380673E-04 Eh
   gradient norm :     0.0040528 Eh/α   predicted    -0.4654971E-04 ( -27.05%)
   displ. norm   :     0.2670344 α      lambda       -0.7903857E-04
   maximum displ.:     0.1316037 α      in ANC's #2, #5, #3, ...

........................................................................
.............................. CYCLE   18 ..............................
........................................................................

 iter      E             dE          RMSdq      gap      omega  full diag
   1   -103.9641589 -0.103964E+03  0.361E-02    1.59       0.0  T
   2   -103.9641599 -0.104290E-05  0.207E-02    1.59       1.0  T
   3   -103.9641597  0.242394E-06  0.389E-03    1.60       3.2  T
   4   -103.9641601 -0.394484E-06  0.165E-03    1.60       7.5  T
   5   -103.9641602 -0.114580E-06  0.687E-04    1.60      17.9  T
   6   -103.9641602 -0.115020E-07  0.210E-04    1.60      58.7  T
     SCC iter.                  ...        0 min,  0.030 sec
     gradient                   ...        0 min,  0.109 sec
 * total energy  :  -102.6717056 Eh     change       -0.5800154E-04 Eh
   gradient norm :     0.0036944 Eh/α   predicted    -0.4233851E-04 ( -27.00%)
   displ. norm   :     0.2544791 α      lambda       -0.7051388E-04
   maximum displ.:     0.1313864 α      in ANC's #2, #5, #3, ...

........................................................................
.............................. CYCLE   19 ..............................
........................................................................

 iter      E             dE          RMSdq      gap      omega  full diag
   1   -103.9643236 -0.103964E+03  0.326E-02    1.59       0.0  T
   2   -103.9643243 -0.664499E-06  0.187E-02    1.59       1.0  T
   3   -103.9643242  0.398170E-08  0.245E-03    1.59       5.0  T
   4   -103.9643244 -0.174234E-06  0.110E-03    1.59      11.2  T
   5   -103.9643245 -0.281305E-07  0.465E-04    1.59      26.5  T
   6   -103.9643245 -0.774450E-08  0.132E-04    1.59      93.1  T
     SCC iter.                  ...        0 min,  0.030 sec
     gradient                   ...        0 min,  0.160 sec
 * total energy  :  -102.6717581 Eh     change       -0.5256565E-04 Eh
   gradient norm :     0.0040160 Eh/α   predicted    -0.3754405E-04 ( -28.58%)
   displ. norm   :     0.2190114 α      lambda       -0.5821841E-04
   maximum displ.:     0.1168741 α      in ANC's #2, #3, #5, ...

........................................................................
.............................. CYCLE   20 ..............................
........................................................................

 iter      E             dE          RMSdq      gap      omega  full diag
   1   -103.9643458 -0.103964E+03  0.257E-02    1.59       0.0  T
   2   -103.9643463 -0.462096E-06  0.149E-02    1.59       1.0  T
   3   -103.9643462  0.901947E-07  0.222E-03    1.59       5.5  T
   4   -103.9643464 -0.219877E-06  0.870E-04    1.59      14.1  T
   5   -103.9643464 -0.170761E-07  0.381E-04    1.59      32.3  T
     SCC iter.                  ...        0 min,  0.082 sec
     gradient                   ...        0 min,  0.104 sec
 * total energy  :  -102.6718027 Eh     change       -0.4454816E-04 Eh
   gradient norm :     0.0035511 Eh/α   predicted    -0.3051039E-04 ( -31.51%)
   displ. norm   :     0.2128580 α      lambda       -0.5359052E-04
   maximum displ.:     0.1183194 α      in ANC's #2, #3, #5, ...
 * RMSD in coord.:     0.5051646 α      energy gain  -0.2185529E-01 Eh

generating ANC from exact Hessian ...
Using Lindh-Hessian (1995)
 Shifting diagonal of input Hessian by    9.9042900257390806E-003
 Lowest  eigenvalues of input Hessian
    0.000000    0.000000    0.000000    0.000000    0.000000    0.000000
    0.010000    0.010061    0.010177    0.010539    0.010911    0.010993
    0.011308    0.011680    0.011723    0.011928    0.012509    0.012806
 Highest eigenvalues
    2.092659    2.203687    2.362867    2.436703    2.752681    3.512880


........................................................................
.............................. CYCLE   21 ..............................
........................................................................

 iter      E             dE          RMSdq      gap      omega  full diag
   1   -103.9643978 -0.103964E+03  0.239E-02    1.59       0.0  T
   2   -103.9643984 -0.610063E-06  0.139E-02    1.59       1.0  T
   3   -103.9643983  0.161885E-06  0.271E-03    1.59       4.5  T
   4   -103.9643985 -0.271461E-06  0.109E-03    1.59      11.3  T
   5   -103.9643986 -0.443940E-07  0.433E-04    1.59      28.5  T
   6   -103.9643986 -0.226430E-08  0.136E-04    1.59      90.2  T
     SCC iter.                  ...        0 min,  0.030 sec
     gradient                   ...        0 min,  0.166 sec
 * total energy  :  -102.6718431 Eh     change       -0.4041055E-04 Eh
   gradient norm :     0.0026957 Eh/α   predicted     0.0000000E+00 (-100.00%)
   displ. norm   :     0.0262804 α      lambda       -0.1432037E-04
   maximum displ.:     0.0140138 α      in ANC's #2, #6, #7, ...

........................................................................
.............................. CYCLE   22 ..............................
........................................................................

 iter      E             dE          RMSdq      gap      omega  full diag
   1   -103.9646973 -0.103965E+03  0.528E-03    1.59       0.0  T
   2   -103.9646973 -0.729000E-07  0.292E-03    1.59       4.2  T
   3   -103.9646973  0.214927E-07  0.102E-03    1.59      12.1  T
   4   -103.9646974 -0.351313E-07  0.366E-04    1.59      33.7  T
   5   -103.9646974 -0.181947E-08  0.159E-04    1.59      77.6  T
     SCC iter.                  ...        0 min,  0.077 sec
     gradient                   ...        0 min,  0.112 sec
 * total energy  :  -102.6718586 Eh     change       -0.1546326E-04 Eh
   gradient norm :     0.0016646 Eh/α   predicted    -0.8991350E-05 ( -41.85%)
   displ. norm   :     0.1423937 α      lambda       -0.4312998E-04
   maximum displ.:     0.0773236 α      in ANC's #2, #6, #7, ...

........................................................................
.............................. CYCLE   23 ..............................
........................................................................

 iter      E             dE          RMSdq      gap      omega  full diag
   1   -103.9652744 -0.103965E+03  0.246E-02    1.59       0.0  T
   2   -103.9652755 -0.113281E-05  0.136E-02    1.59       1.0  T
   3   -103.9652752  0.363418E-06  0.412E-03    1.59       3.0  T
   4   -103.9652757 -0.575106E-06  0.163E-03    1.59       7.6  T
   5   -103.9652758 -0.343008E-07  0.674E-04    1.59      18.3  T
   6   -103.9652758 -0.206369E-07  0.164E-04    1.59      74.9  T
     SCC iter.                  ...        0 min,  0.085 sec
     gradient                   ...        0 min,  0.114 sec
 * total energy  :  -102.6718868 Eh     change       -0.2827120E-04 Eh
   gradient norm :     0.0026875 Eh/α   predicted    -0.2175961E-04 ( -23.03%)
   displ. norm   :     0.0244499 α      lambda       -0.1025834E-04
   maximum displ.:     0.0153013 α      in ANC's #2, #7, #3, ...

........................................................................
.............................. CYCLE   24 ..............................
........................................................................

 iter      E             dE          RMSdq      gap      omega  full diag
   1   -103.9651403 -0.103965E+03  0.355E-03    1.59       0.0  T
   2   -103.9651403 -0.283258E-07  0.207E-03    1.59       5.9  T
   3   -103.9651403  0.147313E-07  0.696E-04    1.59      17.7  T
   4   -103.9651403 -0.209064E-07  0.157E-04    1.59      78.4  T
     SCC iter.                  ...        0 min,  0.066 sec
     gradient                   ...        0 min,  0.111 sec
 * total energy  :  -102.6718963 Eh     change       -0.9414329E-05 Eh
   gradient norm :     0.0020424 Eh/α   predicted    -0.5132468E-05 ( -45.48%)
   displ. norm   :     0.1251190 α      lambda       -0.4115044E-04
   maximum displ.:     0.0737439 α      in ANC's #2, #7, #3, ...

........................................................................
.............................. CYCLE   25 ..............................
........................................................................

 iter      E             dE          RMSdq      gap      omega  full diag
   1   -103.9646352 -0.103965E+03  0.175E-02    1.59       0.0  T
   2   -103.9646357 -0.494755E-06  0.102E-02    1.59       1.2  T
   3   -103.9646355  0.250432E-06  0.274E-03    1.59       4.5  T
   4   -103.9646358 -0.355391E-06  0.697E-04    1.59      17.7  T
   5   -103.9646359 -0.187493E-07  0.322E-04    1.59      38.2  T
     SCC iter.                  ...        0 min,  0.077 sec
     gradient                   ...        0 min,  0.102 sec
 * total energy  :  -102.6719248 Eh     change       -0.2853402E-04 Eh
   gradient norm :     0.0011676 Eh/α   predicted    -0.2089750E-04 ( -26.76%)
   displ. norm   :     0.1946255 α      lambda       -0.2104310E-04
   maximum displ.:     0.1169830 α      in ANC's #2, #3, #7, ...

........................................................................
.............................. CYCLE   26 ..............................
........................................................................

 iter      E             dE          RMSdq      gap      omega  full diag
   1   -103.9642122 -0.103964E+03  0.240E-02    1.59       0.0  T
   2   -103.9642126 -0.465101E-06  0.138E-02    1.59       1.0  T
   3   -103.9642125  0.827920E-07  0.226E-03    1.59       5.4  T
   4   -103.9642127 -0.193236E-06  0.886E-04    1.59      13.9  T
   5   -103.9642128 -0.211818E-07  0.405E-04    1.59      30.4  T
     SCC iter.                  ...        0 min,  0.076 sec
     gradient                   ...        0 min,  0.095 sec
 * total energy  :  -102.6719463 Eh     change       -0.2150125E-04 Eh
   gradient norm :     0.0026335 Eh/α   predicted    -0.1069931E-04 ( -50.24%)
   displ. norm   :     0.0939087 α      lambda       -0.1600639E-04
   maximum displ.:     0.0581767 α      in ANC's #2, #3, #7, ...

........................................................................
.............................. CYCLE   27 ..............................
........................................................................

 iter      E             dE          RMSdq      gap      omega  full diag
   1   -103.9643253 -0.103964E+03  0.112E-02    1.59       0.0  T
   2   -103.9643254 -0.105118E-06  0.631E-03    1.59       2.0  T
   3   -103.9643254  0.183702E-07  0.118E-03    1.59      10.5  T
   4   -103.9643254 -0.431764E-07  0.505E-04    1.59      24.4  T
   5   -103.9643254 -0.529384E-08  0.186E-04    1.59      66.3  T
     SCC iter.                  ...        0 min,  0.076 sec
     gradient                   ...        0 min,  0.109 sec
 * total energy  :  -102.6719607 Eh     change       -0.1441788E-04 Eh
   gradient norm :     0.0021960 Eh/α   predicted    -0.8076351E-05 ( -43.98%)
   displ. norm   :     0.1384543 α      lambda       -0.2643336E-04
   maximum displ.:     0.0878165 α      in ANC's #2, #3, #7, ...

........................................................................
.............................. CYCLE   28 ..............................
........................................................................

 iter      E             dE          RMSdq      gap      omega  full diag
   1   -103.9647170 -0.103965E+03  0.156E-02    1.59       0.0  T
   2   -103.9647173 -0.346301E-06  0.874E-03    1.59       1.4  T
   3   -103.9647171  0.160672E-06  0.247E-03    1.59       5.0  T
   4   -103.9647174 -0.244041E-06  0.817E-04    1.59      15.1  T
   5   -103.9647174 -0.121550E-07  0.337E-04    1.59      36.5  T
     SCC iter.                  ...        0 min,  0.072 sec
     gradient                   ...        0 min,  0.117 sec
 * total energy  :  -102.6719824 Eh     change       -0.2172625E-04 Eh
   gradient norm :     0.0009706 Eh/α   predicted    -0.1347405E-04 ( -37.98%)
   displ. norm   :     0.2344212 α      lambda       -0.2301271E-04
   maximum displ.:     0.1521945 α      in ANC's #2, #3, #7, ...

........................................................................
.............................. CYCLE   29 ..............................
........................................................................

 iter      E             dE          RMSdq      gap      omega  full diag
   1   -103.9649396 -0.103965E+03  0.252E-02    1.60       0.0  T
   2   -103.9649404 -0.769601E-06  0.143E-02    1.60       1.0  T
   3   -103.9649400  0.330859E-06  0.356E-03    1.60       3.5  T
   4   -103.9649405 -0.505085E-06  0.123E-03    1.60      10.0  T
   5   -103.9649406 -0.385424E-07  0.498E-04    1.60      24.7  T
   6   -103.9649406 -0.694415E-08  0.160E-04    1.60      77.0  T
     SCC iter.                  ...        0 min,  0.069 sec
     gradient                   ...        0 min,  0.108 sec
 * total energy  :  -102.6720089 Eh     change       -0.2646760E-04 Eh
   gradient norm :     0.0015922 Eh/α   predicted    -0.1179302E-04 ( -55.44%)
   displ. norm   :     0.1682162 α      lambda       -0.1617012E-04
   maximum displ.:     0.1116334 α      in ANC's #2, #3, #4, ...

........................................................................
.............................. CYCLE   30 ..............................
........................................................................

 iter      E             dE          RMSdq      gap      omega  full diag
   1   -103.9649659 -0.103965E+03  0.168E-02    1.60       0.0  T
   2   -103.9649661 -0.220135E-06  0.965E-03    1.60       1.3  T
   3   -103.9649660  0.458245E-07  0.162E-03    1.60       7.6  T
   4   -103.9649661 -0.861680E-07  0.710E-04    1.60      17.3  T
   5   -103.9649662 -0.213994E-07  0.285E-04    1.60      43.3  T
     SCC iter.                  ...        0 min,  0.071 sec
     gradient                   ...        0 min,  0.108 sec
 * total energy  :  -102.6720316 Eh     change       -0.2273591E-04 Eh
   gradient norm :     0.0018639 Eh/α   predicted    -0.8190749E-05 ( -63.97%)
   displ. norm   :     0.2094494 α      lambda       -0.2609479E-04
   maximum displ.:     0.1380751 α      in ANC's #2, #3, #4, ...

........................................................................
.............................. CYCLE   31 ..............................
........................................................................

 iter      E             dE          RMSdq      gap      omega  full diag
   1   -103.9649156 -0.103965E+03  0.204E-02    1.60       0.0  T
   2   -103.9649159 -0.279978E-06  0.119E-02    1.60       1.0  T
   3   -103.9649159  0.721728E-08  0.150E-03    1.60       8.2  T
   4   -103.9649159 -0.574979E-07  0.690E-04    1.60      17.8  T
   5   -103.9649160 -0.182251E-07  0.332E-04    1.60      37.1  T
     SCC iter.                  ...        0 min,  0.078 sec
     gradient                   ...        0 min,  0.102 sec
 * total energy  :  -102.6720677 Eh     change       -0.3607646E-04 Eh
   gradient norm :     0.0015719 Eh/α   predicted    -0.1330376E-04 ( -63.12%)
   displ. norm   :     0.3482201 α      lambda       -0.4149554E-04
   maximum displ.:     0.2271458 α      in ANC's #2, #3, #4, ...

........................................................................
.............................. CYCLE   32 ..............................
........................................................................

 iter      E             dE          RMSdq      gap      omega  full diag
   1   -103.9645200 -0.103965E+03  0.323E-02    1.59       0.0  T
   2   -103.9645206 -0.628085E-06  0.188E-02    1.60       1.0  T
   3   -103.9645205  0.112128E-06  0.246E-03    1.60       5.0  T
   4   -103.9645207 -0.250848E-06  0.106E-03    1.60      11.6  T
   5   -103.9645208 -0.424269E-07  0.506E-04    1.60      24.3  T
   6   -103.9645208 -0.339145E-08  0.145E-04    1.60      84.9  T
     SCC iter.                  ...        0 min,  0.089 sec
     gradient                   ...        0 min,  0.095 sec
 * total energy  :  -102.6721227 Eh     change       -0.5498774E-04 Eh
   gradient norm :     0.0016975 Eh/α   predicted    -0.2187033E-04 ( -60.23%)
   displ. norm   :     0.4614472 α      lambda       -0.4828316E-04
   maximum displ.:     0.3004031 α      in ANC's #2, #3, #4, ...

........................................................................
.............................. CYCLE   33 ..............................
........................................................................

 iter      E             dE          RMSdq      gap      omega  full diag
   1   -103.9638745 -0.103964E+03  0.419E-02    1.59       0.0  T
   2   -103.9638754 -0.917482E-06  0.244E-02    1.59       1.0  T
   3   -103.9638751  0.282929E-06  0.325E-03    1.59       3.8  T
   4   -103.9638757 -0.544596E-06  0.130E-03    1.59       9.4  T
   5   -103.9638757 -0.482459E-07  0.612E-04    1.59      20.1  T
   6   -103.9638757 -0.465234E-08  0.181E-04    1.59      68.1  T
     SCC iter.                  ...        0 min,  0.082 sec
     gradient                   ...        0 min,  0.105 sec
 * total energy  :  -102.6721863 Eh     change       -0.6357329E-04 Eh
   gradient norm :     0.0023432 Eh/α   predicted    -0.2642800E-04 ( -58.43%)
   displ. norm   :     0.3633710 α      lambda       -0.5437628E-04
   maximum displ.:     0.2372378 α      in ANC's #2, #3, #4, ...

........................................................................
.............................. CYCLE   34 ..............................
........................................................................

 iter      E             dE          RMSdq      gap      omega  full diag
   1   -103.9637898 -0.103964E+03  0.322E-02    1.59       0.0  T
   2   -103.9637904 -0.555140E-06  0.187E-02    1.59       1.0  T
   3   -103.9637901  0.312973E-06  0.291E-03    1.59       4.2  T
   4   -103.9637906 -0.501873E-06  0.102E-03    1.59      12.0  T
   5   -103.9637906 -0.202602E-07  0.452E-04    1.59      27.2  T
   6   -103.9637906 -0.272253E-08  0.151E-04    1.59      81.4  T
     SCC iter.                  ...        0 min,  0.088 sec
     gradient                   ...        0 min,  0.113 sec
 * total energy  :  -102.6722366 Eh     change       -0.5035624E-04 Eh
   gradient norm :     0.0025122 Eh/α   predicted    -0.3078821E-04 ( -38.86%)
   displ. norm   :     0.5110818 α      lambda       -0.7890936E-04
   maximum displ.:     0.3347175 α      in ANC's #2, #3, #4, ...

........................................................................
.............................. CYCLE   35 ..............................
........................................................................

 iter      E             dE          RMSdq      gap      omega  full diag
   1   -103.9634955 -0.103963E+03  0.456E-02    1.58       0.0  T
   2   -103.9634966 -0.114122E-05  0.264E-02    1.58       1.0  T
   3   -103.9634959  0.757321E-06  0.440E-03    1.58       2.8  T
   4   -103.9634970 -0.116295E-05  0.150E-03    1.58       8.2  T
   5   -103.9634971 -0.369515E-07  0.622E-04    1.58      19.8  T
   6   -103.9634971 -0.646413E-08  0.221E-04    1.58      55.8  T
     SCC iter.                  ...        0 min,  0.075 sec
     gradient                   ...        0 min,  0.113 sec
 * total energy  :  -102.6723090 Eh     change       -0.7235895E-04 Eh
   gradient norm :     0.0026362 Eh/α   predicted    -0.4976138E-04 ( -31.23%)
   displ. norm   :     0.6519306 α      lambda       -0.1041944E-03
   maximum displ.:     0.4296317 α      in ANC's #2, #3, #4, ...

........................................................................
.............................. CYCLE   36 ..............................
........................................................................

 iter      E             dE          RMSdq      gap      omega  full diag
   1   -103.9629928 -0.103963E+03  0.583E-02    1.57       0.0  T
   2   -103.9629948 -0.198281E-05  0.337E-02    1.57       1.0  T
   3   -103.9629933  0.144077E-05  0.601E-03    1.57       2.0  T
   4   -103.9629955 -0.214845E-05  0.202E-03    1.57       6.1  T
   5   -103.9629956 -0.661511E-07  0.811E-04    1.57      15.2  T
   6   -103.9629956 -0.126286E-07  0.294E-04    1.57      41.8  T
     SCC iter.                  ...        0 min,  0.031 sec
     gradient                   ...        0 min,  0.105 sec
 * total energy  :  -102.6724023 Eh     change       -0.9331539E-04 Eh
   gradient norm :     0.0028537 Eh/α   predicted    -0.7423934E-04 ( -20.44%)
   displ. norm   :     0.6927119 α      lambda       -0.1216192E-03
   maximum displ.:     0.4612937 α      in ANC's #2, #3, #1, ...

........................................................................
.............................. CYCLE   37 ..............................
........................................................................

 iter      E             dE          RMSdq      gap      omega  full diag
   1   -103.9633060 -0.103963E+03  0.625E-02    1.56       0.0  T
   2   -103.9633084 -0.241336E-05  0.360E-02    1.56       1.0  T
   3   -103.9633066  0.185532E-05  0.686E-03    1.56       1.8  T
   4   -103.9633093 -0.271234E-05  0.231E-03    1.56       5.3  T
   5   -103.9633094 -0.904039E-07  0.895E-04    1.56      13.7  T
   6   -103.9633094 -0.174031E-07  0.331E-04    1.56      37.1  T
     SCC iter.                  ...        0 min,  0.030 sec
     gradient                   ...        0 min,  0.109 sec
 * total energy  :  -102.6725093 Eh     change       -0.1069990E-03 Eh
   gradient norm :     0.0028124 Eh/α   predicted    -0.8999071E-04 ( -15.90%)
   displ. norm   :     0.6687410 α      lambda       -0.1296025E-03
   maximum displ.:     0.4502757 α      in ANC's #2, #3, #1, ...

........................................................................
.............................. CYCLE   38 ..............................
........................................................................

 iter      E             dE          RMSdq      gap      omega  full diag
   1   -103.9648056 -0.103965E+03  0.628E-02    1.55       0.0  T
   2   -103.9648082 -0.255057E-05  0.361E-02    1.55       1.0  T
   3   -103.9648062  0.203412E-05  0.725E-03    1.55       1.7  T
   4   -103.9648091 -0.293670E-05  0.239E-03    1.55       5.2  T
   5   -103.9648092 -0.969151E-07  0.929E-04    1.55      13.2  T
   6   -103.9648092 -0.198622E-07  0.346E-04    1.55      35.5  T
     SCC iter.                  ...        0 min,  0.030 sec
     gradient                   ...        0 min,  0.162 sec
 * total energy  :  -102.6726221 Eh     change       -0.1128326E-03 Eh
   gradient norm :     0.0027984 Eh/α   predicted    -0.9378109E-04 ( -16.88%)
   displ. norm   :     0.7731668 α      lambda       -0.1335985E-03
   maximum displ.:     0.5227475 α      in ANC's #2, #3, #1, ...

........................................................................
.............................. CYCLE   39 ..............................
........................................................................

 iter      E             dE          RMSdq      gap      omega  full diag
   1   -103.9633128 -0.103963E+03  0.740E-02    1.53       0.0  T
   2   -103.9633165 -0.373637E-05  0.426E-02    1.54       1.0  T
   3   -103.9633133  0.316699E-05  0.874E-03    1.54       1.4  T
   4   -103.9633178 -0.449301E-05  0.266E-03    1.54       4.6  T
   5   -103.9633179 -0.110289E-06  0.112E-03    1.54      11.0  T
   6   -103.9633180 -0.243909E-07  0.411E-04    1.54      29.9  T
   7   -103.9633180 -0.396911E-08  0.202E-04    1.54      60.9  T
     SCC iter.                  ...        0 min,  0.080 sec
     gradient                   ...        0 min,  0.112 sec
 * total energy  :  -102.6727385 Eh     change       -0.1163158E-03 Eh
   gradient norm :     0.0040532 Eh/α   predicted    -0.1067316E-03 (  -8.24%)
   displ. norm   :     0.6423141 α      lambda       -0.1975441E-03
   maximum displ.:     0.4356596 α      in ANC's #2, #3, #1, ...

........................................................................
.............................. CYCLE   40 ..............................
........................................................................

 iter      E             dE          RMSdq      gap      omega  full diag
   1   -103.9698253 -0.103970E+03  0.722E-02    1.52       0.0  T
   2   -103.9698294 -0.405753E-05  0.415E-02    1.52       1.0  T
   3   -103.9698266  0.276655E-05  0.889E-03    1.53       1.4  T
   4   -103.9698306 -0.402585E-05  0.275E-03    1.53       4.5  T
   5   -103.9698308 -0.160225E-06  0.117E-03    1.53      10.5  T
   6   -103.9698308 -0.244973E-07  0.448E-04    1.53      27.5  T
   7   -103.9698308 -0.595043E-08  0.196E-04    1.53      62.9  T
     SCC iter.                  ...        0 min,  0.094 sec
     gradient                   ...        0 min,  0.106 sec
 * total energy  :  -102.6728504 Eh     change       -0.1119689E-03 Eh
   gradient norm :     0.0049473 Eh/α   predicted    -0.1395212E-03 (  24.61%)
   displ. norm   :     0.7624842 α      lambda       -0.1654553E-03
   maximum displ.:     0.5209426 α      in ANC's #2, #3, #1, ...

........................................................................
.............................. CYCLE   41 ..............................
........................................................................

 iter      E             dE          RMSdq      gap      omega  full diag
   1   -103.9638297 -0.103964E+03  0.733E-02    1.51       0.0  T
   2   -103.9638339 -0.417415E-05  0.423E-02    1.51       1.0  T
   3   -103.9638309  0.305491E-05  0.849E-03    1.51       1.5  T
   4   -103.9638352 -0.434737E-05  0.257E-03    1.51       4.8  T
   5   -103.9638353 -0.140413E-06  0.118E-03    1.51      10.5  T
   6   -103.9638354 -0.170103E-07  0.426E-04    1.51      28.9  T
   7   -103.9638354 -0.490003E-08  0.194E-04    1.51      63.3  T
     SCC iter.                  ...        0 min,  0.080 sec
     gradient                   ...        0 min,  0.115 sec
 * total energy  :  -102.6729767 Eh     change       -0.1263012E-03 Eh
   gradient norm :     0.0050093 Eh/α   predicted    -0.1308232E-03 (   3.58%)
   displ. norm   :     0.5319647 α      lambda       -0.1206286E-03
   maximum displ.:     0.3704589 α      in ANC's #2, #3, #1, ...

........................................................................
.............................. CYCLE   42 ..............................
........................................................................

 iter      E             dE          RMSdq      gap      omega  full diag
   1   -103.9617182 -0.103962E+03  0.513E-02    1.50       0.0  T
   2   -103.9617203 -0.214252E-05  0.296E-02    1.50       1.0  T
   3   -103.9617189  0.146520E-05  0.618E-03    1.50       2.0  T
   4   -103.9617210 -0.212676E-05  0.186E-03    1.50       6.6  T
   5   -103.9617211 -0.978245E-07  0.857E-04    1.50      14.4  T
   6   -103.9617211 -0.951466E-08  0.309E-04    1.50      39.9  T
     SCC iter.                  ...        0 min,  0.030 sec
     gradient                   ...        0 min,  0.161 sec
 * total energy  :  -102.6730713 Eh     change       -0.9458961E-04 Eh
   gradient norm :     0.0053089 Eh/α   predicted    -0.7738601E-04 ( -18.19%)
   displ. norm   :     0.3997336 α      lambda       -0.1819240E-03
   maximum displ.:     0.2786635 α      in ANC's #2, #3, #1, ...
 * RMSD in coord.:     0.9646290 α      energy gain  -0.1268618E-02 Eh

generating ANC from exact Hessian ...
Using Lindh-Hessian (1995)
 Shifting diagonal of input Hessian by    9.8896369262880882E-003
 Lowest  eigenvalues of input Hessian
    0.000000    0.000000    0.000000    0.000000    0.000000    0.000000
    0.010000    0.010039    0.010137    0.010510    0.010879    0.011007
    0.011338    0.011631    0.011686    0.011930    0.012454    0.012785
 Highest eigenvalues
    2.094802    2.201823    2.360565    2.433296    2.786338    3.540790


........................................................................
.............................. CYCLE   43 ..............................
........................................................................

 iter      E             dE          RMSdq      gap      omega  full diag
   1   -103.9646063 -0.103965E+03  0.453E-02    1.49       0.0  T
   2   -103.9646090 -0.270611E-05  0.258E-02    1.50       1.0  T
   3   -103.9646082  0.810905E-06  0.666E-03    1.50       1.8  T
   4   -103.9646094 -0.124690E-05  0.244E-03    1.50       5.0  T
   5   -103.9646097 -0.247161E-06  0.103E-03    1.50      11.9  T
   6   -103.9646097 -0.180077E-07  0.351E-04    1.50      35.0  T
   7   -103.9646097 -0.456211E-08  0.154E-04    1.50      80.1  T
     SCC iter.                  ...        0 min,  0.035 sec
     gradient                   ...        0 min,  0.162 sec
 * total energy  :  -102.6732015 Eh     change       -0.1302116E-03 Eh
   gradient norm :     0.0046557 Eh/α   predicted     0.0000000E+00 (-100.00%)
   displ. norm   :     0.0378959 α      lambda       -0.6540243E-04
   maximum displ.:     0.0182061 α      in ANC's #2, #19, #11, ...

........................................................................
.............................. CYCLE   44 ..............................
........................................................................

 iter      E             dE          RMSdq      gap      omega  full diag
   1   -103.9669335 -0.103967E+03  0.115E-02    1.50       0.0  T
   2   -103.9669338 -0.361553E-06  0.675E-03    1.50       1.8  T
   3   -103.9669337  0.121329E-06  0.222E-03    1.50       5.6  T
   4   -103.9669339 -0.185086E-06  0.557E-04    1.50      22.1  T
   5   -103.9669339 -0.634384E-08  0.236E-04    1.50      52.2  T
     SCC iter.                  ...        0 min,  0.025 sec
     gradient                   ...        0 min,  0.158 sec
 * total energy  :  -102.6732471 Eh     change       -0.4552980E-04 Eh
   gradient norm :     0.0015606 Eh/α   predicted    -0.3279807E-04 ( -27.96%)
   displ. norm   :     0.0926960 α      lambda       -0.3664976E-04
   maximum displ.:     0.0499903 α      in ANC's #2, #19, #11, ...

........................................................................
.............................. CYCLE   45 ..............................
........................................................................

 iter      E             dE          RMSdq      gap      omega  full diag
   1   -103.9690584 -0.103969E+03  0.164E-02    1.50       0.0  T
   2   -103.9690588 -0.468492E-06  0.958E-03    1.50       1.3  T
   3   -103.9690586  0.211890E-06  0.275E-03    1.50       4.5  T
   4   -103.9690589 -0.305376E-06  0.699E-04    1.50      17.6  T
   5   -103.9690589 -0.937628E-08  0.309E-04    1.50      39.8  T
     SCC iter.                  ...        0 min,  0.026 sec
     gradient                   ...        0 min,  0.107 sec
 * total energy  :  -102.6732802 Eh     change       -0.3310943E-04 Eh
   gradient norm :     0.0023555 Eh/α   predicted    -0.1839709E-04 ( -44.44%)
   displ. norm   :     0.0733547 α      lambda       -0.2872273E-04
   maximum displ.:     0.0397994 α      in ANC's #2, #19, #11, ...

........................................................................
.............................. CYCLE   46 ..............................
........................................................................

 iter      E             dE          RMSdq      gap      omega  full diag
   1   -103.9689292 -0.103969E+03  0.101E-02    1.50       0.0  T
   2   -103.9689292 -0.412232E-07  0.591E-03    1.50       2.1  T
   3   -103.9689292  0.720615E-08  0.700E-04    1.50      17.6  T
   4   -103.9689292 -0.169264E-07  0.341E-04    1.50      36.1  T
     SCC iter.                  ...        0 min,  0.020 sec
     gradient                   ...        0 min,  0.109 sec
 * total energy  :  -102.6733066 Eh     change       -0.2645337E-04 Eh
   gradient norm :     0.0025273 Eh/α   predicted    -0.1449958E-04 ( -45.19%)
   displ. norm   :     0.3085071 α      lambda       -0.1145757E-03
   maximum displ.:     0.1612832 α      in ANC's #2, #19, #11, ...

........................................................................
.............................. CYCLE   47 ..............................
........................................................................

 iter      E             dE          RMSdq      gap      omega  full diag
   1   -103.9668634 -0.103967E+03  0.401E-02    1.49       0.0  T
   2   -103.9668642 -0.759595E-06  0.235E-02    1.49       1.0  T
   3   -103.9668642 -0.590955E-07  0.241E-03    1.49       5.1  T
   4   -103.9668643 -0.921435E-07  0.129E-03    1.49       9.6  T
   5   -103.9668644 -0.415307E-07  0.565E-04    1.49      21.8  T
   6   -103.9668644 -0.769333E-08  0.168E-04    1.49      73.4  T
     SCC iter.                  ...        0 min,  0.030 sec
     gradient                   ...        0 min,  0.112 sec
 * total energy  :  -102.6733838 Eh     change       -0.7716939E-04 Eh
   gradient norm :     0.0032823 Eh/α   predicted    -0.6274425E-04 ( -18.69%)
   displ. norm   :     0.1695993 α      lambda       -0.4045914E-04
   maximum displ.:     0.0943992 α      in ANC's #2, #19, #14, ...

........................................................................
.............................. CYCLE   48 ..............................
........................................................................

 iter      E             dE          RMSdq      gap      omega  full diag
   1   -103.9660615 -0.103966E+03  0.202E-02    1.49       0.0  T
   2   -103.9660617 -0.228820E-06  0.119E-02    1.49       1.0  T
   3   -103.9660616  0.711596E-07  0.186E-03    1.49       6.6  T
   4   -103.9660618 -0.112940E-06  0.723E-04    1.49      17.0  T
   5   -103.9660618 -0.146771E-07  0.307E-04    1.49      40.0  T
     SCC iter.                  ...        0 min,  0.026 sec
     gradient                   ...        0 min,  0.160 sec
 * total energy  :  -102.6734137 Eh     change       -0.2996126E-04 Eh
   gradient norm :     0.0032813 Eh/α   predicted    -0.2081716E-04 ( -30.52%)
   displ. norm   :     0.1538087 α      lambda       -0.5142976E-04
   maximum displ.:     0.0921352 α      in ANC's #2, #19, #1, ...

........................................................................
.............................. CYCLE   49 ..............................
........................................................................

 iter      E             dE          RMSdq      gap      omega  full diag
   1   -103.9664498 -0.103966E+03  0.171E-02    1.49       0.0  T
   2   -103.9664502 -0.401027E-06  0.101E-02    1.49       1.2  T
   3   -103.9664500  0.231794E-06  0.281E-03    1.49       4.4  T
   4   -103.9664503 -0.296049E-06  0.842E-04    1.49      14.6  T
   5   -103.9664503 -0.224093E-07  0.357E-04    1.49      34.5  T
     SCC iter.                  ...        0 min,  0.026 sec
     gradient                   ...        0 min,  0.155 sec
 * total energy  :  -102.6734541 Eh     change       -0.4035170E-04 Eh
   gradient norm :     0.0022015 Eh/α   predicted    -0.2633108E-04 ( -34.75%)
   displ. norm   :     0.2504976 α      lambda       -0.6827263E-04
   maximum displ.:     0.1502884 α      in ANC's #2, #19, #1, ...

........................................................................
.............................. CYCLE   50 ..............................
........................................................................

 iter      E             dE          RMSdq      gap      omega  full diag
   1   -103.9665535 -0.103967E+03  0.271E-02    1.48       0.0  T
   2   -103.9665541 -0.600326E-06  0.160E-02    1.48       1.0  T
   3   -103.9665535  0.588176E-06  0.398E-03    1.48       3.1  T
   4   -103.9665542 -0.737728E-06  0.118E-03    1.48      10.4  T
   5   -103.9665543 -0.301317E-07  0.529E-04    1.48      23.3  T
   6   -103.9665543 -0.495635E-08  0.161E-04    1.48      76.6  T
     SCC iter.                  ...        0 min,  0.081 sec
     gradient                   ...        0 min,  0.058 sec
 * total energy  :  -102.6735103 Eh     change       -0.5621440E-04 Eh
   gradient norm :     0.0034054 Eh/α   predicted    -0.3628000E-04 ( -35.46%)
   displ. norm   :     0.3486896 α      lambda       -0.1076134E-03
   maximum displ.:     0.2142556 α      in ANC's #2, #1, #19, ...

........................................................................
.............................. CYCLE   51 ..............................
........................................................................

 iter      E             dE          RMSdq      gap      omega  full diag
   1   -103.9670489 -0.103967E+03  0.390E-02    1.47       0.0  T
   2   -103.9670499 -0.101860E-05  0.228E-02    1.47       1.0  T
   3   -103.9670486  0.131022E-05  0.566E-03    1.48       2.2  T
   4   -103.9670503 -0.166786E-05  0.173E-03    1.48       7.1  T
   5   -103.9670503 -0.392753E-07  0.705E-04    1.48      17.5  T
   6   -103.9670503 -0.123635E-07  0.217E-04    1.48      56.7  T
     SCC iter.                  ...        0 min,  0.030 sec
     gradient                   ...        0 min,  0.106 sec
 * total energy  :  -102.6735966 Eh     change       -0.8626436E-04 Eh
   gradient norm :     0.0052945 Eh/α   predicted    -0.6036054E-04 ( -30.03%)
   displ. norm   :     0.3990840 α      lambda       -0.1234299E-03
   maximum displ.:     0.2494477 α      in ANC's #2, #1, #19, ...

........................................................................
.............................. CYCLE   52 ..............................
........................................................................

 iter      E             dE          RMSdq      gap      omega  full diag
   1   -103.9670794 -0.103967E+03  0.464E-02    1.46       0.0  T
   2   -103.9670806 -0.120303E-05  0.269E-02    1.47       1.0  T
   3   -103.9670795  0.114143E-05  0.569E-03    1.47       2.2  T
   4   -103.9670809 -0.149822E-05  0.218E-03    1.47       5.6  T
   5   -103.9670811 -0.136645E-06  0.736E-04    1.47      16.7  T
   6   -103.9670811 -0.912306E-08  0.263E-04    1.47      46.7  T
     SCC iter.                  ...        0 min,  0.030 sec
     gradient                   ...        0 min,  0.106 sec
 * total energy  :  -102.6736944 Eh     change       -0.9780675E-04 Eh
   gradient norm :     0.0057698 Eh/α   predicted    -0.7155523E-04 ( -26.84%)
   displ. norm   :     0.3670702 α      lambda       -0.1273888E-03
   maximum displ.:     0.2329026 α      in ANC's #2, #1, #14, ...

........................................................................
.............................. CYCLE   53 ..............................
........................................................................

 iter      E             dE          RMSdq      gap      omega  full diag
   1   -103.9686908 -0.103969E+03  0.462E-02    1.45       0.0  T
   2   -103.9686928 -0.207328E-05  0.263E-02    1.46       1.0  T
   3   -103.9686923  0.542996E-06  0.585E-03    1.46       2.1  T
   4   -103.9686930 -0.682552E-06  0.270E-03    1.46       4.6  T
   5   -103.9686933 -0.356673E-06  0.916E-04    1.46      13.4  T
   6   -103.9686933 -0.512827E-08  0.296E-04    1.46      41.6  T
     SCC iter.                  ...        0 min,  0.030 sec
     gradient                   ...        0 min,  0.103 sec
 * total energy  :  -102.6737734 Eh     change       -0.7897382E-04 Eh
   gradient norm :     0.0043738 Eh/α   predicted    -0.7227736E-04 (  -8.48%)
   displ. norm   :     0.6229252 α      lambda       -0.1677353E-03
   maximum displ.:     0.3960868 α      in ANC's #2, #1, #19, ...

........................................................................
.............................. CYCLE   54 ..............................
........................................................................

 iter      E             dE          RMSdq      gap      omega  full diag
   1   -103.9613759 -0.103961E+03  0.734E-02    1.44       0.0  T
   2   -103.9613839 -0.804254E-05  0.421E-02    1.44       1.0  T
   3   -103.9613834  0.514759E-06  0.865E-03    1.44       1.4  T
   4   -103.9613844 -0.976741E-06  0.377E-03    1.44       3.3  T
   5   -103.9613851 -0.692878E-06  0.148E-03    1.44       8.3  T
   6   -103.9613851 -0.200472E-07  0.425E-04    1.44      29.0  T
   7   -103.9613851 -0.606111E-08  0.194E-04    1.44      63.4  T
     SCC iter.                  ...        0 min,  0.035 sec
     gradient                   ...        0 min,  0.104 sec
 * total energy  :  -102.6736953 Eh     change        0.7805958E-04 Eh
   gradient norm :     0.0121062 Eh/α   predicted    -0.1164168E-03 (-249.14%)
   displ. norm   :     0.2319511 α      lambda       -0.3598761E-03
   maximum displ.:     0.1265202 α      in ANC's #2, #19, #1, ...

........................................................................
.............................. CYCLE   55 ..............................
........................................................................

 iter      E             dE          RMSdq      gap      omega  full diag
   1   -103.9676507 -0.103968E+03  0.360E-02    1.45       0.0  T
   2   -103.9676545 -0.373774E-05  0.205E-02    1.45       1.0  T
   3   -103.9676545 -0.681191E-07  0.490E-03    1.45       2.5  T
   4   -103.9676547 -0.147625E-06  0.177E-03    1.45       6.9  T
   5   -103.9676548 -0.117504E-06  0.877E-04    1.45      14.0  T
   6   -103.9676548 -0.136786E-07  0.219E-04    1.45      56.2  T
     SCC iter.                  ...        0 min,  0.030 sec
     gradient                   ...        0 min,  0.104 sec
 * total energy  :  -102.6738665 Eh     change       -0.1712034E-03 Eh
   gradient norm :     0.0023598 Eh/α   predicted    -0.1896210E-03 (  10.76%)
   displ. norm   :     0.1186626 α      lambda       -0.4147870E-04
   maximum displ.:     0.0833214 α      in ANC's #2, #1, #3, ...

........................................................................
.............................. CYCLE   56 ..............................
........................................................................

 iter      E             dE          RMSdq      gap      omega  full diag
   1   -103.9683364 -0.103968E+03  0.117E-02    1.44       0.0  T
   2   -103.9683366 -0.169842E-06  0.670E-03    1.44       1.8  T
   3   -103.9683366  0.413419E-07  0.164E-03    1.44       7.5  T
   4   -103.9683366 -0.482344E-07  0.652E-04    1.44      18.9  T
   5   -103.9683366 -0.252485E-07  0.213E-04    1.44      57.8  T
     SCC iter.                  ...        0 min,  0.058 sec
     gradient                   ...        0 min,  0.097 sec
 * total energy  :  -102.6739042 Eh     change       -0.3766058E-04 Eh
   gradient norm :     0.0019010 Eh/α   predicted    -0.2103345E-04 ( -44.15%)
   displ. norm   :     0.5616489 α      lambda       -0.1275206E-03
   maximum displ.:     0.3886844 α      in ANC's #2, #1, #3, ...

........................................................................
.............................. CYCLE   57 ..............................
........................................................................

 iter      E             dE          RMSdq      gap      omega  full diag
   1   -103.9683643 -0.103968E+03  0.576E-02    1.42       0.0  T
   2   -103.9683671 -0.283725E-05  0.333E-02    1.43       1.0  T
   3   -103.9683660  0.114989E-05  0.680E-03    1.43       1.8  T
   4   -103.9683674 -0.145043E-05  0.294E-03    1.43       4.2  T
   5   -103.9683679 -0.449307E-06  0.992E-04    1.43      12.4  T
   6   -103.9683679 -0.887442E-08  0.299E-04    1.43      41.1  T
     SCC iter.                  ...        0 min,  0.075 sec
     gradient                   ...        0 min,  0.098 sec
 * total energy  :  -102.6740293 Eh     change       -0.1251052E-03 Eh
   gradient norm :     0.0049253 Eh/α   predicted    -0.7270324E-04 ( -41.89%)
   displ. norm   :     0.3730571 α      lambda       -0.8238097E-04
   maximum displ.:     0.2594800 α      in ANC's #2, #1, #3, ...

........................................................................
.............................. CYCLE   58 ..............................
........................................................................

 iter      E             dE          RMSdq      gap      omega  full diag
   1   -103.9673878 -0.103967E+03  0.348E-02    1.41       0.0  T
   2   -103.9673888 -0.100846E-05  0.200E-02    1.42       1.0  T
   3   -103.9673879  0.877660E-06  0.475E-03    1.42       2.6  T
   4   -103.9673890 -0.112519E-05  0.175E-03    1.42       7.0  T
   5   -103.9673891 -0.787402E-07  0.593E-04    1.42      20.8  T
   6   -103.9673891 -0.619460E-08  0.205E-04    1.42      60.0  T
     SCC iter.                  ...        0 min,  0.030 sec
     gradient                   ...        0 min,  0.154 sec
 * total energy  :  -102.6740932 Eh     change       -0.6389954E-04 Eh
   gradient norm :     0.0052248 Eh/α   predicted    -0.4692655E-04 ( -26.56%)
   displ. norm   :     0.3889354 α      lambda       -0.9475670E-04
   maximum displ.:     0.2746438 α      in ANC's #2, #1, #3, ...

........................................................................
.............................. CYCLE   59 ..............................
........................................................................

 iter      E             dE          RMSdq      gap      omega  full diag
   1   -103.9669969 -0.103967E+03  0.347E-02    1.40       0.0  T
   2   -103.9669979 -0.102425E-05  0.201E-02    1.41       1.0  T
   3   -103.9669967  0.119756E-05  0.537E-03    1.41       2.3  T
   4   -103.9669983 -0.156210E-05  0.182E-03    1.41       6.8  T
   5   -103.9669983 -0.298166E-07  0.671E-04    1.41      18.4  T
   6   -103.9669983 -0.116732E-07  0.213E-04    1.41      57.9  T
     SCC iter.                  ...        0 min,  0.030 sec
     gradient                   ...        0 min,  0.156 sec
 * total energy  :  -102.6741759 Eh     change       -0.8277672E-04 Eh
   gradient norm :     0.0037368 Eh/α   predicted    -0.5454848E-04 ( -34.10%)
   displ. norm   :     0.4314350 α      lambda       -0.1173176E-03
   maximum displ.:     0.3079756 α      in ANC's #2, #1, #3, ...

........................................................................
.............................. CYCLE   60 ..............................
........................................................................

 iter      E             dE          RMSdq      gap      omega  full diag
   1   -103.9679887 -0.103968E+03  0.375E-02    1.39       0.0  T
[...]
          coordinate file            : /rds/general/user/hgt20/home/callum/QDESCP/Vardenafil_rdkit_conf_9/Vardenafil_rdkit_conf_9.xyz
          omp threads                :                     1


           -------------------------------------------------
          |                 G F N 2 - x T B                 |
           -------------------------------------------------

        Reference                      10.1021/acs.jctc.8b01176
      * Hamiltonian:
        H0-scaling (s, p, d)           1.850000    2.230000    2.230000
        zeta-weighting                 0.500000
      * Dispersion:
        s8                             2.700000
        a1                             0.520000
        a2                             5.000000
        s9                             5.000000
      * Repulsion:
        kExp                           1.500000    1.000000
        rExp                           1.000000
      * Coulomb:
        alpha                          2.000000
        third order                    shell-resolved
        anisotropic                    true
        a3                             3.000000
        a5                             4.000000
        cn-shift                       1.200000
        cn-exp                         4.000000
        max-rad                        5.000000


          ...................................................
          :                      SETUP                      :
          :.................................................:
          :  # basis functions                 174          :
          :  # atomic orbitals                 173          :
          :  # shells                          101          :
          :  # electrons                       184          :
          :  max. iterations                   250          :
          :  Hamiltonian                  GFN2-xTB          :
          :  restarted?                      false          :
          :  GBSA solvation                  false          :
          :  PC potential                    false          :
          :  electronic temp.          300.0000000     K    :
          :  accuracy                    1.0000000          :
          :  -> integral cutoff          0.2500000E+02      :
          :  -> integral neglect         0.1000000E-07      :
          :  -> SCF convergence          0.1000000E-05 Eh   :
          :  -> wf. convergence          0.1000000E-03 e    :
          :  Broyden damping             0.4000000          :
          :  net charge                          0          :
          :  unpaired electrons                  2          :
          ...................................................

 iter      E             dE          RMSdq      gap      omega  full diag
   1   -103.5055386 -0.103506E+03  0.417E+00    0.77       0.0  T
   2   -103.7451470 -0.239608E+00  0.305E+00    0.66       1.0  T
   3   -103.7226787  0.224683E-01  0.202E+00    0.70       1.0  T
   4   -103.7221633  0.515346E-03  0.146E+00    0.70       1.0  T
   5   -103.8198879 -0.977246E-01  0.890E-01    0.85       1.0  T
   6   -103.8566040 -0.367161E-01  0.657E-01    0.62       1.0  T
   7   -103.8740966 -0.174926E-01  0.376E-01    0.83       1.0  T
   8   -103.8401317  0.339649E-01  0.542E-01    0.69       1.0  T
   9   -103.8743364 -0.342047E-01  0.350E-01    0.74       1.0  T
  10   -103.8845582 -0.102218E-01  0.175E-01    0.76       1.0  T
  11   -103.8825686  0.198959E-02  0.185E-01    0.75       1.0  T
  12   -103.8857531 -0.318445E-02  0.129E-01    0.74       1.0  T
  13   -103.8875221 -0.176896E-02  0.507E-02    0.73       1.0  T
  14   -103.8877272 -0.205138E-03  0.296E-02    0.74       1.0  T
  15   -103.8878038 -0.766358E-04  0.160E-02    0.74       1.0  T
  16   -103.8878414 -0.376185E-04  0.412E-03    0.74       3.0  T
  17   -103.8878437 -0.220562E-05  0.160E-03    0.74       7.7  T
  18   -103.8878421  0.150969E-05  0.360E-03    0.74       3.4  T
  19   -103.8878438 -0.163854E-05  0.482E-04    0.74      25.5  T
  20   -103.8878438  0.139225E-07  0.427E-04    0.74      28.8  T
  21   -103.8878438 -0.285284E-07  0.531E-05    0.74     231.8  T

   *** convergence criteria satisfied after 21 iterations ***

         #    Occupation            Energy/Eh            Energy/eV
      -------------------------------------------------------------
         1        2.0000           -0.7643872             -20.8000
       ...           ...                  ...                  ...
        87        2.0000           -0.3994727             -10.8702
        88        2.0000           -0.3913211             -10.6484
        89        2.0000           -0.3897487             -10.6056
        90        1.9818           -0.3827600             -10.4154
        91        1.9432           -0.3816423             -10.3850
        92        1.0750           -0.3765868             -10.2474
        93        1.0000           -0.2698942              -7.3442 (HOMO)
        94        0.0000           -0.2427078              -6.6044 (LUMO)
        95                         -0.2261100              -6.1528
        96                         -0.2044252              -5.5627
        97                         -0.1770593              -4.8180
        98                         -0.1214002              -3.3035
       ...                                ...                  ...
       173                          1.2379544              33.6865
      -------------------------------------------------------------
                  HL-Gap            0.0271864 Eh            0.7398 eV
             Fermi-level           -0.3176370 Eh           -8.6433 eV

 transition dipole moment (au) for excitation:          92          93
     X       Y       Z   
   0.0161  -0.0948   0.0501  total (au/Debye):    0.108   0.276
 dE (eV)             :    2.903
 oscillator strength :  0.11823E-02

 SCC (total)                   0 d,  0 h,  0 min,  0.277 sec
 SCC setup                      ...        0 min,  0.001 sec (  0.271%)
 Dispersion                     ...        0 min,  0.001 sec (  0.390%)
 classical contributions        ...        0 min,  0.000 sec (  0.127%)
 integral evaluation            ...        0 min,  0.016 sec (  5.846%)
 iterations                     ...        0 min,  0.154 sec ( 55.674%)
 molecular gradient             ...        0 min,  0.063 sec ( 22.665%)
 printout                       ...        0 min,  0.042 sec ( 15.023%)

         :::::::::::::::::::::::::::::::::::::::::::::::::::::
         ::                     SUMMARY                     ::
         :::::::::::::::::::::::::::::::::::::::::::::::::::::
         :: total energy            -102.590220957255 Eh    ::
         :: gradient norm              0.135108605414 Eh/a0 ::
         :: HOMO-LUMO gap              0.739779450602 eV    ::
         ::.................................................::
         :: SCC energy              -103.886570383978 Eh    ::
         :: -> isotropic ES            0.137961834929 Eh    ::
         :: -> anisotropic ES         -0.000579784842 Eh    ::
         :: -> anisotropic XC          0.038556140039 Eh    ::
         :: -> dispersion             -0.080499470313 Eh    ::
         :: repulsion energy           1.296349426724 Eh    ::
         :: add. restraining           0.000000000000 Eh    ::
         :: total charge              -0.000000000000 e     ::
         :::::::::::::::::::::::::::::::::::::::::::::::::::::

           -------------------------------------------------
          |                Property Printout                |
           -------------------------------------------------

    * Orbital Energies and Occupations

         #    Occupation            Energy/Eh            Energy/eV
      -------------------------------------------------------------
         1        2.0000           -0.7643872             -20.8000
       ...           ...                  ...                  ...
        81        2.0000           -0.4294433             -11.6857
        82        2.0000           -0.4280917             -11.6490
        83        2.0000           -0.4144587             -11.2780
        84        2.0000           -0.4076526             -11.0928
        85        2.0000           -0.4066112             -11.0645
        86        2.0000           -0.4048230             -11.0158
        87        2.0000           -0.3994727             -10.8702
        88        2.0000           -0.3913211             -10.6484
        89        2.0000           -0.3897487             -10.6056
        90        1.9818           -0.3827600             -10.4154
        91        1.9432           -0.3816423             -10.3850
        92        1.0750           -0.3765868             -10.2474
        93        1.0000           -0.2698942              -7.3442 (HOMO)
        94        0.0000           -0.2427078              -6.6044 (LUMO)
        95                         -0.2261100              -6.1528
        96                         -0.2044252              -5.5627
        97                         -0.1770593              -4.8180
        98                         -0.1214002              -3.3035
        99                         -0.1158806              -3.1533
       100                         -0.0880716              -2.3965
       101                         -0.0737786              -2.0076
       102                         -0.0639022              -1.7389
       103                         -0.0538257              -1.4647
       104                         -0.0283015              -0.7701
       ...                                ...                  ...
       173                          1.2379544              33.6865
      -------------------------------------------------------------
                  HL-Gap            0.0271864 Eh            0.7398 eV
             Fermi-level           -0.3176370 Eh           -8.6433 eV

     #   Z          covCN         q      C6AA      α(0)
     1   6 C        3.751    -0.103    22.523     6.768
     2   6 C        3.802    -0.054    21.544     6.608
     3   6 C        3.804    -0.067    21.779     6.644
     4   6 C        3.128     0.107    25.452     8.260
     5   7 N        1.927    -0.272    27.909     7.833
     6   6 C        3.148     0.075    26.079     8.354
     7   6 C        3.755    -0.114    22.741     6.800
     8   6 C        3.064    -0.018    28.387     8.737
     9   7 N        2.949     0.053    20.313     6.694
    10   7 N        2.769    -0.115    23.513     7.202
    11   6 C        2.857     0.123    25.298     8.244
    12   6 C        2.980    -0.041    29.022     8.837
    13   6 C        2.856     0.125    25.262     8.238
    14   6 C        2.919    -0.067    29.671     8.932
    15   6 C        2.951    -0.047    29.176     8.859
    16   6 C        2.963    -0.097    30.427     9.048
    17  16 S        3.803     1.075   104.534    17.208
    18   8 O        0.860    -0.563    25.236     6.735
    19   7 N        2.738    -0.247    26.437     7.636
    20   6 C        3.824     0.004    20.494     6.442
    21   6 C        3.769    -0.006    20.726     6.488
    22   7 N        2.730    -0.111    23.416     7.187
    23   6 C        3.768    -0.008    20.752     6.492
    24   6 C        3.801     0.003    20.526     6.450
    25   6 C        3.758    -0.007    20.751     6.495
    26   6 C        3.752    -0.114    22.738     6.800
    27   8 O        0.860    -0.560    25.159     6.725
    28   6 C        2.972    -0.054    29.333     8.884
    29   8 O        1.704    -0.295    18.903     5.870
    30   6 C        3.686     0.084    19.373     6.301
    31   6 C        3.751    -0.113    22.722     6.798
    32   7 N        1.845    -0.273    27.941     7.834
    33   6 C        2.777     0.264    22.541     7.776
    34   8 O        0.859    -0.416    22.006     6.290
    35   1 H        0.925     0.040     2.452     2.449
    36   1 H        0.925     0.034     2.528     2.487
    37   1 H        0.925     0.035     2.522     2.483
    38   1 H        0.924     0.050     2.321     2.383
    39   1 H        0.924     0.038     2.470     2.458
    40   1 H        0.924     0.064     2.148     2.292
    41   1 H        0.924     0.038     2.470     2.458
    42   1 H        0.925     0.064     2.157     2.297
    43   1 H        0.925     0.063     2.161     2.299
    44   1 H        0.925     0.070     2.089     2.260
    45   1 H        0.860     0.210     1.058     1.611
    46   1 H        0.926     0.040     2.451     2.448
    47   1 H        0.926     0.047     2.351     2.398
    48   1 H        0.925     0.062     2.175     2.306
    49   1 H        0.923     0.060     2.194     2.317
    50   1 H        0.924     0.056     2.248     2.345
    51   1 H        0.922     0.056     2.248     2.345
    52   1 H        0.925     0.067     2.121     2.277
    53   1 H        0.923     0.063     2.161     2.299
    54   1 H        0.925     0.076     2.022     2.223
    55   1 H        0.923     0.057     2.239     2.340
    56   1 H        0.924     0.046     2.365     2.405
    57   1 H        0.923     0.074     2.047     2.238
    58   1 H        0.925     0.048     2.348     2.396
    59   1 H        0.925     0.053     2.287     2.365
    60   1 H        0.925     0.051     2.302     2.373
    61   1 H        0.926     0.056     2.245     2.343
    62   1 H        0.924     0.036     2.499     2.472
    63   1 H        0.924     0.038     2.471     2.458
    64   1 H        0.925     0.054     2.270     2.356
    65   1 H        0.925     0.052     2.300     2.371
    66   1 H        0.925     0.052     2.292     2.368

 Mol. C6AA /au·bohr⁶  :      48195.876665
 Mol. C8AA /au·bohr⁸  :    1143087.111277
 Mol. α(0) /au        :        335.388591


Wiberg/Mayer (AO) data.
largest (>0.10) Wiberg bond orders for each atom

 ---------------------------------------------------------------------------
     #   Z sym  total        # sym  WBO       # sym  WBO       # sym  WBO
 ---------------------------------------------------------------------------
     1   6 C    3.996 --     2 C    1.021    37 H    0.987    35 H    0.986
                            36 H    0.982
     2   6 C    3.991 --     1 C    1.021     3 C    0.983    38 H    0.978
                            39 H    0.977
     3   6 C    3.994 --     4 C    1.018     2 C    0.983    41 H    0.968
                            40 H    0.965
     4   6 C    3.925 --     5 N    1.428     9 N    1.241     3 C    1.018
     5   7 N    3.022 --     4 C    1.428     6 C    1.298
     6   6 C    3.921 --     8 C    1.407     5 N    1.298     7 C    1.038
     7   6 C    3.987 --     6 C    1.038    44 H    0.977    43 H    0.968
                            42 H    0.961
     8   6 C    3.841 --     6 C    1.407     9 N    1.123    33 C    1.005
     9   7 N    3.632 --     4 C    1.241     8 C    1.123    10 N    1.034
    10   7 N    3.364 --    11 C    1.125     9 N    1.034    45 H    0.894
    11   6 C    3.904 --    32 N    1.385    12 C    1.146    10 N    1.125
    12   6 C    3.951 --    28 C    1.301    13 C    1.235    11 C    1.146
    13   6 C    3.908 --    14 C    1.421    12 C    1.235    29 O    1.041
    14   6 C    3.973 --    13 C    1.421    15 C    1.386    46 H    0.964
    15   6 C    3.918 --    14 C    1.386    16 C    1.370    47 H    0.967
    16   6 C    3.953 --    28 C    1.468    15 C    1.370    17 S    0.734
    17  16 S    5.038 --    27 O    1.632    18 O    1.624    19 N    0.966
                            16 C    0.734
    18   8 O    1.925 --    17 S    1.624    27 O    0.109
    19   7 N    3.274 --    20 C    0.999    24 C    0.994    17 S    0.966
    20   6 C    3.966 --    19 N    0.999    21 C    0.988    48 H    0.970
                            49 H    0.959
    21   6 C    3.979 --    22 N    1.011    20 C    0.988    50 H    0.968
                            51 H    0.946
    22   7 N    3.229 --    21 C    1.011    23 C    1.009    25 C    0.995
    23   6 C    3.974 --    22 N    1.009    24 C    0.990    52 H    0.965
                            53 H    0.938
    24   6 C    3.962 --    19 N    0.994    23 C    0.990    54 H    0.966
                            55 H    0.958
    25   6 C    3.964 --    26 C    1.014    22 N    0.995    56 H    0.972
                            57 H    0.938
    26   6 C    3.990 --    25 C    1.014    60 H    0.985    58 H    0.984
                            59 H    0.984
    27   8 O    1.933 --    17 S    1.632    18 O    0.109
    28   6 C    3.972 --    16 C    1.468    12 C    1.301    61 H    0.949
    29   8 O    2.220 --    13 C    1.041    30 C    0.955
    30   6 C    3.943 --    31 C    1.016    62 H    0.969    63 H    0.968
                            29 O    0.955
    31   6 C    3.992 --    30 C    1.016    65 H    0.985    66 H    0.983
                            64 H    0.982
    32   7 N    3.118 --    11 C    1.385    33 C    1.180    34 O    0.181
    33   6 C    3.911 --    34 O    1.559    32 N    1.180     8 C    1.005
    34   8 O    2.020 --    33 C    1.559    32 N    0.181
    35   1 H    0.998 --     1 C    0.986
    36   1 H    0.999 --     1 C    0.982
    37   1 H    0.999 --     1 C    0.987
    38   1 H    0.997 --     2 C    0.978
    39   1 H    0.997 --     2 C    0.977
    40   1 H    0.994 --     3 C    0.965
    41   1 H    0.998 --     3 C    0.968
    42   1 H    0.989 --     7 C    0.961
    43   1 H    0.991 --     7 C    0.968
    44   1 H    0.994 --     7 C    0.977
    45   1 H    0.955 --    10 N    0.894
    46   1 H    0.997 --    14 C    0.964
    47   1 H    0.997 --    15 C    0.967
    48   1 H    0.996 --    20 C    0.970
    49   1 H    0.987 --    20 C    0.959
    50   1 H    0.996 --    21 C    0.968
    51   1 H    0.991 --    21 C    0.946
    52   1 H    0.994 --    23 C    0.965
    53   1 H    0.989 --    23 C    0.938
    54   1 H    0.994 --    24 C    0.966
    55   1 H    0.987 --    24 C    0.958
    56   1 H    0.997 --    25 C    0.972
    57   1 H    0.987 --    25 C    0.938
    58   1 H    0.998 --    26 C    0.984
    59   1 H    0.997 --    26 C    0.984
    60   1 H    0.996 --    26 C    0.985
    61   1 H    0.996 --    28 C    0.949
    62   1 H    0.998 --    30 C    0.969
    63   1 H    0.998 --    30 C    0.968
    64   1 H    0.997 --    31 C    0.982
    65   1 H    0.997 --    31 C    0.985
    66   1 H    0.997 --    31 C    0.983
 ---------------------------------------------------------------------------

Topologies differ in total number of bonds
Writing topology from bond orders to xtbtopo.mol

molecular dipole:
                 x           y           z       tot (Debye)
 q only:       -1.864       0.481      -1.169
   full:       -1.989      -0.233      -1.147       5.867
molecular quadrupole (traceless):
                xx          xy          yy          xz          yz          zz
 q only:       -9.878      48.684      12.830     -12.681      -1.602      -2.952
  q+dip:      -13.984      50.446      13.819     -13.465      -2.007       0.165
   full:      -16.364      50.790      12.991     -12.979      -1.983       3.373


           -------------------------------------------------
          | TOTAL ENERGY             -102.590220957255 Eh   |
          | GRADIENT NORM               0.135108605414 Eh/α |
          | HOMO-LUMO GAP               0.739779450602 eV   |
           -------------------------------------------------

------------------------------------------------------------------------
 * finished run on 2025/05/15 at 16:24:18.906     
------------------------------------------------------------------------
 total:
 * wall-time:     0 d,  0 h,  0 min,  0.299 sec
 *  cpu-time:     0 d,  0 h,  0 min,  0.221 sec
 * ratio c/w:     0.741 speedup
 SCF:
 * wall-time:     0 d,  0 h,  0 min,  0.277 sec
 *  cpu-time:     0 d,  0 h,  0 min,  0.201 sec
 * ratio c/w:     0.725 speedup


