66
 energy: -102.676880283401 gnorm: 0.000839361620 xtb: 6.7.1 (edcfbbe)
C           -4.23566262418410       -1.32474572236650       -1.81579117413001
C           -5.41068500347377       -1.09396875667483       -0.87249350924337
C           -4.96954269573134       -0.74698784818737        0.55779495405802
C           -4.11688118879867        0.46936026795235        0.58233052936062
N           -4.54130552746562        1.71477368039108        0.56042539582087
C           -3.45640804622058        2.52218047916908        0.53494937445882
C           -3.55165729315254        4.00118700542530        0.50954925283629
C           -2.30926092642248        1.74747293700045        0.54139853022964
N           -2.76669460789154        0.43896865781096        0.57081569707968
N           -1.89291474379789       -0.60908193482826        0.59411072789991
C           -0.56479353686365       -0.33922360648750        0.55838790607298
C            0.38285306681042       -1.46443720129304        0.56003388757969
C            0.04861275231647       -2.83098395107665        0.46093035053740
C            1.07397328014967       -3.77454478953148        0.39798443235456
C            2.40340641118647       -3.39199267846109        0.44384376925093
C            2.72606101056082       -2.05546938867823        0.57348545750402
S            4.44937800425446       -1.53319800880611        0.66216761667751
O            5.17216287184730       -2.37214610045023       -0.25207697057613
N            4.41198585356412        0.00721266511680        0.12050562169594
C            4.37574368485670        0.29605785315204       -1.28806793891760
C            3.32816996333359        1.37719479551339       -1.55992848964297
N            3.63772814060883        2.56184283443306       -0.77881733873836
C            3.60689706210694        2.24416233953799        0.64040135649013
C            4.63727109883829        1.15916421940109        0.95523302474341
C            2.74842286763048        3.67142429484859       -1.10591287560249
C            3.31209479086290        5.00397201501917       -0.62652518148686
O            4.83195500020216       -1.52610075552843        2.04409065144738
C            1.72961151683384       -1.11421749084583        0.63779271811830
O           -1.27097920312111       -3.17241848526549        0.42647942676102
C           -1.64723955178966       -4.54523045934617        0.41859522606936
C           -3.16129721810452       -4.61307322567073        0.54433001646005
N           -0.07841793643393        0.85317778089374        0.51247165522401
C           -0.87657254290535        1.99284768722175        0.49181091261034
O           -0.37418531404920        3.09557234133325        0.42470323051064
H           -4.59749249316054       -1.61106335897640       -2.80034028020209
H           -3.58398922791340       -2.11785210365086       -1.45184565368397
H           -3.64693434928406       -0.41685884511975       -1.92803101279391
H           -6.01781645514167       -0.27195067378562       -1.25269828342202
H           -6.03529382385141       -1.98895263132697       -0.83659137150254
H           -5.85645259669269       -0.55365107424668        1.16205221575884
H           -4.42878984437933       -1.58968939841888        0.99739288502468
H           -3.95414793920797        4.36558332867780        1.45360113925810
H           -4.22440754009930        4.31787100061873       -0.28493956934571
H           -2.56308213389951        4.42336160161240        0.35285786085911
H           -2.25430522265123       -1.55431331868686        0.56869882439091
H            0.84068407605393       -4.82235579773044        0.30221870581049
H            3.19369985978634       -4.12192123944837        0.37542032003545
H            4.14126223005117       -0.62964839032060       -1.81372412985067
H            5.35813768570044        0.65630003571903       -1.62068813436428
H            3.35867577428284        1.64196511062935       -2.61972568655625
H            2.32099900855926        0.98757655426791       -1.32626558398432
H            3.86660287431326        3.14106357976756        1.20282283702863
H            2.59724136428009        1.92411158377668        0.95124786858553
H            4.57196575176134        0.83042114303492        1.99194395260018
H            5.64329309918816        1.55774359010414        0.76701381123524
H            2.66386607856731        3.70353314280993       -2.19532425587967
H            1.74214257769081        3.51996691264701       -0.68778632913535
H            3.23569079517081        5.10375845052229        0.45202457322655
H            2.75222657884741        5.81851466240968       -1.07883321408899
H            4.35619675245270        5.08998820072581       -0.91565460488454
H            1.96782779135387       -0.06893124873693        0.73583707227915
H           -1.32137560511825       -5.01362626282923       -0.51804299175700
H           -1.17758554172558       -5.06247894388617        1.26332784233944
H           -3.63876268758571       -4.11350318477321       -0.29481600271217
H           -3.48492825870855       -4.14204682345892        1.46950699004350
H           -3.47687799435993       -5.65186705261964        0.55423196221545
