31
 energy: -58.965129045798 gnorm: 0.000879903643 xtb: 6.7.1 (edcfbbe)
N            4.86708760225446       -0.21498313742363        0.46892794813259
C            3.53337378430253       -0.20751296083470        0.58694187844674
N            2.99800712760902       -0.31453647233223        1.80609207399749
C            1.68473213152342       -0.31330054135946        1.92465071098788
Cl           1.09576316768432       -0.45193067868485        3.52043705772680
N            0.76367348946596       -0.22313633712278        0.98968173846557
C            1.28422986776267       -0.11060465135704       -0.23444093882830
C            2.66254753394677       -0.09480116580807       -0.51247752277795
N            2.85833132284213        0.03432209517948       -1.86354270758851
C            1.66616044934445        0.09732708385490       -2.36489466178366
N            0.65687834126924        0.00480381861817       -1.44144444629967
C           -0.76330546214454        0.07655917304967       -1.72454385407628
C           -1.51608575785574       -1.18314452137550       -1.28021321942024
C           -2.11023171672454       -0.77747385852453        0.06954062294252
C           -2.28988706614180        0.74614902720209       -0.10124979946410
O           -1.33469121598418        1.17252924555351       -1.06043112467025
C           -2.13140310131595        1.49460389646133        1.22564058274417
O           -3.15445587950828        1.12682721956960        2.12123576475179
O           -3.32074358387975       -1.44208484234076        0.31306659373210
H            5.27896052654156       -0.13244567070995       -0.44264554210281
H            5.43103027431742       -0.30019177486175        1.29529253536250
H            1.46205579499756        0.20404686939525       -3.41232462600746
H           -0.83637964561715        0.24444078480693       -2.80892336081312
H           -0.85902096784442       -2.04585955855238       -1.20863910960115
H           -2.33179229526263       -1.40636132208675       -1.96752471476692
H           -1.38749903462329       -0.96493670500038        0.87239742917910
H           -3.29912281554958        0.93607558900737       -0.50845308356085
H           -1.18816764734227        1.20691440323799        1.69414771019954
H           -2.12385940813571        2.57572659479481        1.04134210097815
H           -3.99353035968438        1.47338334289390        1.79553207541042
H           -3.60255545624690       -1.21040494524934        1.20682188870503
