57
 energy: -87.644278900947 gnorm: 0.000475429002 xtb: 6.7.1 (edcfbbe)
O           -2.69403238096727        2.09694055073091       -0.38122712954150
C           -3.27861709080506        1.02710005570844       -0.34695399228250
C           -2.66366626194270       -0.27302220992995       -0.43994403831061
C           -1.17243190580971       -0.30002204424204       -0.58759917954933
C           -0.50461329923191       -0.21245362241687        0.79217523121958
N            0.94260336823074       -0.23180280835745        0.69210298639653
C            1.58559588373665        0.40210881182332        1.82821161645298
C            3.08306391294007        0.54259755443324        1.57574776067330
C            3.70292227679549       -0.83793755321408        1.34242682596353
C            2.95761382170870       -1.51777156270845        0.19050153474335
C            1.46661270819666       -1.57134749570579        0.50502881022055
C            5.16163807219805       -0.74127885356144        1.06608885533446
N            6.02579785557421       -1.33084267704859        1.83435906501671
O            7.29067929984433       -1.09000368787507        1.37033554713092
C            7.19690292847320       -0.32125656890546        0.27360060246009
C            5.84004683047072       -0.04811262179811        0.00504340202396
C            5.49411055250489        0.73776910035294       -1.09389912418980
C            6.50587177307459        1.22639443968017       -1.88691591300154
C            7.83923462006990        0.93450030543675       -1.58801197013065
F            8.78952035831317        1.43865139556186       -2.39771532125682
C            8.23030177254373        0.16304601248892       -0.51620250247805
C           -3.44326544828718       -1.38869595507225       -0.33483452880841
N           -4.78863330360937       -1.30949199207257       -0.17972888646802
C           -5.36262209975925       -0.15105357483719       -0.12479855027837
N           -4.68046182577937        1.01162473565110       -0.20680569370122
C           -5.30275363966083        2.32240478129830       -0.09586751967840
C           -6.79198806763935        2.28396090036855       -0.38682699853232
C           -7.42767504098476        1.18522083043628        0.45479781233724
C           -6.85900688668087       -0.15198647354277        0.00151147114477
C           -2.90182317452254       -2.78315977251268       -0.38838854017349
H           -0.85880637763148        0.57115818286151       -1.16392734113355
H           -0.86139505849070       -1.20334674859832       -1.11015820991671
H           -0.80450772447025        0.73776978978502        1.23890448162780
H           -0.87878614602622       -1.02405902446444        1.44274056015944
H            1.42310307583820       -0.17292403046167        2.75959559535503
H            1.14789759220801        1.39428550689583        1.96014018165306
H            3.23307173579406        1.16821655627455        0.69613962995920
H            3.55576385682298        1.02778904447632        2.43131982025501
H            3.58584208342711       -1.44147547465820        2.24893206001575
H            3.33941004305815       -2.52907272841482        0.03980426864723
H            3.10366748038761       -0.95113467820450       -0.72923832562396
H            1.30296443979441       -2.19495370881849        1.40557966575640
H            0.94176020922441       -2.04066344009699       -0.32893387475982
H            4.46401696296924        0.96008690790089       -1.32060045156096
H            6.29380367182588        1.83990046272197       -2.74796880205010
H            9.26546565743383       -0.04651261123391       -0.30902298534055
H           -4.76907671602954        2.98482111200411       -0.78419117344441
H           -5.12192759111835        2.69720733371142        0.91874031477418
H           -7.22221057055888        3.25830154056265       -0.15422803000720
H           -6.96232405792388        2.07943990561018       -1.44584691022728
H           -7.19956759932307        1.35350195067943        1.50932917259917
H           -8.51216730908312        1.18441104488060        0.34014761890100
H           -7.13475097500428       -0.96131868460204        0.67832213243775
H           -7.26275613839897       -0.40964324572216       -0.98247036059145
H           -3.71371145060152       -3.48273068950646       -0.21225214360909
H           -2.12897854355994       -2.92784987838317        0.36350738070171
H           -2.46672615956511       -2.98338439536350       -1.36677590733125
