49
 energy: -69.209553531908 gnorm: 0.000257339227 xtb: 6.7.1 (edcfbbe)
C            0.74132785037236        2.24016715989149        0.32426266360311
C            0.85814351993547        0.71350951064258        0.34481805305448
N            2.16759502450285        0.28797627315927       -0.10348706203501
C            3.30955761767308        0.33040344854917        0.63087090041115
C            3.32162954559899        0.61918435367179        1.98929827265372
C            4.52736265213467        0.60954186313778        2.68687021973467
N            5.69392831153998        0.34942849212726        2.15710329827381
C            5.73005807676448        0.05783217721349        0.84323353832231
C            4.57019222318663        0.02507998456203        0.01839903653992
C            4.73117976636919       -0.30685841212604       -1.34013789458373
C            5.96245115535840       -0.58419296007715       -1.86918613649369
C            7.09523814745929       -0.53916319425173       -1.04558266549920
Cl           8.63950738380434       -0.89192846268666       -1.73995084986385
C            6.99182241734064       -0.22803021194049        0.28031240324859
C           -0.18725733630816        0.03898333719982       -0.55005290808921
C           -1.60673593091842        0.17110719793133       -0.00554763518797
C           -2.60991927626037       -0.57976030590108       -0.88335185342828
N           -3.97392900490005       -0.41075737752854       -0.40353118212477
C           -4.84854415354074       -1.50148930106323       -0.80594303984288
C           -6.14120144886589       -1.54171547780646        0.00024861038924
C           -4.52179797378414        0.90841445585934       -0.70757278759541
C           -5.02440464723274        1.59343374706601        0.57336842463203
O           -4.05390883142579        1.55291291199703        1.58677062984646
H           -0.19571552193653        2.56060452580321        0.76914825457775
H            0.79076436701321        2.60934377767844       -0.69827862279102
H            1.55903383914817        2.68243007063924        0.88866137816627
H            0.71935573117996        0.35233122377199        1.36904441156445
H            2.27686329244913        0.25981234401073       -1.10434460246875
H            2.41434213087125        0.85880379066016        2.51839085804098
H            4.53504831963707        0.83872717211855        3.74539253448369
H            3.87448049483386       -0.35865669275763       -1.99720094785954
H            6.07209278301902       -0.83860501020128       -2.91162153810648
H            7.85221248963684       -0.19407588219584        0.92824857036324
H           -0.13897200255224        0.47362281331718       -1.55231600694609
H            0.06508198756345       -1.02143284769347       -0.63284573107120
H           -1.64607742463829       -0.24168852999698        1.00415083930152
H           -1.88475098015853        1.22256456297578        0.05311205391809
H           -2.50344178170808       -0.24950688284694       -1.93143427808592
H           -2.36649385912432       -1.64463731495009       -0.85103135557576
H           -5.09087093589824       -1.44849087718586       -1.88264714874964
H           -4.30792878027505       -2.43547645292354       -0.63199578162922
H           -5.91793541351594       -1.52962355157755        1.06371418751461
H           -6.68282517035160       -2.45565670557208       -0.23146517881464
H           -6.78376097088065       -0.69777844359518       -0.23478568028704
H           -5.34273147093433        0.84578899206538       -1.43275890986481
H           -3.74047233616622        1.53494226641194       -1.14582730018845
H           -5.23400309923923        2.64770585453507        0.37729604347564
H           -5.94894654067604        1.11446615472639        0.92249961805080
H           -3.74644423609591        0.63600643316428        1.61748229701673
