----- Optimization -----
      -----------------------------------------------------------      
     |                   =====================                   |     
     |                           x T B                           |     
     |                   =====================                   |     
     |                         S. Grimme                         |     
     |          Mulliken Center for Theoretical Chemistry        |     
     |                    University of Bonn                     |     
      -----------------------------------------------------------      

   * xtb version 6.7.1 (edcfbbe) compiled by 'conda@3ef47c1a292c' on 2024-11-25

   xtb is free software: you can redistribute it and/or modify it under
   the terms of the GNU Lesser General Public License as published by
   the Free Software Foundation, either version 3 of the License, or
   (at your option) any later version.
   
   xtb is distributed in the hope that it will be useful,
   but WITHOUT ANY WARRANTY; without even the implied warranty of
   MERCHANTABILITY or FITNESS FOR A PARTICULAR PURPOSE.  See the
   GNU Lesser General Public License for more details.
   
   Cite this work as:
   * C. Bannwarth, E. Caldeweyher, S. Ehlert, A. Hansen, P. Pracht,
     J. Seibert, S. Spicher, S. Grimme, WIREs Comput. Mol. Sci., 2020, 11,
     e01493. DOI: 10.1002/wcms.1493
   
   for GFN2-xTB:
   * C. Bannwarth, S. Ehlert and S. Grimme., J. Chem. Theory Comput., 2019,
     15, 1652-1671. DOI: 10.1021/acs.jctc.8b01176
   for GFN1-xTB:
   * S. Grimme, C. Bannwarth, P. Shushkov, J. Chem. Theory Comput., 2017,
     13, 1989-2009. DOI: 10.1021/acs.jctc.7b00118
   for GFN0-xTB:
   * P. Pracht, E. Caldeweyher, S. Ehlert, S. Grimme, ChemRxiv, 2019, preprint.
     DOI: 10.26434/chemrxiv.8326202.v1
   for GFN-FF:
   * S. Spicher and S. Grimme, Angew. Chem. Int. Ed., 2020, 59, 15665-15673.
     DOI: 10.1002/anie.202004239
   
   for ALPB and GBSA implicit solvation:
   * S. Ehlert, M. Stahn, S. Spicher, S. Grimme, J. Chem. Theory Comput.,
     2021, 17, 4250-4261. DOI: 10.1021/acs.jctc.1c00471
   
   for ddCOSMO and CPCM-X implicit solvation:
   * M. Stahn, S. Ehlert, S. Grimme, J. Phys. Chem. A,
     2023, XX, XXXX-XXXX. DOI: 10.1021/acs.jpca.3c04382
   
   for DFT-D4:
   * E. Caldeweyher, C. Bannwarth and S. Grimme, J. Chem. Phys., 2017,
     147, 034112. DOI: 10.1063/1.4993215
   * E. Caldeweyher, S. Ehlert, A. Hansen, H. Neugebauer, S. Spicher,
     C. Bannwarth and S. Grimme, J. Chem. Phys., 2019, 150, 154122.
     DOI: 10.1063/1.5090222
   * E. Caldeweyher, J.-M. Mewes, S. Ehlert and S. Grimme, Phys. Chem. Chem. Phys.
     2020, 22, 8499-8512. DOI: 10.1039/D0CP00502A
   
   for sTDA-xTB:
   * S. Grimme and C. Bannwarth, J. Chem. Phys., 2016, 145, 054103.
     DOI: 10.1063/1.4959605
   
   in the mass-spec context:
   * V. Asgeirsson, C. Bauer and S. Grimme, Chem. Sci., 2017, 8, 4879.
     DOI: 10.1039/c7sc00601b
   * J. Koopman and S. Grimme, ACS Omega 2019, 4, 12, 15120-15133.
     DOI: 10.1021/acsomega.9b02011
   
   for metadynamics refer to:
   * S. Grimme, J. Chem. Theory Comput., 2019, 155, 2847-2862
     DOI: 10.1021/acs.jctc.9b00143
   
   for SPH calculations refer to:
   * S. Spicher and S. Grimme, J. Chem. Theory Comput., 2021, 17, 1701-1714
     DOI: 10.1021/acs.jctc.0c01306
   
   for ONIOM refer to:
   * C. Plett, A. Katbashev, S. Ehlert, S. Grimme, M. Bursch,
     Phys. Chem. Chem. Phys., 2023, 25, 17860-17868. DOI: 10.1039/D3CP02178E
   
   for DIPRO refer to:
   * J. Kohn, N. Gildemeister, S. Grimme, D. Fazzi, A. Hansen,
     J. Chem. Phys., 2023, just accepted.
   
   for PTB refer to:
   * S. Grimme, M. Mueller, A. Hansen, J. Chem. Phys., 2023, 158, 124111.
     DOI: 10.1063/5.0137838
   
   with help from (in alphabetical order)
   P. Atkinson, C. Bannwarth, F. Bohle, G. Brandenburg, E. Caldeweyher
   M. Checinski, S. Dohm, S. Ehlert, S. Ehrlich, I. Gerasimov, C. Hölzer
   A. Katbashev, J. Kohn, J. Koopman, C. Lavigne, S. Lehtola, F. März, M. Müller,
   F. Musil, H. Neugebauer, J. Pisarek, C. Plett, P. Pracht, F. Pultar,
   J. Seibert, P. Shushkov, S. Spicher, M. Stahn, M. Steiner, T. Strunk,
   J. Stückrath, T. Rose, and J. Unsleber
   
 * started run on 2025/05/15 at 16:35:44.556     
   ID    Z sym.   atoms
    1    6 C      1-3, 5-8, 10, 11, 13, 15, 16, 18-20, 22, 23
    2    8 O      4, 21, 24
    3    7 N      9, 14, 17
    4   16 S      12
    5    1 H      25-43

           -------------------------------------------------
          |                Calculation Setup                |
           -------------------------------------------------

          program call               : xtb /rds/general/user/hgt20/home/callum/QDESCP/Omeprazole_rdkit_conf_9/Omeprazole_rdkit_conf_9.xyz --opt normal --acc 1 --gfn 2 --chrg 0 --uhf 0 -P 1
          hostname                   : login-c
          coordinate file            : /rds/general/user/hgt20/home/callum/QDESCP/Omeprazole_rdkit_conf_9/Omeprazole_rdkit_conf_9.xyz
          omp threads                :                     1


           -------------------------------------------------
          |                 G F N 2 - x T B                 |
           -------------------------------------------------

        Reference                      10.1021/acs.jctc.8b01176
      * Hamiltonian:
        H0-scaling (s, p, d)           1.850000    2.230000    2.230000
        zeta-weighting                 0.500000
      * Dispersion:
        s8                             2.700000
        a1                             0.520000
        a2                             5.000000
        s9                             5.000000
      * Repulsion:
        kExp                           1.500000    1.000000
        rExp                           1.000000
      * Coulomb:
        alpha                          2.000000
        third order                    shell-resolved
        anisotropic                    true
        a3                             3.000000
        a5                             4.000000
        cn-shift                       1.200000
        cn-exp                         4.000000
        max-rad                        5.000000


          ...................................................
          :                      SETUP                      :
          :.................................................:
          :  # basis functions                 121          :
          :  # atomic orbitals                 120          :
          :  # shells                           68          :
          :  # electrons                       126          :
          :  max. iterations                   250          :
          :  Hamiltonian                  GFN2-xTB          :
          :  restarted?                      false          :
          :  GBSA solvation                  false          :
          :  PC potential                    false          :
          :  electronic temp.          300.0000000     K    :
          :  accuracy                    1.0000000          :
          :  -> integral cutoff          0.2500000E+02      :
          :  -> integral neglect         0.1000000E-07      :
          :  -> SCF convergence          0.1000000E-05 Eh   :
          :  -> wf. convergence          0.1000000E-03 e    :
          :  Broyden damping             0.4000000          :
          :  net charge                          0          :
          :  unpaired electrons                  0          :
          ...................................................

 iter      E             dE          RMSdq      gap      omega  full diag
   1    -71.0636940 -0.710637E+02  0.450E+00    3.11       0.0  T
   2    -71.1675309 -0.103837E+00  0.257E+00    3.21       1.0  T
   3    -71.1607119  0.681904E-02  0.120E+00    3.04       1.0  T
   4    -71.1753778 -0.146659E-01  0.499E-01    3.02       1.0  T
   5    -71.1828472 -0.746939E-02  0.167E-01    2.98       1.0  T
   6    -71.1829941 -0.146936E-03  0.780E-02    2.97       1.0  T
   7    -71.1830751 -0.810178E-04  0.319E-02    2.98       1.0  T
   8    -71.1830836 -0.843629E-05  0.192E-02    2.99       1.0  T
   9    -71.1830856 -0.198792E-05  0.813E-03    2.99       1.9  T
  10    -71.1830869 -0.130150E-05  0.316E-03    2.99       4.8  T
  11    -71.1830869 -0.478883E-07  0.156E-03    2.99       9.8  T
  12    -71.1830869 -0.149733E-07  0.620E-04    2.99      24.6  T
  13    -71.1830869 -0.682898E-08  0.246E-04    2.99      62.0  T

   *** convergence criteria satisfied after 13 iterations ***

         #    Occupation            Energy/Eh            Energy/eV
      -------------------------------------------------------------
         1        2.0000           -0.7581490             -20.6303
       ...           ...                  ...                  ...
        57        2.0000           -0.4099522             -11.1554
        58        2.0000           -0.4048404             -11.0163
        59        2.0000           -0.3985788             -10.8459
        60        2.0000           -0.3949735             -10.7478
        61        2.0000           -0.3854112             -10.4876
        62        2.0000           -0.3785164             -10.3000
        63        2.0000           -0.3736129             -10.1665 (HOMO)
        64                         -0.2638814              -7.1806 (LUMO)
        65                         -0.2519871              -6.8569
        66                         -0.2370859              -6.4514
        67                         -0.2105864              -5.7303
        68                         -0.2037348              -5.5439
       ...                                ...                  ...
       120                          0.8014136              21.8076
      -------------------------------------------------------------
                  HL-Gap            0.1097315 Eh            2.9859 eV
             Fermi-level           -0.3187472 Eh           -8.6736 eV

 SCC (total)                   0 d,  0 h,  0 min,  0.068 sec
 SCC setup                      ...        0 min,  0.000 sec (  0.565%)
 Dispersion                     ...        0 min,  0.000 sec (  0.712%)
 classical contributions        ...        0 min,  0.000 sec (  0.235%)
 integral evaluation            ...        0 min,  0.008 sec ( 12.086%)
 iterations                     ...        0 min,  0.031 sec ( 46.450%)
 molecular gradient             ...        0 min,  0.027 sec ( 39.676%)
 printout                       ...        0 min,  0.000 sec (  0.268%)

         :::::::::::::::::::::::::::::::::::::::::::::::::::::
         ::                     SUMMARY                     ::
         :::::::::::::::::::::::::::::::::::::::::::::::::::::
         :: total energy             -70.300017947239 Eh    ::
         :: gradient norm              0.101003838230 Eh/a0 ::
         :: HOMO-LUMO gap              2.985945441114 eV    ::
         ::.................................................::
         :: SCC energy               -71.183281526019 Eh    ::
         :: -> isotropic ES            0.095537090819 Eh    ::
         :: -> anisotropic ES          0.007485018882 Eh    ::
         :: -> anisotropic XC          0.030987171870 Eh    ::
         :: -> dispersion             -0.046720611090 Eh    ::
         :: repulsion energy           0.883263578780 Eh    ::
         :: add. restraining           0.000000000000 Eh    ::
         :: total charge              -0.000000000000 e     ::
         :::::::::::::::::::::::::::::::::::::::::::::::::::::

      ----------------------------------------------------------- 
     |                   =====================                   |
     |                        A N C O P T                        |
     |                   =====================                   |
     |               Approximate Normal Coordinate               |
     |                Rational Function Optimizer                |
      ----------------------------------------------------------- 
      ----------------------------------------------------------- 
     |                   =====================                   |
     |                        A N C O P T                        |
     |                   =====================                   |
     |               Approximate Normal Coordinate               |
     |                Rational Function Optimizer                |
      ----------------------------------------------------------- 

          ...................................................
          :                      SETUP                      :
          :.................................................:
          :   optimization level            normal          :
          :   max. optcycles                   200          :
          :   ANC micro-cycles                  20          :
          :   degrees of freedom               123          :
          :.................................................:
          :   RF solver                   davidson          :
          :   write xtbopt.log                true          :
          :   linear?                        false          :
          :   energy convergence         0.5000000E-05 Eh   :
          :   grad. convergence          0.1000000E-02 Eh/α :
          :   maxmium RF displ.          1.0000000          :
          :   Hlow (freq-cutoff)         0.1000000E-01      :
          :   Hmax (freq-cutoff)         5.0000000          :
          :   S6 in model hess.         20.0000000          :
          ...................................................

generating ANC from exact Hessian ...
Using Lindh-Hessian (1995)
 Shifting diagonal of input Hessian by    9.8444324107698957E-003
 Lowest  eigenvalues of input Hessian
    0.000000    0.000000    0.000000    0.000000    0.000000    0.000000
    0.010000    0.010115    0.010314    0.010716    0.011562    0.012178
    0.012543    0.012981    0.013864    0.015035    0.015772    0.016106
 Highest eigenvalues
    1.986398    2.030919    2.038618    2.099526    2.230754    2.271897


........................................................................
.............................. CYCLE    1 ..............................
........................................................................

 iter      E             dE          RMSdq      gap      omega  full diag
   1    -71.1830869 -0.711831E+02  0.100E-04    2.99       0.0  T
   2    -71.1830869 -0.597566E-10  0.579E-05    2.99     263.2  T
   3    -71.1830869 -0.254232E-10  0.403E-05    2.99     378.4  T
     SCC iter.                  ...        0 min,  0.008 sec
     gradient                   ...        0 min,  0.044 sec
 * total energy  :   -70.3000179 Eh     change       -0.7280789E-09 Eh
   gradient norm :     0.1010048 Eh/α   predicted     0.0000000E+00 (-100.00%)
   displ. norm   :     0.2791516 α      lambda       -0.1298054E-01
   maximum displ.:     0.0973851 α      in ANC's #34, #6, #48, ...

........................................................................
.............................. CYCLE    2 ..............................
........................................................................

 iter      E             dE          RMSdq      gap      omega  full diag
   1    -71.2176425 -0.712176E+02  0.206E-01    2.97       0.0  T
   2    -71.2177467 -0.104199E-03  0.129E-01    3.02       1.0  T
   3    -71.2176859  0.608699E-04  0.615E-02    2.99       1.0  T
   4    -71.2177979 -0.112082E-03  0.157E-02    3.00       1.0  T
   5    -71.2178018 -0.385801E-05  0.713E-03    3.00       2.1  T
   6    -71.2178020 -0.171171E-06  0.262E-03    3.00       5.8  T
   7    -71.2178021 -0.969117E-07  0.138E-03    3.00      11.1  T
   8    -71.2178021 -0.118280E-07  0.716E-04    3.00      21.3  T
   9    -71.2178021 -0.437511E-08  0.240E-04    3.00      63.7  T
     SCC iter.                  ...        0 min,  0.021 sec
     gradient                   ...        0 min,  0.026 sec
 * total energy  :   -70.3090219 Eh     change       -0.9003945E-02 Eh
   gradient norm :     0.0469693 Eh/α   predicted    -0.7002070E-02 ( -22.23%)
   displ. norm   :     0.2657803 α      lambda       -0.4041526E-02
   maximum displ.:     0.1320482 α      in ANC's #6, #11, #9, ...

........................................................................
.............................. CYCLE    3 ..............................
........................................................................

 iter      E             dE          RMSdq      gap      omega  full diag
   1    -71.2375119 -0.712375E+02  0.134E-01    3.00       0.0  T
   2    -71.2375988 -0.869861E-04  0.886E-02    3.01       1.0  T
   3    -71.2376092 -0.103634E-04  0.447E-02    3.00       1.0  T
   4    -71.2376184 -0.915604E-05  0.134E-02    3.00       1.1  T
   5    -71.2376241 -0.575178E-05  0.385E-03    3.00       4.0  T
   6    -71.2376242 -0.491491E-07  0.230E-03    3.00       6.6  T
   7    -71.2376242 -0.227935E-07  0.726E-04    3.00      21.0  T
   8    -71.2376242 -0.782364E-08  0.415E-04    3.00      36.8  T
     SCC iter.                  ...        0 min,  0.020 sec
     gradient                   ...        0 min,  0.026 sec
 * total energy  :   -70.3113775 Eh     change       -0.2355652E-02 Eh
   gradient norm :     0.0131597 Eh/α   predicted    -0.2164223E-02 (  -8.13%)
   displ. norm   :     0.1992163 α      lambda       -0.6454456E-03
   maximum displ.:     0.1322276 α      in ANC's #6, #11, #9, ...

........................................................................
.............................. CYCLE    4 ..............................
........................................................................

 iter      E             dE          RMSdq      gap      omega  full diag
   1    -71.2394960 -0.712395E+02  0.599E-02    3.01       0.0  T
   2    -71.2395090 -0.130860E-04  0.362E-02    3.00       1.0  T
   3    -71.2395097 -0.625629E-06  0.164E-02    3.00       1.0  T
   4    -71.2395103 -0.674866E-06  0.535E-03    3.00       2.9  T
   5    -71.2395108 -0.493271E-06  0.228E-03    3.00       6.7  T
   6    -71.2395109 -0.540209E-07  0.983E-04    3.00      15.5  T
   7    -71.2395109 -0.179323E-07  0.280E-04    3.00      54.4  T
     SCC iter.                  ...        0 min,  0.016 sec
     gradient                   ...        0 min,  0.027 sec
 * total energy  :   -70.3118710 Eh     change       -0.4934101E-03 Eh
   gradient norm :     0.0071799 Eh/α   predicted    -0.3355544E-03 ( -31.99%)
   displ. norm   :     0.2972176 α      lambda       -0.5851671E-03
   maximum displ.:     0.2125221 α      in ANC's #6, #11, #9, ...

........................................................................
.............................. CYCLE    5 ..............................
........................................................................

 iter      E             dE          RMSdq      gap      omega  full diag
   1    -71.2392899 -0.712393E+02  0.752E-02    3.02       0.0  T
   2    -71.2393005 -0.105939E-04  0.430E-02    3.01       1.0  T
   3    -71.2392992  0.129021E-05  0.155E-02    3.00       1.0  T
   4    -71.2393017 -0.251119E-05  0.658E-03    3.00       2.3  T
   5    -71.2393025 -0.778209E-06  0.263E-03    3.00       5.8  T
   6    -71.2393026 -0.712730E-07  0.906E-04    3.00      16.8  T
   7    -71.2393026 -0.145985E-07  0.336E-04    3.00      45.4  T
     SCC iter.                  ...        0 min,  0.016 sec
     gradient                   ...        0 min,  0.027 sec
 * total energy  :   -70.3122624 Eh     change       -0.3914048E-03 Eh
   gradient norm :     0.0070729 Eh/α   predicted    -0.3184560E-03 ( -18.64%)
   displ. norm   :     0.1842465 α      lambda       -0.1988570E-03
   maximum displ.:     0.1357648 α      in ANC's #6, #11, #8, ...

........................................................................
.............................. CYCLE    6 ..............................
........................................................................

 iter      E             dE          RMSdq      gap      omega  full diag
   1    -71.2392334 -0.712392E+02  0.382E-02    3.01       0.0  T
   2    -71.2392344 -0.965736E-06  0.208E-02    3.01       1.0  T
   3    -71.2392338  0.567390E-06  0.575E-03    3.01       2.7  T
   4    -71.2392347 -0.804472E-06  0.281E-03    3.01       5.4  T
   5    -71.2392348 -0.102447E-06  0.786E-04    3.01      19.4  T
   6    -71.2392348 -0.121375E-07  0.274E-04    3.01      55.6  T
     SCC iter.                  ...        0 min,  0.014 sec
     gradient                   ...        0 min,  0.041 sec
 * total energy  :   -70.3124157 Eh     change       -0.1533705E-03 Eh
   gradient norm :     0.0066097 Eh/α   predicted    -0.1028044E-03 ( -32.97%)
   displ. norm   :     0.1855406 α      lambda       -0.1702483E-03
   maximum displ.:     0.1311790 α      in ANC's #6, #11, #8, ...

........................................................................
.............................. CYCLE    7 ..............................
........................................................................

 iter      E             dE          RMSdq      gap      omega  full diag
   1    -71.2395000 -0.712395E+02  0.371E-02    3.01       0.0  T
   2    -71.2395027 -0.264359E-05  0.204E-02    3.01       1.0  T
   3    -71.2395026  0.121287E-06  0.814E-03    3.01       1.9  T
   4    -71.2395029 -0.348505E-06  0.305E-03    3.01       5.0  T
   5    -71.2395031 -0.175713E-06  0.113E-03    3.01      13.5  T
   6    -71.2395031 -0.179300E-07  0.449E-04    3.01      33.9  T
   7    -71.2395031 -0.248924E-08  0.145E-04    3.01     105.1  T
     SCC iter.                  ...        0 min,  0.016 sec
     gradient                   ...        0 min,  0.027 sec
 * total energy  :   -70.3125418 Eh     change       -0.1260430E-03 Eh
   gradient norm :     0.0043626 Eh/α   predicted    -0.8805504E-04 ( -30.14%)
   displ. norm   :     0.1698515 α      lambda       -0.1077202E-03
   maximum displ.:     0.1136606 α      in ANC's #6, #8, #11, ...

........................................................................
.............................. CYCLE    8 ..............................
........................................................................

 iter      E             dE          RMSdq      gap      omega  full diag
   1    -71.2398516 -0.712399E+02  0.346E-02    3.02       0.0  T
   2    -71.2398544 -0.279683E-05  0.197E-02    3.02       1.0  T
   3    -71.2398543  0.913509E-07  0.851E-03    3.02       1.8  T
   4    -71.2398546 -0.277748E-06  0.295E-03    3.02       5.2  T
   5    -71.2398548 -0.205500E-06  0.100E-03    3.02      15.2  T
   6    -71.2398548 -0.123149E-07  0.472E-04    3.02      32.3  T
   7    -71.2398548 -0.194365E-08  0.162E-04    3.02      94.0  T
     SCC iter.                  ...        0 min,  0.037 sec
     gradient                   ...        0 min,  0.027 sec
 * total energy  :   -70.3126136 Eh     change       -0.7183520E-04 Eh
   gradient norm :     0.0031024 Eh/α   predicted    -0.5541454E-04 ( -22.86%)
   displ. norm   :     0.0956700 α      lambda       -0.4404211E-04
   maximum displ.:     0.0536631 α      in ANC's #6, #7, #8, ...

........................................................................
.............................. CYCLE    9 ..............................
........................................................................

 iter      E             dE          RMSdq      gap      omega  full diag
   1    -71.2402762 -0.712403E+02  0.216E-02    3.03       0.0  T
   2    -71.2402769 -0.664544E-06  0.127E-02    3.03       1.2  T
   3    -71.2402767  0.119391E-06  0.434E-03    3.03       3.5  T
   4    -71.2402769 -0.173822E-06  0.137E-03    3.03      11.1  T
   5    -71.2402770 -0.486966E-07  0.527E-04    3.03      28.9  T
   6    -71.2402770 -0.273432E-08  0.270E-04    3.03      56.6  T
     SCC iter.                  ...        0 min,  0.014 sec
     gradient                   ...        0 min,  0.026 sec
 * total energy  :   -70.3126450 Eh     change       -0.3141700E-04 Eh
   gradient norm :     0.0024382 Eh/α   predicted    -0.2222626E-04 ( -29.25%)
   displ. norm   :     0.0781498 α      lambda       -0.3281108E-04
   maximum displ.:     0.0354598 α      in ANC's #10, #7, #16, ...

........................................................................
.............................. CYCLE   10 ..............................
........................................................................

 iter      E             dE          RMSdq      gap      omega  full diag
   1    -71.2405513 -0.712406E+02  0.197E-02    3.03       0.0  T
   2    -71.2405515 -0.139504E-06  0.117E-02    3.03       1.3  T
   3    -71.2405514  0.457670E-07  0.183E-03    3.03       8.3  T
   4    -71.2405515 -0.774046E-07  0.644E-04    3.04      23.7  T
   5    -71.2405515 -0.374661E-08  0.346E-04    3.04      44.0  T
     SCC iter.                  ...        0 min,  0.012 sec
     gradient                   ...        0 min,  0.027 sec
 * total energy  :   -70.3126679 Eh     change       -0.2283499E-04 Eh
   gradient norm :     0.0018132 Eh/α   predicted    -0.1650620E-04 ( -27.72%)
   displ. norm   :     0.0973627 α      lambda       -0.2040462E-04
   maximum displ.:     0.0447927 α      in ANC's #16, #10, #5, ...

........................................................................
.............................. CYCLE   11 ..............................
........................................................................

 iter      E             dE          RMSdq      gap      omega  full diag
   1    -71.2404367 -0.712404E+02  0.240E-02    3.04       0.0  T
   2    -71.2404369 -0.192192E-06  0.141E-02    3.04       1.1  T
   3    -71.2404368  0.130124E-06  0.271E-03    3.04       5.6  T
   4    -71.2404369 -0.166710E-06  0.102E-03    3.04      15.0  T
   5    -71.2404370 -0.219041E-07  0.397E-04    3.04      38.4  T
   6    -71.2404370 -0.167690E-08  0.151E-04    3.04     101.3  T
     SCC iter.                  ...        0 min,  0.014 sec
     gradient                   ...        0 min,  0.026 sec
 * total energy  :   -70.3126859 Eh     change       -0.1799294E-04 Eh
   gradient norm :     0.0018549 Eh/α   predicted    -0.1024599E-04 ( -43.06%)
   displ. norm   :     0.0578523 α      lambda       -0.1177887E-04
   maximum displ.:     0.0301803 α      in ANC's #5, #16, #14, ...

........................................................................
.............................. CYCLE   12 ..............................
........................................................................

 iter      E             dE          RMSdq      gap      omega  full diag
   1    -71.2402840 -0.712403E+02  0.131E-02    3.04       0.0  T
   2    -71.2402842 -0.210975E-06  0.749E-03    3.04       2.0  T
   3    -71.2402841  0.670021E-07  0.269E-03    3.04       5.7  T
   4    -71.2402842 -0.946120E-07  0.112E-03    3.04      13.7  T
   5    -71.2402842 -0.200756E-07  0.441E-04    3.04      34.6  T
   6    -71.2402842 -0.285750E-08  0.148E-04    3.04     103.3  T
     SCC iter.                  ...        0 min,  0.014 sec
     gradient                   ...        0 min,  0.027 sec
 * total energy  :   -70.3127003 Eh     change       -0.1445487E-04 Eh
   gradient norm :     0.0014599 Eh/α   predicted    -0.5906178E-05 ( -59.14%)
   displ. norm   :     0.1528821 α      lambda       -0.2305569E-04
   maximum displ.:     0.0794011 α      in ANC's #5, #16, #14, ...

........................................................................
.............................. CYCLE   13 ..............................
........................................................................

 iter      E             dE          RMSdq      gap      omega  full diag
   1    -71.2395669 -0.712396E+02  0.329E-02    3.04       0.0  T
   2    -71.2395674 -0.506629E-06  0.185E-02    3.04       1.0  T
   3    -71.2395671  0.228734E-06  0.462E-03    3.04       3.3  T
   4    -71.2395674 -0.316051E-06  0.230E-03    3.04       6.6  T
   5    -71.2395675 -0.620617E-07  0.714E-04    3.04      21.4  T
   6    -71.2395675 -0.133476E-07  0.229E-04    3.04      66.7  T
     SCC iter.                  ...        0 min,  0.014 sec
     gradient                   ...        0 min,  0.027 sec
 * total energy  :   -70.3127211 Eh     change       -0.2080828E-04 Eh
   gradient norm :     0.0018604 Eh/α   predicted    -0.1164993E-04 ( -44.01%)
   displ. norm   :     0.0725117 α      lambda       -0.1168633E-04
   maximum displ.:     0.0398838 α      in ANC's #5, #16, #6, ...

........................................................................
.............................. CYCLE   14 ..............................
........................................................................

 iter      E             dE          RMSdq      gap      omega  full diag
   1    -71.2403967 -0.712404E+02  0.154E-02    3.04       0.0  T
   2    -71.2403969 -0.242584E-06  0.877E-03    3.03       1.7  T
   3    -71.2403969  0.851841E-08  0.193E-03    3.03       7.9  T
   4    -71.2403969 -0.420315E-07  0.791E-04    3.03      19.3  T
   5    -71.2403969 -0.593077E-08  0.374E-04    3.03      40.8  T
     SCC iter.                  ...        0 min,  0.024 sec
     gradient                   ...        0 min,  0.027 sec
 * total energy  :   -70.3127297 Eh     change       -0.8625088E-05 Eh
   gradient norm :     0.0014401 Eh/α   predicted    -0.5860654E-05 ( -32.05%)
   displ. norm   :     0.0948015 α      lambda       -0.8924178E-05
   maximum displ.:     0.0483194 α      in ANC's #16, #5, #11, ...

........................................................................
.............................. CYCLE   15 ..............................
........................................................................

 iter      E             dE          RMSdq      gap      omega  full diag
   1    -71.2400415 -0.712400E+02  0.187E-02    3.04       0.0  T
   2    -71.2400416 -0.141284E-06  0.109E-02    3.04       1.4  T
   3    -71.2400416  0.888212E-07  0.232E-03    3.04       6.6  T
   4    -71.2400417 -0.118641E-06  0.922E-04    3.04      16.5  T
   5    -71.2400417 -0.107929E-07  0.342E-04    3.04      44.5  T
     SCC iter.                  ...        0 min,  0.012 sec
     gradient                   ...        0 min,  0.026 sec
 * total energy  :   -70.3127386 Eh     change       -0.8816724E-05 Eh
   gradient norm :     0.0011176 Eh/α   predicted    -0.4484783E-05 ( -49.13%)
   displ. norm   :     0.0571694 α      lambda       -0.6877768E-05
   maximum displ.:     0.0280526 α      in ANC's #16, #15, #11, ...

........................................................................
.............................. CYCLE   16 ..............................
........................................................................

 iter      E             dE          RMSdq      gap      omega  full diag
   1    -71.2401686 -0.712402E+02  0.117E-02    3.04       0.0  T
   2    -71.2401687 -0.140865E-06  0.701E-03    3.04       2.2  T
   3    -71.2401686  0.133162E-06  0.254E-03    3.04       6.0  T
   4    -71.2401687 -0.172801E-06  0.640E-04    3.04      23.8  T
   5    -71.2401687 -0.692089E-08  0.290E-04    3.04      52.5  T
     SCC iter.                  ...        0 min,  0.012 sec
     gradient                   ...        0 min,  0.027 sec
 * total energy  :   -70.3127457 Eh     change       -0.7141166E-05 Eh
   gradient norm :     0.0008273 Eh/α   predicted    -0.3447171E-05 ( -51.73%)
   displ. norm   :     0.0506890 α      lambda       -0.4564843E-05
   maximum displ.:     0.0267836 α      in ANC's #15, #16, #3, ...

........................................................................
.............................. CYCLE   17 ..............................
........................................................................

 iter      E             dE          RMSdq      gap      omega  full diag
   1    -71.2404495 -0.712404E+02  0.109E-02    3.04       0.0  T
   2    -71.2404495 -0.594994E-07  0.627E-03    3.04       2.4  T
   3    -71.2404495  0.634516E-07  0.165E-03    3.04       9.2  T
   4    -71.2404496 -0.825703E-07  0.579E-04    3.04      26.3  T
   5    -71.2404496 -0.258909E-08  0.189E-04    3.04      80.9  T
     SCC iter.                  ...        0 min,  0.012 sec
     gradient                   ...        0 min,  0.027 sec
 * total energy  :   -70.3127504 Eh     change       -0.4718583E-05 Eh
   gradient norm :     0.0007626 Eh/α   predicted    -0.2285793E-05 ( -51.56%)
   displ. norm   :     0.0562013 α      lambda       -0.3423347E-05
   maximum displ.:     0.0279305 α      in ANC's #16, #15, #3, ...

   *** GEOMETRY OPTIMIZATION CONVERGED AFTER 17 ITERATIONS ***

------------------------------------------------------------------------
 total energy gain   :        -0.0127325 Eh       -7.9897 kcal/mol
 total RMSD          :         0.2503279 a0        0.1325 Å
 total power (kW/mol):        -1.9664175 (step)  -35.3811 (real)
------------------------------------------------------------------------

 ANCopt (total)                0 d,  0 h,  0 min,  0.945 sec
 optimizer setup                ...        0 min,  0.000 sec (  0.007%)
 model hessian                  ...        0 min,  0.009 sec (  1.003%)
 ANC generation                 ...        0 min,  0.002 sec (  0.162%)
 coordinate transformation      ...        0 min,  0.000 sec (  0.013%)
 single point calculation       ...        0 min,  0.928 sec ( 98.217%)
 optimization log               ...        0 min,  0.003 sec (  0.298%)
 hessian update                 ...        0 min,  0.000 sec (  0.024%)
 rational function              ...        0 min,  0.001 sec (  0.125%)

================
 final structure:
================
43
 xtb: 6.7.1 (edcfbbe)
C            6.28033681541708       -1.40651987268410       -0.50255868915909
C            4.80361561766565       -1.19547963614144       -0.38597628401176
C            4.25136121344393        0.08430443462783       -0.28208117113257
O            5.07464724622767        1.19670216861831       -0.30452125798779
C            5.51793229954731        1.60036865394757        0.97455208395643
C            2.86706261091217        0.24826436163343       -0.19522535572138
C            2.26782971202501        1.61874667483867       -0.12284715662381
C            3.91335838747458       -2.26146997295583       -0.38144695992277
N            2.60677282053944       -2.12812717997477       -0.27865528406175
C            2.08642971519162       -0.91273455647742       -0.19324459212032
C            0.60405297860007       -0.85487647865281       -0.06838339123575
S            0.13279912333628       -0.12572594590013        1.58240056418479
C           -1.61705668434369       -0.09444153432043        1.16575558341559
N           -2.18612615561982        0.60463831141587        0.22607892599881
C           -3.52393291469750        0.31543563615533        0.33041025077367
C           -3.72983134713187       -0.59553516473546        1.39373556873961
N           -2.48107065701364       -0.82970871183139        1.91021748357806
C           -4.99816749858219       -1.05562700462429        1.71523549883795
C           -6.04490881712049       -0.58652445787682        0.95791912717539
C           -5.85422395188232        0.32147389269515       -0.10307348927056
O           -7.00054731670304        0.68358787749267       -0.74686174817249
C           -6.90554773182806        1.58935932522840       -1.81880290467199
C           -4.59214402799161        0.78246255000725       -0.43095641566705
O            0.21016282185822       -1.19378162400252        2.58317192374711
H            6.49060741673966       -2.26393163924421       -1.13776430005363
H            6.71524692113287       -1.59973725320970        0.47911026699935
H            6.75335613381439       -0.52153836954854       -0.92257801428041
H            6.13375845331781        2.48380930995380        0.81611661839523
H            6.11613476902688        0.81965024225004        1.45567026871052
H            4.67618935197353        1.85274075360556        1.62794893999385
H            1.99550714288967        1.86778722748345        0.90197011002139
H            1.37061680838753        1.68573780078807       -0.73348999614474
H            2.99158791959257        2.34887139373175       -0.47819661498195
H            4.27315576217912       -3.27893692155610       -0.46123101724540
H            0.14102713396819       -0.19752988366065       -0.80172074446392
H            0.19164750867800       -1.86005795487128       -0.12091661197713
H           -2.19996603275913       -1.43357134101935        2.66688690513351
H           -5.15864616035936       -1.75033548229945        2.52471642238813
H           -7.05525504717560       -0.90475278278793        1.15862574131780
H           -7.92418312715084        1.73017567807636       -2.17659907203862
H           -6.49825448794235        2.55259282705612       -1.49508121661053
H           -6.28852539396776        1.18870570392081       -2.62946295401236
H           -4.40700933167000        1.47562894484780       -1.23324704179939

 Bond Distances (Angstroems)
 ---------------------------
C1-C2=1.4963         C1-H25=1.0876        C1-H26=1.0909        C1-H27=1.0878        C2-C1=1.4963         C2-C3=1.3977         
C2-C8=1.3889         C3-C2=1.3977         C3-O4=1.3841         C3-C6=1.3967         O4-C3=1.3841         O4-C5=1.4126         
C5-O4=1.4126         C5-H28=1.0885        C5-H29=1.0949        C5-H30=1.0951        C6-C3=1.3967         C6-C7=1.4975         
C6-C10=1.3990        C7-C6=1.4975         C7-H31=1.0892        C7-H32=1.0874        C7-H33=1.0877        C8-C2=1.3889         
C8-N9=1.3174         C8-H34=1.0822        N9-C8=1.3174         N9-C10=1.3249        C10-C6=1.3990        C10-N9=1.3249        
C10-C11=1.4888       C11-C10=1.4888       C11-S12=1.8652       C11-H35=1.0882       C11-H36=1.0878       S12-C11=1.8652       
S12-C13=1.7990       S12-O24=1.4657       C13-S12=1.7990       C13-N14=1.3021       C13-N17=1.3570       N14-C13=1.3021       
N14-C15=1.3727       C15-N14=1.3727       C15-C16=1.4152       C15-C23=1.3924       C16-C15=1.4152       C16-N17=1.3715       
C16-C18=1.3870       N17-C13=1.3570       N17-C16=1.3715       N17-H37=1.0081       C18-C16=1.3870       C18-C19=1.3745       
C18-H38=1.0787       C19-C18=1.3745       C19-C20=1.4094       C19-H39=1.0781       C20-C19=1.4094       C20-O21=1.3637       
C20-C23=1.3831       O21-C20=1.3637       O21-C22=1.4066       C22-O21=1.4066       C22-H40=1.0888       C22-H41=1.0948       
C22-H42=1.0947       C23-C15=1.3924       C23-C20=1.3831       C23-H43=1.0763       O24-S12=1.4657       H25-C1=1.0876        
H26-C1=1.0909        H27-C1=1.0878        H28-C5=1.0885        H29-C5=1.0949        H30-C5=1.0951        H31-C7=1.0892        
H32-C7=1.0874        H33-C7=1.0877        H34-C8=1.0822        H35-C11=1.0882       H36-C11=1.0878       H37-N17=1.0081       
H38-C18=1.0787       H39-C19=1.0781       H40-C22=1.0888       H41-C22=1.0948       H42-C22=1.0947       H43-C23=1.0763       
 C  H  Rav=1.0877 sigma=0.0055  Rmin=1.0763  Rmax=1.0951    18
 C  C  Rav=1.4174 sigma=0.0433  Rmin=1.3745  Rmax=1.4975    13
 N  H  Rav=1.0081 sigma=0.0000  Rmin=1.0081  Rmax=1.0081     1
 N  C  Rav=1.3409 sigma=0.0274  Rmin=1.3021  Rmax=1.3727     6
 O  C  Rav=1.3917 sigma=0.0194  Rmin=1.3637  Rmax=1.4126     4
 S  C  Rav=1.8321 sigma=0.0331  Rmin=1.7990  Rmax=1.8652     2
 S  O  Rav=1.4657 sigma=0.0000  Rmin=1.4657  Rmax=1.4657     1

 selected bond angles (degree)
 --------------------
H25-C1-C2=110.34               H26-C1-C2=110.38               H26-C1-H25=107.99              H27-C1-C2=110.15               
H27-C1-H25=109.38              H27-C1-H26=108.55              C3-C2-C1=121.66                C8-C2-C1=121.64                
C8-C2-C3=116.70                O4-C3-C2=119.98                C6-C3-C2=120.25                C6-C3-O4=119.75                
C5-O4-C3=113.68                H28-C5-O4=106.12               H29-C5-O4=111.44               H29-C5-H28=109.49              
H30-C5-O4=111.40               H30-C5-H28=109.55              H30-C5-H29=108.79              C7-C6-C3=120.47                
C10-C6-C3=117.11               C10-C6-C7=122.42               H31-C7-C6=110.78               H32-C7-C6=111.06               
H32-C7-H31=107.94              H33-C7-C6=109.41               H33-C7-H31=108.68              H33-C7-H32=108.92              
N9-C8-C2=123.94                H34-C8-C2=120.55               H34-C8-N9=115.51               C10-N9-C8=119.17               
N9-C10-C6=122.82               C11-C10-C6=121.56              C11-C10-N9=115.60              

 selected dihedral angles (degree)
 ---------------------------------
C3-C2-C1-H25=214.31           C3-C2-C1-H26= 95.03           C3-C2-C1-H27=335.17           C8-C2-C1-H25= 34.03           
C8-C2-C1-H26=274.75           C8-C2-C1-H27=154.89           O4-C3-C2-C1=  0.91            O4-C3-C2-C8=181.18            
C6-C3-C2-C1=179.02            C6-C3-C2-C8=359.29            C5-O4-C3-C2=269.69            C5-O4-C3-C6= 91.58            
H28-C5-O4-C3=180.97           H29-C5-O4-C3= 61.86           H30-C5-O4-C3=300.15           C7-C6-C3-C2=181.74            
C7-C6-C3-O4=359.85            C10-C6-C3-C2=  1.12           C10-C6-C3-O4=179.23           H31-C7-C6-C3=259.04           
H31-C7-C6-C10= 79.69          H32-C7-C6-C3=139.09           H32-C7-C6-C10=319.74          H33-C7-C6-C3= 18.83           
H33-C7-C6-C10=199.48          N9-C8-C2-C1=179.87            N9-C8-C2-C3=359.60            H34-C8-C2-C1=  0.11           
H34-C8-C2-C3=179.85           C10-N9-C8-C2=  1.05           C10-N9-C8-H34=180.82          N9-C10-C6-C3=359.51           
N9-C10-C6-C7=178.88           C11-C10-C6-C3=178.37          C11-C10-C6-C7=357.74          C6-C10-N9-C8=359.42           
C11-C10-N9-C8=180.50          
           -------------------------------------------------
          |                Final Singlepoint                |
           -------------------------------------------------

          ...................................................
          :                      SETUP                      :
          :.................................................:
          :  # basis functions                 121          :
          :  # atomic orbitals                 120          :
          :  # shells                           68          :
          :  # electrons                       126          :
          :  max. iterations                   250          :
          :  Hamiltonian                  GFN2-xTB          :
          :  restarted?                      false          :
          :  GBSA solvation                  false          :
          :  PC potential                    false          :
          :  electronic temp.          300.0000000     K    :
          :  accuracy                    1.0000000          :
          :  -> integral cutoff          0.2500000E+02      :
          :  -> integral neglect         0.1000000E-07      :
          :  -> SCF convergence          0.1000000E-05 Eh   :
          :  -> wf. convergence          0.1000000E-03 e    :
          :  Broyden damping             0.4000000          :
          :  net charge                          0          :
          :  unpaired electrons                  0          :
          ...................................................

 iter      E             dE          RMSdq      gap      omega  full diag
   1    -71.2404496 -0.712404E+02  0.633E-05    3.04       0.0  T
   2    -71.2404496 -0.171951E-10  0.409E-05    3.04     373.3  T
   3    -71.2404496 -0.359535E-11  0.267E-05    3.04     571.7  T

   *** convergence criteria satisfied after 3 iterations ***

         #    Occupation            Energy/Eh            Energy/eV
      -------------------------------------------------------------
         1        2.0000           -0.7618624             -20.7313
       ...           ...                  ...                  ...
        57        2.0000           -0.4088521             -11.1254
        58        2.0000           -0.4059540             -11.0466
        59        2.0000           -0.3983653             -10.8401
        60        2.0000           -0.3932979             -10.7022
        61        2.0000           -0.3868106             -10.5257
        62        2.0000           -0.3765351             -10.2460
        63        2.0000           -0.3712250             -10.1015 (HOMO)
        64                         -0.2595262              -7.0621 (LUMO)
        65                         -0.2445136              -6.6536
        66                         -0.2354880              -6.4080
        67                         -0.2096468              -5.7048
        68                         -0.2050376              -5.5794
       ...                                ...                  ...
       120                          0.9079175              24.7057
      -------------------------------------------------------------
                  HL-Gap            0.1116988 Eh            3.0395 eV
             Fermi-level           -0.3153756 Eh           -8.5818 eV

 SCC (total)                   0 d,  0 h,  0 min,  0.045 sec
 SCC setup                      ...        0 min,  0.000 sec (  0.722%)
 Dispersion                     ...        0 min,  0.002 sec (  5.208%)
 classical contributions        ...        0 min,  0.000 sec (  0.322%)
 integral evaluation            ...        0 min,  0.008 sec ( 17.634%)
 iterations                     ...        0 min,  0.007 sec ( 15.992%)
 molecular gradient             ...        0 min,  0.027 sec ( 59.773%)
 printout                       ...        0 min,  0.000 sec (  0.336%)

         :::::::::::::::::::::::::::::::::::::::::::::::::::::
         ::                     SUMMARY                     ::
         :::::::::::::::::::::::::::::::::::::::::::::::::::::
         :: total energy             -70.312750418663 Eh    ::
         :: gradient norm              0.000762314644 Eh/a0 ::
         :: HOMO-LUMO gap              3.039479841779 eV    ::
         ::.................................................::
         :: SCC energy               -71.240650223586 Eh    ::
         :: -> isotropic ES            0.092349734482 Eh    ::
         :: -> anisotropic ES          0.005184973433 Eh    ::
         :: -> anisotropic XC          0.029563824487 Eh    ::
         :: -> dispersion             -0.047357774577 Eh    ::
         :: repulsion energy           0.927899804923 Eh    ::
         :: add. restraining           0.000000000000 Eh    ::
         :: total charge              -0.000000000000 e     ::
         :::::::::::::::::::::::::::::::::::::::::::::::::::::

           -------------------------------------------------
          |                Property Printout                |
           -------------------------------------------------

    * Orbital Energies and Occupations

         #    Occupation            Energy/Eh            Energy/eV
      -------------------------------------------------------------
         1        2.0000           -0.7618624             -20.7313
       ...           ...                  ...                  ...
        51        2.0000           -0.4554480             -12.3934
        52        2.0000           -0.4506392             -12.2625
        53        2.0000           -0.4428398             -12.0503
        54        2.0000           -0.4379655             -11.9176
        55        2.0000           -0.4227608             -11.5039
        56        2.0000           -0.4172426             -11.3537
        57        2.0000           -0.4088521             -11.1254
        58        2.0000           -0.4059540             -11.0466
        59        2.0000           -0.3983653             -10.8401
        60        2.0000           -0.3932979             -10.7022
        61        2.0000           -0.3868106             -10.5257
        62        2.0000           -0.3765351             -10.2460
        63        2.0000           -0.3712250             -10.1015 (HOMO)
        64                         -0.2595262              -7.0621 (LUMO)
        65                         -0.2445136              -6.6536
        66                         -0.2354880              -6.4080
        67                         -0.2096468              -5.7048
        68                         -0.2050376              -5.5794
        69                         -0.1844325              -5.0187
        70                         -0.1692066              -4.6043
        71                         -0.1175312              -3.1982
        72                         -0.0850689              -2.3148
        73                         -0.0477198              -1.2985
        74                         -0.0014359              -0.0391
       ...                                ...                  ...
       120                          0.9079175              24.7057
      -------------------------------------------------------------
                  HL-Gap            0.1116988 Eh            3.0395 eV
             Fermi-level           -0.3153756 Eh           -8.5818 eV

     #   Z          covCN         q      C6AA      α(0)
     1   6 C        3.757    -0.105    22.551     6.771
     2   6 C        2.958    -0.015    28.375     8.737
     3   6 C        2.896     0.136    25.033     8.203
     4   8 O        1.703    -0.308    19.132     5.905
     5   6 C        3.657     0.045    20.100     6.435
     6   6 C        2.960    -0.023    28.574     8.768
     7   6 C        3.757    -0.116    22.772     6.804
     8   6 C        2.911     0.043    27.043     8.527
     9   7 N        1.843    -0.235    26.990     7.699
    10   6 C        2.996     0.081    26.193     8.395
    11   6 C        3.802    -0.087    22.163     6.702
    12  16 S        2.869     0.408   125.523    18.857
    13   6 C        3.208     0.106    25.097     8.157
    14   7 N        1.895    -0.295    28.483     7.912
    15   6 C        3.225     0.067    25.774     8.250
    16   6 C        3.103     0.033    27.126     8.534
    17   7 N        2.801    -0.108    23.364     7.179
    18   6 C        2.906    -0.050    29.229     8.865
    19   6 C        2.928    -0.056    29.398     8.892
    20   6 C        2.870     0.137    24.999     8.196
    21   8 O        1.706    -0.268    18.442     5.798
    22   6 C        3.645     0.036    20.309     6.477
    23   6 C        2.908    -0.081    30.027     8.985
    24   8 O        0.860    -0.487    23.504     6.500
    25   1 H        0.925     0.047     2.358     2.402
    26   1 H        0.924     0.049     2.334     2.389
    27   1 H        0.925     0.060     2.202     2.321
    28   1 H        0.925     0.058     2.220     2.330
    29   1 H        0.924     0.034     2.536     2.490
    30   1 H        0.924     0.034     2.532     2.488
    31   1 H        0.925     0.050     2.317     2.380
    32   1 H        0.925     0.053     2.287     2.365
    33   1 H        0.925     0.067     2.119     2.276
    34   1 H        0.925     0.046     2.371     2.408
    35   1 H        0.925     0.073     2.050     2.239
    36   1 H        0.925     0.084     1.938     2.177
    37   1 H        0.860     0.191     1.155     1.684
    38   1 H        0.926     0.042     2.425     2.435
    39   1 H        0.926     0.056     2.243     2.342
    40   1 H        0.925     0.063     2.166     2.302
    41   1 H        0.924     0.042     2.425     2.435
    42   1 H        0.924     0.042     2.425     2.435
    43   1 H        0.926     0.052     2.293     2.368

 Mol. C6AA /au·bohr⁶  :      23673.850570
 Mol. C8AA /au·bohr⁸  :     592167.152036
 Mol. α(0) /au        :        239.817273


Wiberg/Mayer (AO) data.
largest (>0.10) Wiberg bond orders for each atom

 ---------------------------------------------------------------------------
     #   Z sym  total        # sym  WBO       # sym  WBO       # sym  WBO
 ---------------------------------------------------------------------------
     1   6 C    3.994 --     2 C    1.028    27 H    0.980    25 H    0.979
                            26 H    0.965
     2   6 C    3.984 --     8 C    1.397     3 C    1.364     1 C    1.028
     3   6 C    3.945 --     6 C    1.381     2 C    1.364     4 O    1.001
     4   8 O    2.104 --     3 C    1.001     5 C    0.970
     5   6 C    3.947 --    28 H    0.980    30 H    0.979    29 H    0.979
                             4 O    0.970
     6   6 C    3.987 --     3 C    1.381    10 C    1.356     7 C    1.029
                             8 C    0.103
     7   6 C    3.993 --     6 C    1.029    33 H    0.978    32 H    0.972
                            31 H    0.963
     8   6 C    3.982 --     9 N    1.441     2 C    1.397    34 H    0.961
                             6 C    0.103
     9   7 N    3.063 --     8 C    1.441    10 C    1.405
    10   6 C    3.982 --     9 N    1.405     6 C    1.356    11 C    1.027
    11   6 C    3.979 --    10 C    1.027    36 H    0.966    35 H    0.955
                            12 S    0.881
    12  16 S    3.780 --    24 O    1.818    13 C    0.930    11 C    0.881
    13   6 C    3.946 --    14 N    1.539    17 N    1.235    12 S    0.930
    14   7 N    3.010 --    13 C    1.539    15 C    1.208    17 N    0.125
    15   6 C    3.977 --    23 C    1.322    16 C    1.254    14 N    1.208
    16   6 C    3.950 --    18 C    1.330    15 C    1.254    17 N    1.152
    17   7 N    3.566 --    13 C    1.235    16 C    1.152    37 H    0.931
                            14 N    0.125
    18   6 C    3.988 --    19 C    1.513    16 C    1.330    38 H    0.967
                            23 C    0.106
    19   6 C    3.981 --    18 C    1.513    20 C    1.296    39 H    0.968
    20   6 C    3.935 --    23 C    1.433    19 C    1.296    21 O    1.060
    21   8 O    2.225 --    20 C    1.060    22 C    0.986
    22   6 C    3.946 --    21 O    0.986    40 H    0.980    41 H    0.976
                            42 H    0.976
    23   6 C    3.982 --    20 C    1.433    15 C    1.322    43 H    0.963
                            18 C    0.106
    24   8 O    1.994 --    12 S    1.818
    25   1 H    0.997 --     1 C    0.979
    26   1 H    0.997 --     1 C    0.965
    27   1 H    0.996 --     1 C    0.980
    28   1 H    0.996 --     5 C    0.980
    29   1 H    0.999 --     5 C    0.979
    30   1 H    0.999 --     5 C    0.979
    31   1 H    0.997 --     7 C    0.963
    32   1 H    0.997 --     7 C    0.972
    33   1 H    0.995 --     7 C    0.978
    34   1 H    0.997 --     8 C    0.961
    35   1 H    0.994 --    11 C    0.955
    36   1 H    0.993 --    11 C    0.966
    37   1 H    0.963 --    17 N    0.931
    38   1 H    0.998 --    18 C    0.967
    39   1 H    0.996 --    19 C    0.968
    40   1 H    0.996 --    22 C    0.980
    41   1 H    0.998 --    22 C    0.976
    42   1 H    0.998 --    22 C    0.976
    43   1 H    0.997 --    23 C    0.963
 ---------------------------------------------------------------------------

Topologies differ in total number of bonds
Writing topology from bond orders to xtbtopo.mol

molecular dipole:
                 x           y           z       tot (Debye)
 q only:        0.111       0.842      -0.388
   full:        0.191       0.637      -0.146       1.731
molecular quadrupole (traceless):
                xx          xy          yy          xz          yz          zz
 q only:       11.716      -0.647      -4.178       6.716       2.953      -7.539
  q+dip:       14.219       0.659      -5.272       5.898      -0.088      -8.947
   full:       12.437      -0.076      -6.377       6.253       1.778      -6.060

           -------------------------------------------------
          |                Geometry Summary                 |
           -------------------------------------------------

      molecular mass/u    :      345.4164963
   center of mass at/Å    :       -0.2889425      -0.1466024       0.3629270
  moments of inertia/u·Å² :        0.8108254E+03   0.6297181E+04   0.6527446E+04
rotational constants/cm⁻¹ :        0.2079070E-01   0.2677012E-02   0.2582577E-02

 * 42 selected distances

     #   Z          #   Z                                           value/Å
     2   6 C        3   6 C                                       1.3977220
     3   6 C        4   8 O                                       1.3840999
     4   8 O        5   6 C                                       1.4126136
     3   6 C        6   6 C                                       1.3966781
     2   6 C        8   6 C                                       1.3888536
     8   6 C        9   7 N                                       1.3173886
     6   6 C       10   6 C                                       1.3990391
     9   7 N       10   6 C                                       1.3248515
    10   6 C       11   6 C                                       1.4887508
    12  16 S       13   6 C                                       1.7990463 (max)
    13   6 C       14   7 N                                       1.3021310
    14   7 N       15   6 C                                       1.3726800
    15   6 C       16   6 C                                       1.4152466
    13   6 C       17   7 N                                       1.3569679
    16   6 C       17   7 N                                       1.3714935
    16   6 C       18   6 C                                       1.3869837
    18   6 C       19   6 C                                       1.3745010
    19   6 C       20   6 C                                       1.4094422
    20   6 C       21   8 O                                       1.3636889
    21   8 O       22   6 C                                       1.4065934
    15   6 C       23   6 C                                       1.3924326
    20   6 C       23   6 C                                       1.3830632
    12  16 S       24   8 O                                       1.4656984
     1   6 C       25   1 H                                       1.0875914
     1   6 C       26   1 H                                       1.0909418
     1   6 C       27   1 H                                       1.0878217
     5   6 C       28   1 H                                       1.0884904
     5   6 C       29   1 H                                       1.0949166
     5   6 C       30   1 H                                       1.0950573
     7   6 C       31   1 H                                       1.0892343
     7   6 C       32   1 H                                       1.0873655
     7   6 C       33   1 H                                       1.0877415
     8   6 C       34   1 H                                       1.0821547
    11   6 C       35   1 H                                       1.0882469
    11   6 C       36   1 H                                       1.0877629
    17   7 N       37   1 H                                       1.0080767 (min)
    18   6 C       38   1 H                                       1.0787182
    19   6 C       39   1 H                                       1.0781244
    22   6 C       40   1 H                                       1.0887909
    22   6 C       41   1 H                                       1.0947614
    22   6 C       42   1 H                                       1.0947191
    23   6 C       43   1 H                                       1.0763015

 * 7 distinct bonds (by element types)

   Z      Z             #   av. dist./Å        max./Å        min./Å
   1 H    6 C          18     1.0877078     1.0950573     1.0763015
   6 C    6 C          11     1.4029739     1.4887508     1.3745010
   1 H    7 N           1     1.0080767     1.0080767     1.0080767
   6 C    7 N           6     1.3409188     1.3726800     1.3021310
   6 C    8 O           4     1.3917490     1.4126136     1.3636889
   6 C   16 S           1     1.7990463     1.7990463     1.7990463
   8 O   16 S           1     1.4656984     1.4656984     1.4656984


optimized geometry written to: xtbopt.xyz


           -------------------------------------------------
          | TOTAL ENERGY              -70.312750418663 Eh   |
          | GRADIENT NORM               0.000762314644 Eh/α |
          | HOMO-LUMO GAP               3.039479841779 eV   |
           -------------------------------------------------

------------------------------------------------------------------------
 * finished run on 2025/05/15 at 16:35:45.636     
------------------------------------------------------------------------
 total:
 * wall-time:     0 d,  0 h,  0 min,  1.079 sec
 *  cpu-time:     0 d,  0 h,  0 min,  0.974 sec
 * ratio c/w:     0.902 speedup
 SCF:
 * wall-time:     0 d,  0 h,  0 min,  0.068 sec
 *  cpu-time:     0 d,  0 h,  0 min,  0.068 sec
 * ratio c/w:     0.995 speedup
 ANC optimizer:
 * wall-time:     0 d,  0 h,  0 min,  0.993 sec
 *  cpu-time:     0 d,  0 h,  0 min,  0.894 sec
 * ratio c/w:     0.901 speedup



----- Single-point -----
      -----------------------------------------------------------      
     |                   =====================                   |     
     |                           x T B                           |     
     |                   =====================                   |     
     |                         S. Grimme                         |     
     |          Mulliken Center for Theoretical Chemistry        |     
     |                    University of Bonn                     |     
      -----------------------------------------------------------      

   * xtb version 6.7.1 (edcfbbe) compiled by 'conda@3ef47c1a292c' on 2024-11-25

   xtb is free software: you can redistribute it and/or modify it under
   the terms of the GNU Lesser General Public License as published by
   the Free Software Foundation, either version 3 of the License, or
   (at your option) any later version.
   
   xtb is distributed in the hope that it will be useful,
   but WITHOUT ANY WARRANTY; without even the implied warranty of
   MERCHANTABILITY or FITNESS FOR A PARTICULAR PURPOSE.  See the
   GNU Lesser General Public License for more details.
   
   Cite this work as:
   * C. Bannwarth, E. Caldeweyher, S. Ehlert, A. Hansen, P. Pracht,
     J. Seibert, S. Spicher, S. Grimme, WIREs Comput. Mol. Sci., 2020, 11,
     e01493. DOI: 10.1002/wcms.1493
   
   for GFN2-xTB:
   * C. Bannwarth, S. Ehlert and S. Grimme., J. Chem. Theory Comput., 2019,
     15, 1652-1671. DOI: 10.1021/acs.jctc.8b01176
   for GFN1-xTB:
   * S. Grimme, C. Bannwarth, P. Shushkov, J. Chem. Theory Comput., 2017,
     13, 1989-2009. DOI: 10.1021/acs.jctc.7b00118
   for GFN0-xTB:
   * P. Pracht, E. Caldeweyher, S. Ehlert, S. Grimme, ChemRxiv, 2019, preprint.
     DOI: 10.26434/chemrxiv.8326202.v1
   for GFN-FF:
   * S. Spicher and S. Grimme, Angew. Chem. Int. Ed., 2020, 59, 15665-15673.
     DOI: 10.1002/anie.202004239
   
   for ALPB and GBSA implicit solvation:
   * S. Ehlert, M. Stahn, S. Spicher, S. Grimme, J. Chem. Theory Comput.,
     2021, 17, 4250-4261. DOI: 10.1021/acs.jctc.1c00471
   
   for ddCOSMO and CPCM-X implicit solvation:
   * M. Stahn, S. Ehlert, S. Grimme, J. Phys. Chem. A,
     2023, XX, XXXX-XXXX. DOI: 10.1021/acs.jpca.3c04382
   
   for DFT-D4:
   * E. Caldeweyher, C. Bannwarth and S. Grimme, J. Chem. Phys., 2017,
     147, 034112. DOI: 10.1063/1.4993215
   * E. Caldeweyher, S. Ehlert, A. Hansen, H. Neugebauer, S. Spicher,
     C. Bannwarth and S. Grimme, J. Chem. Phys., 2019, 150, 154122.
     DOI: 10.1063/1.5090222
   * E. Caldeweyher, J.-M. Mewes, S. Ehlert and S. Grimme, Phys. Chem. Chem. Phys.
     2020, 22, 8499-8512. DOI: 10.1039/D0CP00502A
   
   for sTDA-xTB:
   * S. Grimme and C. Bannwarth, J. Chem. Phys., 2016, 145, 054103.
     DOI: 10.1063/1.4959605
   
   in the mass-spec context:
   * V. Asgeirsson, C. Bauer and S. Grimme, Chem. Sci., 2017, 8, 4879.
     DOI: 10.1039/c7sc00601b
   * J. Koopman and S. Grimme, ACS Omega 2019, 4, 12, 15120-15133.
     DOI: 10.1021/acsomega.9b02011
   
   for metadynamics refer to:
   * S. Grimme, J. Chem. Theory Comput., 2019, 155, 2847-2862
     DOI: 10.1021/acs.jctc.9b00143
   
   for SPH calculations refer to:
   * S. Spicher and S. Grimme, J. Chem. Theory Comput., 2021, 17, 1701-1714
     DOI: 10.1021/acs.jctc.0c01306
   
   for ONIOM refer to:
   * C. Plett, A. Katbashev, S. Ehlert, S. Grimme, M. Bursch,
     Phys. Chem. Chem. Phys., 2023, 25, 17860-17868. DOI: 10.1039/D3CP02178E
   
   for DIPRO refer to:
   * J. Kohn, N. Gildemeister, S. Grimme, D. Fazzi, A. Hansen,
     J. Chem. Phys., 2023, just accepted.
   
   for PTB refer to:
   * S. Grimme, M. Mueller, A. Hansen, J. Chem. Phys., 2023, 158, 124111.
     DOI: 10.1063/5.0137838
   
   with help from (in alphabetical order)
   P. Atkinson, C. Bannwarth, F. Bohle, G. Brandenburg, E. Caldeweyher
   M. Checinski, S. Dohm, S. Ehlert, S. Ehrlich, I. Gerasimov, C. Hölzer
   A. Katbashev, J. Kohn, J. Koopman, C. Lavigne, S. Lehtola, F. März, M. Müller,
   F. Musil, H. Neugebauer, J. Pisarek, C. Plett, P. Pracht, F. Pultar,
   J. Seibert, P. Shushkov, S. Spicher, M. Stahn, M. Steiner, T. Strunk,
   J. Stückrath, T. Rose, and J. Unsleber
   
 * started run on 2025/05/15 at 16:35:45.653     
   ID    Z sym.   atoms
    1    6 C      1-3, 5-8, 10, 11, 13, 15, 16, 18-20, 22, 23
    2    8 O      4, 21, 24
    3    7 N      9, 14, 17
    4   16 S      12
    5    1 H      25-43

           -------------------------------------------------
          |                Calculation Setup                |
           -------------------------------------------------

          program call               : xtb /rds/general/user/hgt20/home/callum/QDESCP/Omeprazole_rdkit_conf_9/Omeprazole_rdkit_conf_9.xyz --acc 1 --gfn 2 --chrg 0 --uhf 0 --etemp 300 --input /rds/general/user/hgt20/home/callum/QDESCP/Omeprazole_rdkit_conf_9/Omeprazole_rdkit_conf_9_xtb.inp -P 1
          hostname                   : login-c
          coordinate file            : /rds/general/user/hgt20/home/callum/QDESCP/Omeprazole_rdkit_conf_9/Omeprazole_rdkit_conf_9.xyz
          omp threads                :                     1


           -------------------------------------------------
          |                 G F N 2 - x T B                 |
           -------------------------------------------------

        Reference                      10.1021/acs.jctc.8b01176
      * Hamiltonian:
        H0-scaling (s, p, d)           1.850000    2.230000    2.230000
        zeta-weighting                 0.500000
      * Dispersion:
        s8                             2.700000
        a1                             0.520000
        a2                             5.000000
        s9                             5.000000
      * Repulsion:
        kExp                           1.500000    1.000000
        rExp                           1.000000
      * Coulomb:
        alpha                          2.000000
        third order                    shell-resolved
        anisotropic                    true
        a3                             3.000000
        a5                             4.000000
        cn-shift                       1.200000
        cn-exp                         4.000000
        max-rad                        5.000000

q/qsh data taken from xtbrestart
CAMM data taken from xtbrestart

          ...................................................
          :                      SETUP                      :
          :.................................................:
          :  # basis functions                 121          :
          :  # atomic orbitals                 120          :
          :  # shells                           68          :
          :  # electrons                       126          :
          :  max. iterations                   250          :
          :  Hamiltonian                  GFN2-xTB          :
          :  restarted?                       true          :
          :  GBSA solvation                  false          :
          :  PC potential                    false          :
          :  electronic temp.          300.0000000     K    :
          :  accuracy                    1.0000000          :
          :  -> integral cutoff          0.2500000E+02      :
          :  -> integral neglect         0.1000000E-07      :
          :  -> SCF convergence          0.1000000E-05 Eh   :
          :  -> wf. convergence          0.1000000E-03 e    :
          :  Broyden damping             0.4000000          :
          :  net charge                          0          :
          :  unpaired electrons                  0          :
          ...................................................

 iter      E             dE          RMSdq      gap      omega  full diag
   1    -71.2404496 -0.712404E+02  0.826E-06    3.04       0.0  T
   2    -71.2404496 -0.540012E-12  0.598E-06    3.04    2548.7  T
   3    -71.2404496 -0.767386E-12  0.359E-06    3.04    4247.5  T

   *** convergence criteria satisfied after 3 iterations ***

         #    Occupation            Energy/Eh            Energy/eV
      -------------------------------------------------------------
         1        2.0000           -0.7618623             -20.7313
       ...           ...                  ...                  ...
        57        2.0000           -0.4088520             -11.1254
        58        2.0000           -0.4059539             -11.0466
        59        2.0000           -0.3983654             -10.8401
        60        2.0000           -0.3932979             -10.7022
        61        2.0000           -0.3868106             -10.5257
        62        2.0000           -0.3765351             -10.2460
        63        2.0000           -0.3712250             -10.1015 (HOMO)
        64                         -0.2595261              -7.0621 (LUMO)
        65                         -0.2445136              -6.6536
        66                         -0.2354880              -6.4080
        67                         -0.2096467              -5.7048
        68                         -0.2050376              -5.5794
       ...                                ...                  ...
       120                          0.9079174              24.7057
      -------------------------------------------------------------
                  HL-Gap            0.1116989 Eh            3.0395 eV
             Fermi-level           -0.3153756 Eh           -8.5818 eV

 SCC (total)                   0 d,  0 h,  0 min,  0.063 sec
 SCC setup                      ...        0 min,  0.000 sec (  0.644%)
 Dispersion                     ...        0 min,  0.021 sec ( 32.624%)
 classical contributions        ...        0 min,  0.000 sec (  0.242%)
 integral evaluation            ...        0 min,  0.008 sec ( 13.328%)
 iterations                     ...        0 min,  0.009 sec ( 13.648%)
 molecular gradient             ...        0 min,  0.025 sec ( 39.152%)
 printout                       ...        0 min,  0.000 sec (  0.350%)

         :::::::::::::::::::::::::::::::::::::::::::::::::::::
         ::                     SUMMARY                     ::
         :::::::::::::::::::::::::::::::::::::::::::::::::::::
         :: total energy             -70.312750418670 Eh    ::
         :: gradient norm              0.000762326939 Eh/a0 ::
         :: HOMO-LUMO gap              3.039482008772 eV    ::
         ::.................................................::
         :: SCC energy               -71.240650223593 Eh    ::
         :: -> isotropic ES            0.092349932844 Eh    ::
         :: -> anisotropic ES          0.005185024343 Eh    ::
         :: -> anisotropic XC          0.029563789628 Eh    ::
         :: -> dispersion             -0.047357773656 Eh    ::
         :: repulsion energy           0.927899804923 Eh    ::
         :: add. restraining           0.000000000000 Eh    ::
         :: total charge              -0.000000000000 e     ::
         :::::::::::::::::::::::::::::::::::::::::::::::::::::

           -------------------------------------------------
          |                Property Printout                |
           -------------------------------------------------

    * Orbital Energies and Occupations

         #    Occupation            Energy/Eh            Energy/eV
      -------------------------------------------------------------
         1        2.0000           -0.7618623             -20.7313
       ...           ...                  ...                  ...
        51        2.0000           -0.4554480             -12.3934
        52        2.0000           -0.4506392             -12.2625
        53        2.0000           -0.4428398             -12.0503
        54        2.0000           -0.4379656             -11.9177
        55        2.0000           -0.4227608             -11.5039
        56        2.0000           -0.4172426             -11.3537
        57        2.0000           -0.4088520             -11.1254
        58        2.0000           -0.4059539             -11.0466
        59        2.0000           -0.3983654             -10.8401
        60        2.0000           -0.3932979             -10.7022
        61        2.0000           -0.3868106             -10.5257
        62        2.0000           -0.3765351             -10.2460
        63        2.0000           -0.3712250             -10.1015 (HOMO)
        64                         -0.2595261              -7.0621 (LUMO)
        65                         -0.2445136              -6.6536
        66                         -0.2354880              -6.4080
        67                         -0.2096467              -5.7048
        68                         -0.2050376              -5.5794
        69                         -0.1844324              -5.0187
        70                         -0.1692065              -4.6043
        71                         -0.1175312              -3.1982
        72                         -0.0850689              -2.3148
        73                         -0.0477198              -1.2985
        74                         -0.0014359              -0.0391
       ...                                ...                  ...
       120                          0.9079174              24.7057
      -------------------------------------------------------------
                  HL-Gap            0.1116989 Eh            3.0395 eV
             Fermi-level           -0.3153756 Eh           -8.5818 eV

     #   Z          covCN         q      C6AA      α(0)
     1   6 C        3.757    -0.105    22.551     6.771
     2   6 C        2.958    -0.015    28.375     8.737
     3   6 C        2.896     0.136    25.033     8.203
     4   8 O        1.703    -0.308    19.132     5.905
     5   6 C        3.657     0.045    20.100     6.435
     6   6 C        2.960    -0.023    28.574     8.768
     7   6 C        3.757    -0.116    22.772     6.804
     8   6 C        2.911     0.043    27.043     8.527
     9   7 N        1.843    -0.235    26.990     7.699
    10   6 C        2.996     0.081    26.193     8.395
    11   6 C        3.802    -0.087    22.163     6.702
    12  16 S        2.869     0.408   125.523    18.857
    13   6 C        3.208     0.106    25.097     8.157
    14   7 N        1.895    -0.295    28.483     7.912
    15   6 C        3.225     0.067    25.774     8.250
    16   6 C        3.103     0.033    27.126     8.534
    17   7 N        2.801    -0.108    23.364     7.179
    18   6 C        2.906    -0.050    29.229     8.865
    19   6 C        2.928    -0.056    29.398     8.892
    20   6 C        2.870     0.137    24.999     8.196
    21   8 O        1.706    -0.268    18.442     5.798
    22   6 C        3.645     0.036    20.309     6.477
    23   6 C        2.908    -0.081    30.027     8.985
    24   8 O        0.860    -0.487    23.504     6.500
    25   1 H        0.925     0.047     2.358     2.402
    26   1 H        0.924     0.049     2.334     2.389
    27   1 H        0.925     0.060     2.202     2.321
    28   1 H        0.925     0.058     2.220     2.330
    29   1 H        0.924     0.034     2.536     2.490
    30   1 H        0.924     0.034     2.532     2.488
    31   1 H        0.925     0.050     2.317     2.380
    32   1 H        0.925     0.053     2.287     2.365
    33   1 H        0.925     0.067     2.119     2.276
    34   1 H        0.925     0.046     2.371     2.408
    35   1 H        0.925     0.073     2.050     2.239
    36   1 H        0.925     0.084     1.938     2.177
    37   1 H        0.860     0.191     1.155     1.684
    38   1 H        0.926     0.042     2.425     2.435
    39   1 H        0.926     0.056     2.243     2.342
    40   1 H        0.925     0.063     2.166     2.302
    41   1 H        0.924     0.042     2.425     2.435
    42   1 H        0.924     0.042     2.425     2.435
    43   1 H        0.926     0.052     2.293     2.368

 Mol. C6AA /au·bohr⁶  :      23673.850986
 Mol. C8AA /au·bohr⁸  :     592167.157652
 Mol. α(0) /au        :        239.817275


Wiberg/Mayer (AO) data.
largest (>0.10) Wiberg bond orders for each atom

 ---------------------------------------------------------------------------
     #   Z sym  total        # sym  WBO       # sym  WBO       # sym  WBO
 ---------------------------------------------------------------------------
     1   6 C    3.994 --     2 C    1.028    27 H    0.980    25 H    0.979
                            26 H    0.965
     2   6 C    3.984 --     8 C    1.397     3 C    1.364     1 C    1.028
     3   6 C    3.945 --     6 C    1.381     2 C    1.364     4 O    1.001
     4   8 O    2.104 --     3 C    1.001     5 C    0.970
     5   6 C    3.947 --    28 H    0.980    30 H    0.979    29 H    0.979
                             4 O    0.970
     6   6 C    3.987 --     3 C    1.381    10 C    1.356     7 C    1.029
                             8 C    0.103
     7   6 C    3.993 --     6 C    1.029    33 H    0.978    32 H    0.972
                            31 H    0.963
     8   6 C    3.982 --     9 N    1.441     2 C    1.397    34 H    0.961
                             6 C    0.103
     9   7 N    3.063 --     8 C    1.441    10 C    1.405
    10   6 C    3.982 --     9 N    1.405     6 C    1.356    11 C    1.027
    11   6 C    3.979 --    10 C    1.027    36 H    0.966    35 H    0.955
                            12 S    0.881
    12  16 S    3.780 --    24 O    1.818    13 C    0.930    11 C    0.881
    13   6 C    3.946 --    14 N    1.539    17 N    1.235    12 S    0.930
    14   7 N    3.010 --    13 C    1.539    15 C    1.208    17 N    0.125
    15   6 C    3.977 --    23 C    1.322    16 C    1.254    14 N    1.208
    16   6 C    3.950 --    18 C    1.330    15 C    1.254    17 N    1.152
    17   7 N    3.566 --    13 C    1.235    16 C    1.152    37 H    0.931
                            14 N    0.125
    18   6 C    3.988 --    19 C    1.513    16 C    1.330    38 H    0.967
                            23 C    0.106
    19   6 C    3.981 --    18 C    1.513    20 C    1.296    39 H    0.968
    20   6 C    3.935 --    23 C    1.433    19 C    1.296    21 O    1.060
    21   8 O    2.225 --    20 C    1.060    22 C    0.986
    22   6 C    3.946 --    21 O    0.986    40 H    0.980    41 H    0.976
                            42 H    0.976
    23   6 C    3.982 --    20 C    1.433    15 C    1.322    43 H    0.963
                            18 C    0.106
    24   8 O    1.994 --    12 S    1.818
    25   1 H    0.997 --     1 C    0.979
    26   1 H    0.997 --     1 C    0.965
[...]
   
   for ddCOSMO and CPCM-X implicit solvation:
   * M. Stahn, S. Ehlert, S. Grimme, J. Phys. Chem. A,
     2023, XX, XXXX-XXXX. DOI: 10.1021/acs.jpca.3c04382
   
   for DFT-D4:
   * E. Caldeweyher, C. Bannwarth and S. Grimme, J. Chem. Phys., 2017,
     147, 034112. DOI: 10.1063/1.4993215
   * E. Caldeweyher, S. Ehlert, A. Hansen, H. Neugebauer, S. Spicher,
     C. Bannwarth and S. Grimme, J. Chem. Phys., 2019, 150, 154122.
     DOI: 10.1063/1.5090222
   * E. Caldeweyher, J.-M. Mewes, S. Ehlert and S. Grimme, Phys. Chem. Chem. Phys.
     2020, 22, 8499-8512. DOI: 10.1039/D0CP00502A
   
   for sTDA-xTB:
   * S. Grimme and C. Bannwarth, J. Chem. Phys., 2016, 145, 054103.
     DOI: 10.1063/1.4959605
   
   in the mass-spec context:
   * V. Asgeirsson, C. Bauer and S. Grimme, Chem. Sci., 2017, 8, 4879.
     DOI: 10.1039/c7sc00601b
   * J. Koopman and S. Grimme, ACS Omega 2019, 4, 12, 15120-15133.
     DOI: 10.1021/acsomega.9b02011
   
   for metadynamics refer to:
   * S. Grimme, J. Chem. Theory Comput., 2019, 155, 2847-2862
     DOI: 10.1021/acs.jctc.9b00143
   
   for SPH calculations refer to:
   * S. Spicher and S. Grimme, J. Chem. Theory Comput., 2021, 17, 1701-1714
     DOI: 10.1021/acs.jctc.0c01306
   
   for ONIOM refer to:
   * C. Plett, A. Katbashev, S. Ehlert, S. Grimme, M. Bursch,
     Phys. Chem. Chem. Phys., 2023, 25, 17860-17868. DOI: 10.1039/D3CP02178E
   
   for DIPRO refer to:
   * J. Kohn, N. Gildemeister, S. Grimme, D. Fazzi, A. Hansen,
     J. Chem. Phys., 2023, just accepted.
   
   for PTB refer to:
   * S. Grimme, M. Mueller, A. Hansen, J. Chem. Phys., 2023, 158, 124111.
     DOI: 10.1063/5.0137838
   
   with help from (in alphabetical order)
   P. Atkinson, C. Bannwarth, F. Bohle, G. Brandenburg, E. Caldeweyher
   M. Checinski, S. Dohm, S. Ehlert, S. Ehrlich, I. Gerasimov, C. Hölzer
   A. Katbashev, J. Kohn, J. Koopman, C. Lavigne, S. Lehtola, F. März, M. Müller,
   F. Musil, H. Neugebauer, J. Pisarek, C. Plett, P. Pracht, F. Pultar,
   J. Seibert, P. Shushkov, S. Spicher, M. Stahn, M. Steiner, T. Strunk,
   J. Stückrath, T. Rose, and J. Unsleber
   
 * started run on 2025/05/15 at 16:35:47.444     
   ID    Z sym.   atoms
    1    6 C      1-3, 5-8, 10, 11, 13, 15, 16, 18-20, 22, 23
    2    8 O      4, 21, 24
    3    7 N      9, 14, 17
    4   16 S      12
    5    1 H      25-43

           -------------------------------------------------
          |                Calculation Setup                |
           -------------------------------------------------

          program call               : xtb /rds/general/user/hgt20/home/callum/QDESCP/Omeprazole_rdkit_conf_9/Omeprazole_rdkit_conf_9.xyz --acc 1 --gfn 2 --chrg 0 --uhf 2 --etemp 300 --input /rds/general/user/hgt20/home/callum/QDESCP/Omeprazole_rdkit_conf_9/Omeprazole_rdkit_conf_9_xtb.inp -P 1
          hostname                   : login-c
          coordinate file            : /rds/general/user/hgt20/home/callum/QDESCP/Omeprazole_rdkit_conf_9/Omeprazole_rdkit_conf_9.xyz
          omp threads                :                     1


           -------------------------------------------------
          |                 G F N 2 - x T B                 |
           -------------------------------------------------

        Reference                      10.1021/acs.jctc.8b01176
      * Hamiltonian:
        H0-scaling (s, p, d)           1.850000    2.230000    2.230000
        zeta-weighting                 0.500000
      * Dispersion:
        s8                             2.700000
        a1                             0.520000
        a2                             5.000000
        s9                             5.000000
      * Repulsion:
        kExp                           1.500000    1.000000
        rExp                           1.000000
      * Coulomb:
        alpha                          2.000000
        third order                    shell-resolved
        anisotropic                    true
        a3                             3.000000
        a5                             4.000000
        cn-shift                       1.200000
        cn-exp                         4.000000
        max-rad                        5.000000


          ...................................................
          :                      SETUP                      :
          :.................................................:
          :  # basis functions                 121          :
          :  # atomic orbitals                 120          :
          :  # shells                           68          :
          :  # electrons                       126          :
          :  max. iterations                   250          :
          :  Hamiltonian                  GFN2-xTB          :
          :  restarted?                      false          :
          :  GBSA solvation                  false          :
          :  PC potential                    false          :
          :  electronic temp.          300.0000000     K    :
          :  accuracy                    1.0000000          :
          :  -> integral cutoff          0.2500000E+02      :
          :  -> integral neglect         0.1000000E-07      :
          :  -> SCF convergence          0.1000000E-05 Eh   :
          :  -> wf. convergence          0.1000000E-03 e    :
          :  Broyden damping             0.4000000          :
          :  net charge                          0          :
          :  unpaired electrons                  2          :
          ...................................................

 iter      E             dE          RMSdq      gap      omega  full diag
   1    -70.9520543 -0.709521E+02  0.436E+00    0.41       0.0  T
   2    -70.8458337  0.106221E+00  0.303E+00    0.40       1.0  T
   3    -70.7296383  0.116195E+00  0.254E+00    0.96       1.0  T
   4    -71.0473137 -0.317675E+00  0.128E+00    0.30       1.0  T
   5    -71.0106016  0.367121E-01  0.111E+00    0.49       1.0  T
   6    -71.0174099 -0.680832E-02  0.916E-01    0.18       1.0  T
   7    -70.9466848  0.707251E-01  0.120E+00    0.79       1.0  T
   8    -71.0637703 -0.117085E+00  0.852E-01    0.46       1.0  T
   9    -71.0543939  0.937634E-02  0.738E-01    0.39       1.0  T
  10    -71.1084814 -0.540875E-01  0.336E-01    0.26       1.0  T
  11    -71.1136678 -0.518638E-02  0.221E-01    0.28       1.0  T
  12    -71.1180093 -0.434154E-02  0.951E-02    0.24       1.0  T
  13    -71.1180607 -0.514030E-04  0.974E-02    0.24       1.0  T
  14    -71.1186184 -0.557641E-03  0.466E-02    0.24       1.0  T
  15    -71.1171435  0.147487E-02  0.107E-01    0.25       1.0  T
  16    -71.1186926 -0.154907E-02  0.156E-02    0.24       1.0  T
  17    -71.1186912  0.137854E-05  0.137E-02    0.24       1.1  T
  18    -71.1187119 -0.207119E-04  0.549E-03    0.24       2.8  T
  19    -71.1187138 -0.186398E-05  0.273E-03    0.24       5.6  T
  20    -71.1187140 -0.205461E-06  0.236E-03    0.24       6.5  T
  21    -71.1187147 -0.724891E-06  0.400E-04    0.24      38.2  T
  22    -71.1187147 -0.131779E-07  0.170E-04    0.24      89.5  T

   *** convergence criteria satisfied after 22 iterations ***

         #    Occupation            Energy/Eh            Energy/eV
      -------------------------------------------------------------
         1        2.0000           -0.7538384             -20.5130
       ...           ...                  ...                  ...
        58        2.0000           -0.4008910             -10.9088
        59        2.0000           -0.3933763             -10.7043
        60        1.9898           -0.3836484             -10.4396
        61        1.9633           -0.3824077             -10.4058
        62        1.7844           -0.3805308             -10.3548
        63        1.2625           -0.3783222             -10.2947
        64        0.9903           -0.2509517              -6.8287 (HOMO)
        65        0.0097           -0.2421716              -6.5898 (LUMO)
        66        0.0000           -0.2318087              -6.3078
        67                         -0.2085792              -5.6757
        68                         -0.2015039              -5.4832
        69                         -0.1732589              -4.7146
       ...                                ...                  ...
       120                          0.9134883              24.8573
      -------------------------------------------------------------
                  HL-Gap            0.0087801 Eh            0.2389 eV
             Fermi-level           -0.3129327 Eh           -8.5153 eV

 transition dipole moment (au) for excitation:          63          64
     X       Y       Z   
   1.8325   0.1467  -0.3995  total (au/Debye):    1.881   4.782
 dE (eV)             :    3.466
 oscillator strength :  0.42498E+00

 SCC (total)                   0 d,  0 h,  0 min,  0.109 sec
 SCC setup                      ...        0 min,  0.000 sec (  0.350%)
 Dispersion                     ...        0 min,  0.001 sec (  0.470%)
 classical contributions        ...        0 min,  0.000 sec (  0.139%)
 integral evaluation            ...        0 min,  0.008 sec (  7.603%)
 iterations                     ...        0 min,  0.068 sec ( 61.692%)
 molecular gradient             ...        0 min,  0.025 sec ( 22.538%)
 printout                       ...        0 min,  0.008 sec (  7.202%)

         :::::::::::::::::::::::::::::::::::::::::::::::::::::
         ::                     SUMMARY                     ::
         :::::::::::::::::::::::::::::::::::::::::::::::::::::
         :: total energy             -70.191015575495 Eh    ::
         :: gradient norm              0.099219894091 Eh/a0 ::
         :: HOMO-LUMO gap              0.238917994853 eV    ::
         ::.................................................::
         :: SCC energy               -71.118915380418 Eh    ::
         :: -> isotropic ES            0.088202916821 Eh    ::
         :: -> anisotropic ES          0.004801564396 Eh    ::
         :: -> anisotropic XC          0.025197987585 Eh    ::
         :: -> dispersion             -0.047362381397 Eh    ::
         :: repulsion energy           0.927899804923 Eh    ::
         :: add. restraining           0.000000000000 Eh    ::
         :: total charge               0.000000000000 e     ::
         :::::::::::::::::::::::::::::::::::::::::::::::::::::

           -------------------------------------------------
          |                Property Printout                |
           -------------------------------------------------

    * Orbital Energies and Occupations

         #    Occupation            Energy/Eh            Energy/eV
      -------------------------------------------------------------
         1        2.0000           -0.7538384             -20.5130
       ...           ...                  ...                  ...
        52        2.0000           -0.4456088             -12.1256
        53        2.0000           -0.4440427             -12.0830
        54        2.0000           -0.4373495             -11.9009
        55        2.0000           -0.4198407             -11.4244
        56        2.0000           -0.4138350             -11.2610
        57        2.0000           -0.4049505             -11.0193
        58        2.0000           -0.4008910             -10.9088
        59        2.0000           -0.3933763             -10.7043
        60        1.9898           -0.3836484             -10.4396
        61        1.9633           -0.3824077             -10.4058
        62        1.7844           -0.3805308             -10.3548
        63        1.2625           -0.3783222             -10.2947
        64        0.9903           -0.2509517              -6.8287 (HOMO)
        65        0.0097           -0.2421716              -6.5898 (LUMO)
        66        0.0000           -0.2318087              -6.3078
        67                         -0.2085792              -5.6757
        68                         -0.2015039              -5.4832
        69                         -0.1732589              -4.7146
        70                         -0.1634205              -4.4469
        71                         -0.1148570              -3.1254
        72                         -0.0842864              -2.2936
        73                         -0.0409796              -1.1151
        74                          0.0060500               0.1646
        75                          0.0165895               0.4514
       ...                                ...                  ...
       120                          0.9134883              24.8573
      -------------------------------------------------------------
                  HL-Gap            0.0087801 Eh            0.2389 eV
             Fermi-level           -0.3129327 Eh           -8.5153 eV

     #   Z          covCN         q      C6AA      α(0)
     1   6 C        3.757    -0.103    22.520     6.766
     2   6 C        2.958    -0.021    28.528     8.761
     3   6 C        2.896     0.124    25.272     8.242
     4   8 O        1.703    -0.308    19.138     5.906
     5   6 C        3.657     0.045    20.108     6.437
     6   6 C        2.960    -0.017    28.429     8.746
     7   6 C        3.757    -0.115    22.749     6.800
     8   6 C        2.911     0.041    27.084     8.534
     9   7 N        1.843    -0.201    26.184     7.583
    10   6 C        2.996     0.064    26.553     8.453
    11   6 C        3.802    -0.083    22.080     6.690
    12  16 S        2.869     0.379   126.549    18.934
    13   6 C        3.208     0.084    25.542     8.229
    14   7 N        1.895    -0.312    28.937     7.975
    15   6 C        3.225     0.076    25.572     8.217
    16   6 C        3.103     0.059    26.553     8.444
    17   7 N        2.801    -0.116    23.521     7.203
    18   6 C        2.906    -0.068    29.687     8.934
    19   6 C        2.928    -0.062    29.535     8.913
    20   6 C        2.870     0.149    24.768     8.158
    21   8 O        1.706    -0.238    17.938     5.718
    22   6 C        3.645     0.031    20.392     6.490
    23   6 C        2.908    -0.097    30.436     9.046
    24   8 O        0.860    -0.470    23.128     6.448
    25   1 H        0.925     0.045     2.381     2.413
    26   1 H        0.924     0.047     2.355     2.400
    27   1 H        0.925     0.062     2.180     2.309
    28   1 H        0.925     0.057     2.237     2.339
    29   1 H        0.924     0.033     2.544     2.494
    30   1 H        0.924     0.033     2.543     2.494
    31   1 H        0.925     0.054     2.276     2.359
    32   1 H        0.925     0.055     2.257     2.349
    33   1 H        0.925     0.069     2.096     2.264
    34   1 H        0.925     0.050     2.314     2.379
    35   1 H        0.925     0.074     2.045     2.236
    36   1 H        0.925     0.080     1.982     2.202
    37   1 H        0.860     0.187     1.177     1.700
    38   1 H        0.926     0.037     2.484     2.465
    39   1 H        0.926     0.052     2.298     2.371
    40   1 H        0.925     0.068     2.103     2.268
    41   1 H        0.924     0.054     2.275     2.359
    42   1 H        0.924     0.053     2.278     2.360
    43   1 H        0.926     0.048     2.350     2.397

 Mol. C6AA /au·bohr⁶  :      23660.689664
 Mol. C8AA /au·bohr⁸  :     592282.325699
 Mol. α(0) /au        :        239.785682


Wiberg/Mayer (AO) data.
largest (>0.10) Wiberg bond orders for each atom

 ---------------------------------------------------------------------------
     #   Z sym  total        # sym  WBO       # sym  WBO       # sym  WBO
 ---------------------------------------------------------------------------
     1   6 C    3.987 --     2 C    1.026    25 H    0.979    27 H    0.976
                            26 H    0.965
     2   6 C    3.873 --     8 C    1.389     3 C    1.294     1 C    1.026
     3   6 C    3.875 --     6 C    1.400     2 C    1.294     4 O    0.997
     4   8 O    2.094 --     3 C    0.997     5 C    0.971
     5   6 C    3.944 --    28 H    0.979    30 H    0.979    29 H    0.979
                             4 O    0.971
     6   6 C    3.941 --     3 C    1.400    10 C    1.306     7 C    1.029
     7   6 C    3.984 --     6 C    1.029    33 H    0.976    32 H    0.971
                            31 H    0.960
     8   6 C    3.942 --     9 N    1.425     2 C    1.389    34 H    0.955
     9   7 N    2.956 --     8 C    1.425    10 C    1.315
    10   6 C    3.890 --     9 N    1.315     6 C    1.306    11 C    1.059
    11   6 C    3.923 --    10 C    1.059    36 H    0.966    35 H    0.954
                            12 S    0.787
    12  16 S    3.803 --    24 O    1.783    13 C    1.001    11 C    0.787
    13   6 C    3.824 --    14 N    1.427    17 N    1.122    12 S    1.001
    14   7 N    2.953 --    13 C    1.427    15 C    1.247
    15   6 C    3.927 --    23 C    1.314    14 N    1.247    16 C    1.181
    16   6 C    3.876 --    18 C    1.301    17 N    1.207    15 C    1.181
    17   7 N    3.499 --    16 C    1.207    13 C    1.122    37 H    0.932
    18   6 C    3.894 --    19 C    1.444    16 C    1.301    38 H    0.967
    19   6 C    3.855 --    18 C    1.444    20 C    1.265    39 H    0.968
    20   6 C    3.828 --    23 C    1.338    19 C    1.265    21 O    1.096
    21   8 O    2.220 --    20 C    1.096    22 C    0.984
    22   6 C    3.937 --    21 O    0.984    40 H    0.979    42 H    0.971
                            41 H    0.971
    23   6 C    3.862 --    20 C    1.338    15 C    1.314    43 H    0.963
    24   8 O    1.967 --    12 S    1.783
    25   1 H    0.995 --     1 C    0.979
    26   1 H    0.992 --     1 C    0.965
    27   1 H    0.992 --     1 C    0.976
    28   1 H    0.995 --     5 C    0.979
    29   1 H    0.999 --     5 C    0.979
    30   1 H    0.999 --     5 C    0.979
    31   1 H    0.994 --     7 C    0.960
    32   1 H    0.995 --     7 C    0.971
    33   1 H    0.992 --     7 C    0.976
    34   1 H    0.988 --     8 C    0.955
    35   1 H    0.992 --    11 C    0.954
    36   1 H    0.991 --    11 C    0.966
    37   1 H    0.965 --    17 N    0.932
    38   1 H    0.997 --    18 C    0.967
    39   1 H    0.997 --    19 C    0.968
    40   1 H    0.995 --    22 C    0.979
    41   1 H    0.990 --    22 C    0.971
    42   1 H    0.991 --    22 C    0.971
    43   1 H    0.997 --    23 C    0.963
 ---------------------------------------------------------------------------

Topologies differ in total number of bonds
Writing topology from bond orders to xtbtopo.mol

molecular dipole:
                 x           y           z       tot (Debye)
 q only:       -0.252       0.876      -0.653
   full:       -0.240       0.576      -0.423       1.917
molecular quadrupole (traceless):
                xx          xy          yy          xz          yz          zz
 q only:       17.063      -4.316      -6.322      10.317       2.632     -10.742
  q+dip:       19.917      -3.604      -7.081      10.100      -0.041     -12.836
   full:       17.949      -4.222      -7.881      10.321       1.694     -10.068


           -------------------------------------------------
          | TOTAL ENERGY              -70.191015575495 Eh   |
          | GRADIENT NORM               0.099219894091 Eh/α |
          | HOMO-LUMO GAP               0.238917994853 eV   |
           -------------------------------------------------

------------------------------------------------------------------------
 * finished run on 2025/05/15 at 16:35:47.570     
------------------------------------------------------------------------
 total:
 * wall-time:     0 d,  0 h,  0 min,  0.126 sec
 *  cpu-time:     0 d,  0 h,  0 min,  0.107 sec
 * ratio c/w:     0.846 speedup
 SCF:
 * wall-time:     0 d,  0 h,  0 min,  0.110 sec
 *  cpu-time:     0 d,  0 h,  0 min,  0.094 sec
 * ratio c/w:     0.859 speedup


