43
 energy: -70.312750418663 gnorm: 0.000762314644 xtb: 6.7.1 (edcfbbe)
C            6.28033681541708       -1.40651987268410       -0.50255868915909
C            4.80361561766565       -1.19547963614144       -0.38597628401176
C            4.25136121344393        0.08430443462783       -0.28208117113257
O            5.07464724622767        1.19670216861831       -0.30452125798779
C            5.51793229954731        1.60036865394757        0.97455208395643
C            2.86706261091217        0.24826436163343       -0.19522535572138
C            2.26782971202501        1.61874667483867       -0.12284715662381
C            3.91335838747458       -2.26146997295583       -0.38144695992277
N            2.60677282053944       -2.12812717997477       -0.27865528406175
C            2.08642971519162       -0.91273455647742       -0.19324459212032
C            0.60405297860007       -0.85487647865281       -0.06838339123575
S            0.13279912333628       -0.12572594590013        1.58240056418479
C           -1.61705668434369       -0.09444153432043        1.16575558341559
N           -2.18612615561982        0.60463831141587        0.22607892599881
C           -3.52393291469750        0.31543563615533        0.33041025077367
C           -3.72983134713187       -0.59553516473546        1.39373556873961
N           -2.48107065701364       -0.82970871183139        1.91021748357806
C           -4.99816749858219       -1.05562700462429        1.71523549883795
C           -6.04490881712049       -0.58652445787682        0.95791912717539
C           -5.85422395188232        0.32147389269515       -0.10307348927056
O           -7.00054731670304        0.68358787749267       -0.74686174817249
C           -6.90554773182806        1.58935932522840       -1.81880290467199
C           -4.59214402799161        0.78246255000725       -0.43095641566705
O            0.21016282185822       -1.19378162400252        2.58317192374711
H            6.49060741673966       -2.26393163924421       -1.13776430005363
H            6.71524692113287       -1.59973725320970        0.47911026699935
H            6.75335613381439       -0.52153836954854       -0.92257801428041
H            6.13375845331781        2.48380930995380        0.81611661839523
H            6.11613476902688        0.81965024225004        1.45567026871052
H            4.67618935197353        1.85274075360556        1.62794893999385
H            1.99550714288967        1.86778722748345        0.90197011002139
H            1.37061680838753        1.68573780078807       -0.73348999614474
H            2.99158791959257        2.34887139373175       -0.47819661498195
H            4.27315576217912       -3.27893692155610       -0.46123101724540
H            0.14102713396819       -0.19752988366065       -0.80172074446392
H            0.19164750867800       -1.86005795487128       -0.12091661197713
H           -2.19996603275913       -1.43357134101935        2.66688690513351
H           -5.15864616035936       -1.75033548229945        2.52471642238813
H           -7.05525504717560       -0.90475278278793        1.15862574131780
H           -7.92418312715084        1.73017567807636       -2.17659907203862
H           -6.49825448794235        2.55259282705612       -1.49508121661053
H           -6.28852539396776        1.18870570392081       -2.62946295401236
H           -4.40700933167000        1.47562894484780       -1.23324704179939
