57
 energy: -90.581250181994 gnorm: 0.000457415701 xtb: 6.7.1 (edcfbbe)
C            1.59687251136698       -3.20012942152348        0.23733603489033
N            2.30118104374207       -2.08402726028368        0.82495588683783
C            3.42757678927627       -2.27269946338881        1.54728307849608
N            4.03926507954396       -1.23758759995128        2.07196696081193
C            5.16226766777067       -1.46965310588601        2.77746862335592
C            5.70407944853150       -2.69652107634222        2.98960623979023
C            5.06210955698447       -3.85481175748582        2.44060124596238
N            3.89923252966160       -3.53695793667345        1.71236196075644
O            5.39379594538981       -5.01937488069325        2.53242903312905
C            1.77925650517719       -0.73573764117905        0.67020241803559
C            1.69565734082874       -0.30618672239372       -0.79599815992765
C            1.17361310801610        1.12559167052704       -0.86964554592581
C            0.41069368594308       -0.57890724647055        1.33841316916008
C           -0.09655241045156        0.84845409004285        1.14873244183983
N           -0.14703641928294        1.16302289677401       -0.26749203664258
C           -0.95503067819331        2.18859272954065       -0.69553965669243
N           -0.53290858081366        3.22658309801843       -1.36241974227723
C           -1.65439134972620        3.95030072597449       -1.68019400840474
C           -2.79734611013448        3.29127176097766       -1.17455040441370
N           -2.32815361051241        2.15383381368476       -0.54673562904244
C           -3.15084628989912        1.06447313853067       -0.08921088423562
C           -2.68857919054815       -0.27257725417655       -0.61259145573914
C           -2.18231675093651       -0.38837812949480       -1.90204240753316
C           -1.73954616174459       -1.60714726483855       -2.38024254395849
C           -1.82802903654309       -2.71613773360173       -1.55795187912426
F           -1.37535725842313       -3.90703056988499       -2.00709950265299
C           -2.35393838717995       -2.63763302541192       -0.28192408170953
C           -2.77911391929242       -1.40569658974500        0.18519873025094
C           -4.06828330286293        3.80999099253049       -1.34159232922770
C           -4.17750016376969        5.00255589498839       -2.03353422825956
C           -3.05557941239541        5.65882213293199       -2.53569671755685
C           -1.78356404241250        5.14815765127485       -2.36947172428762
H            2.23036807056207       -3.74208101574833       -0.47048008646235
H            0.73555989868318       -2.82692432102408       -0.30699649407636
H            1.23768161798614       -3.89468661955297        1.00272449679243
H            5.61882575865261       -0.57442391276545        3.17868616560534
H            6.60498433539620       -2.83869459665125        3.56068156647594
H            3.42228084998199       -4.33204507473642        1.30837586835776
H            2.50074998494768       -0.09307150585541        1.18362017975344
H            1.01245059229641       -0.95231972611485       -1.34932652676242
H            2.68245466400801       -0.36505591301092       -1.25524209702453
H            1.08189792682754        1.45616482301629       -1.90382717054180
H            1.86349135121377        1.80747647034180       -0.35429376952660
H           -0.30749484583300       -1.26956760931228        0.89625802318006
H            0.49513213535516       -0.79745585571657        2.40389481040509
H            0.57956534858635        1.54658068115502        1.66749381624885
H           -1.08894036937361        0.95424491310874        1.58577217477446
H           -4.16573462292272        1.25695326878386       -0.45597911342770
H           -3.20002025849471        1.04170217380545        1.00731689782189
H           -2.12151496089237        0.48307250931351       -2.53578566739820
H           -1.33298027222816       -1.70651850619114       -3.37412494250730
H           -2.41691415914478       -3.52370895166147        0.32982652412716
H           -3.18096520676066       -1.32955902581827        1.18486831409369
H           -4.94591273397968        3.31528669778669       -0.95026145189273
H           -5.15489548024448        5.43599221822711       -2.18516530789627
H           -3.18931828386182        6.59027507977329       -3.06563993277120
H           -0.91237947781244        5.65420788238512       -2.75261916310580
