31
 energy: -58.961766074532 gnorm: 0.000337340994 xtb: 6.7.1 (edcfbbe)
N            4.90181150919030        0.33650793724575       -1.77573703292355
C            3.97024490293680        0.17066662132365       -0.82801908547461
N            4.32693194216887        0.31836499661483        0.45111312438173
C            3.41736234626761        0.15881700643691        1.39344935566599
Cl           3.98091215772187        0.37726688882167        2.98771529980078
N            2.14154772892313       -0.14239355688781        1.27808147813736
C            1.77980003730581       -0.29596202650132        0.00192333229306
C            2.62905136851568       -0.15006246525472       -1.10794743581853
N            1.91684926170880       -0.37404879292266       -2.25854492619065
C            0.71051533246286       -0.63941522983923       -1.86088973205973
N            0.55467857575899       -0.60848133949827       -0.50228836096559
C           -0.62509240790263       -0.85713752159168        0.30045222686092
C           -1.13018873169977        0.43679990792739        0.96348098970510
C           -2.65191953610294        0.34609233533354        0.80426061278236
C           -2.79816533283077       -0.52758355155262       -0.44923592475809
O           -1.65793957674176       -1.37049543732197       -0.49140621269949
C           -2.90955541531774        0.31777363892609       -1.73055922469961
O           -4.03258220918194        1.15684550247040       -1.71777480463821
O           -3.28703930742445       -0.31180601461164        1.87148351957859
H            4.64919469786329        0.21234607620927       -2.73898220109987
H            5.84431725521557        0.55050435003888       -1.50380687333072
H           -0.10571076625660       -0.87625582297861       -2.51272066350577
H           -0.34303784965586       -1.60843874316711        1.05356744515859
H           -0.81790412662099        0.49631844224024        2.00326502386023
H           -0.74250088287844        1.30377339329122        0.42850405966875
H           -3.10545795345282        1.33273757941612        0.63797684063718
H           -3.67602950055084       -1.17640380991329       -0.35007586571663
H           -2.04335995369840        0.97828896623890       -1.81886851750593
H           -2.92259391294295       -0.35875178142869       -2.59587968221139
H           -4.82959226199605        0.61779770037479       -1.65592459870617
H           -3.14444739078619        0.18623475056017        2.68398783377081
